 Gaussian 16, Revision A.03,
 Gaussian 16:  EM64L-G16RevA.03 25-Dec-2016

 -------------
 #p 6-31g* mp2
 -------------

 ------------------------------------------------------
 Input file generated by CHIRIPA (05-May-2021 14:51:08)
 ------------------------------------------------------
 Symbolic Z-matrix:
 Charge =  0 Multiplicity = 1

                         Standard orientation:
 ---------------------------------------------------------------------
 Center     Atomic      Atomic             Coordinates (Angstroms)
 Number     Number       Type             X           Y           Z
 ---------------------------------------------------------------------
      1          6           0        2.498606   -0.552387    0.564939
      2          6           0        1.718825   -1.821398    0.219195
      3          6           0        0.463557   -1.995420    1.074656
      4          1           0        2.777850   -0.579207    1.627130
      5          1           0        1.842273    0.319422    0.436213
      6          1           0        2.376845   -2.690443    0.347205
      7          1           0        1.441571   -1.791643   -0.842341
      8          1           0       -0.215124   -1.146987    0.939920
      9          1           0        0.725465   -2.050894    2.136225
     10          1           0       -0.078633   -2.908807    0.810811
     11          6           0        3.756152   -0.364472   -0.281815
     12          6           0        4.535933    0.904538    0.063928
     13          6           0        5.791201    1.078560   -0.791532
     14          1           0        4.412485   -1.236282   -0.153089
     15          1           0        3.476908   -0.337653   -1.344006
     16          1           0        4.813188    0.874783    1.125465
     17          1           0        3.877913    1.773583   -0.064081
     18          1           0        5.529294    1.134034   -1.853101
     19          1           0        6.469882    0.230127   -0.656796
     20          1           0        6.333391    1.991947   -0.527687
     21          6           0       -3.583572   -0.122406   -0.336371
     22          6           0       -2.896518   -1.486085   -0.256875
     23          6           0       -3.821982   -2.638086   -0.649562
     24          1           0       -4.466163   -0.124915    0.317825
     25          1           0       -3.953046    0.035166   -1.359139
     26          1           0       -2.527233   -1.640445    0.765093
     27          1           0       -2.015351   -1.480266   -0.911188
     28          1           0       -4.180619   -2.511334   -1.676165
     29          1           0       -4.695409   -2.672422    0.009641
     30          1           0       -3.310535   -3.603589   -0.585642
     31          6           0       -2.671186    1.039266    0.053247
     32          6           0       -3.358240    2.402945   -0.026250
     33          6           0       -2.432776    3.554946    0.366438
     34          1           0       -2.301712    0.881693    1.076015
     35          1           0       -1.788596    1.041774   -0.600949
     36          1           0       -4.239408    2.397125    0.628065
     37          1           0       -3.727526    2.557304   -1.048217
     38          1           0       -1.559349    3.589282   -0.292764
     39          1           0       -2.074139    3.428192    1.393042
     40          1           0       -2.944223    4.520449    0.302519
 ---------------------------------------------------------------------

 SCF Done:  E(RHF) =  -470.731858818     A.U. after   11 cycles
 E2 =    -0.1583811051D+01 EUMP2 =    -0.47231566986862D+03

 The electronic state is 1-A.
 Alpha  occ. eigenvalues --  -11.21642 -11.21581 -11.21537 -11.21492 -11.21446
 Alpha  occ. eigenvalues --  -11.21371 -11.21353 -11.21310 -11.21107 -11.21057
 Alpha  occ. eigenvalues --  -11.21038 -11.20878  -1.08462  -1.08378  -1.03567
 Alpha  occ. eigenvalues --   -1.03444  -0.95998  -0.95922  -0.87052  -0.86911
 Alpha  occ. eigenvalues --   -0.79746  -0.79439  -0.78320  -0.78135  -0.65078
 Alpha  occ. eigenvalues --   -0.65023  -0.60928  -0.60903  -0.59454  -0.59215
 Alpha  occ. eigenvalues --   -0.57664  -0.57471  -0.55278  -0.55237  -0.52733
 Alpha  occ. eigenvalues --   -0.52604  -0.52427  -0.52318  -0.49959  -0.49915
 Alpha  occ. eigenvalues --   -0.47946  -0.47805  -0.46721  -0.46585  -0.45881
 Alpha  occ. eigenvalues --   -0.45741  -0.45713  -0.45331  -0.43809  -0.43686
 Alpha virt. eigenvalues --    0.21533   0.23200   0.23653   0.24325   0.25505
 Alpha virt. eigenvalues --    0.26309   0.27013   0.27535   0.27824   0.29383
 Alpha virt. eigenvalues --    0.30662   0.31269   0.31562   0.31982   0.32100

 Mulliken charges:
               1
     1  C   -0.298697
     2  C   -0.300368
     3  C   -0.480086
     4  H    0.149568
     5  H    0.149874
     6  H    0.151424
     7  H    0.150935
     8  H    0.163774
     9  H    0.152992
    10  H    0.160068
    11  C   -0.298186
    12  C   -0.299615
    13  C   -0.475668
    14  H    0.149487
    15  H    0.149282
    16  H    0.151935
    17  H    0.151905
    18  H    0.155046
    19  H    0.155152
    20  H    0.160209
    21  C   -0.297978
    22  C   -0.302751
    23  C   -0.475758
    24  H    0.149485
    25  H    0.149080
    26  H    0.157663
    27  H    0.153124
    28  H    0.154675
    29  H    0.154927
    30  H    0.159790
    31  C   -0.300595
    32  C   -0.299518
    33  C   -0.475773
    34  H    0.150467
    35  H    0.148932
    36  H    0.152308
    37  H    0.152168
    38  H    0.154813
    39  H    0.155417
    40  H    0.160495
 Sum of Mulliken charges =  -0.00000

 Dipole moment (field-independent basis, Debye):
    X=             -0.0419    Y=              0.0120    Z=              0.0167  Tot=              0.0467
 Quadrupole moment (field-independent basis, Debye-Ang):
   XX=            -85.6905   YY=            -85.5232   ZZ=            -83.7318
   XY=             -1.0045   XZ=              0.3744   YZ=             -0.5554

 Normal termination of Gaussian 16 at Thu May  6 13:12:55 2021.
