 Gaussian 16, Revision A.03,
 Gaussian 16:  EM64L-G16RevA.03 25-Dec-2016

 -------------
 #p 6-31g* mp2
 -------------

 ------------------------------------------------------
 Input file generated by CHIRIPA (05-May-2021 14:57:22)
 ------------------------------------------------------
 Symbolic Z-matrix:
 Charge =  0 Multiplicity = 1

                         Standard orientation:
 ---------------------------------------------------------------------
 Center     Atomic      Atomic             Coordinates (Angstroms)
 Number     Number       Type             X           Y           Z
 ---------------------------------------------------------------------
      1          6           0        1.832048   -1.846766    0.199882
      2          6           0        1.787256   -0.689764    0.984649
      3          6           0        2.822482    0.248046    0.926612
      4          6           0        3.892125   -0.004150    0.068969
      5          6           0        3.965605   -1.147355   -0.725369
      6          6           0        2.919163   -2.071473   -0.651122
      7          1           0        1.023503   -2.569961    0.251263
      8          1           0        0.944234   -0.512635    1.646454
      9          1           0        2.813264    1.152181    1.523162
     10          1           0        4.819105   -1.296331   -1.375572
     11          1           0        2.956618   -2.969133   -1.261735
     12          7           0        4.994009    0.981419   -0.001052
     13          8           0        5.925278    0.735937   -0.764671
     14          8           0        4.905533    1.980730    0.709009
     15          6           0       -3.627219   -2.343883    0.157262
     16          6           0       -2.447852   -1.620830   -0.049638
     17          6           0       -2.482093   -0.229554   -0.182781
     18          6           0       -3.718575    0.409287   -0.103496
     19          6           0       -4.910881   -0.283184    0.101879
     20          6           0       -4.852809   -1.673934    0.232228
     21          1           0       -3.591365   -3.424455    0.259606
     22          1           0       -1.494620   -2.138471   -0.108282
     23          1           0       -1.584309    0.354849   -0.343630
     24          1           0       -5.846106    0.260744    0.155861
     25          1           0       -5.770319   -2.232884    0.392839
     26          7           0       -3.767438    1.881890   -0.242971
     27          8           0       -4.869447    2.421140   -0.169342
     28          8           0       -2.702802    2.468981   -0.423277
 ---------------------------------------------------------------------

 SCF Done:  E(RHF) =  -868.336635822     A.U. after   16 cycles
 E2 =    -0.2600166481D+01 EUMP2 =    -0.87093680230248D+03

 The electronic state is 1-A.
 Alpha  occ. eigenvalues --  -20.61261 -20.61255 -20.61022 -20.61012 -15.86322
 Alpha  occ. eigenvalues --  -15.86079 -11.31834 -11.31632 -11.28471 -11.28403
 Alpha  occ. eigenvalues --  -11.28232 -11.28211 -11.28197 -11.28151 -11.27596
 Alpha  occ. eigenvalues --  -11.27429 -11.27335 -11.27316  -1.60334  -1.60090
 Alpha  occ. eigenvalues --   -1.39884  -1.39638  -1.20039  -1.19837  -1.09408
 Alpha  occ. eigenvalues --   -1.09233  -1.05477  -1.05253  -0.96209  -0.96029
 Alpha  occ. eigenvalues --   -0.86870  -0.86663  -0.83053  -0.82838  -0.78075
 Alpha  occ. eigenvalues --   -0.77820  -0.72534  -0.72296  -0.71663  -0.71413
 Alpha  occ. eigenvalues --   -0.71145  -0.71039  -0.65697  -0.65547  -0.65474
 Alpha  occ. eigenvalues --   -0.65258  -0.62837  -0.62562  -0.56025  -0.55837
 Alpha  occ. eigenvalues --   -0.53786  -0.53596  -0.53546  -0.53347  -0.49307
 Alpha  occ. eigenvalues --   -0.49281  -0.49071  -0.49036  -0.45257  -0.45001
 Alpha  occ. eigenvalues --   -0.38024  -0.37885  -0.37089  -0.36837
 Alpha virt. eigenvalues --    0.04477   0.04671   0.10558   0.10715   0.15888
 Alpha virt. eigenvalues --    0.15996   0.18299   0.22020   0.24829   0.26273
 Alpha virt. eigenvalues --    0.27874   0.28745   0.29855   0.31395   0.32320

 Mulliken charges:
               1
     1  C   -0.176233
     2  C   -0.222981
     3  C   -0.168397
     4  C    0.159814
     5  C   -0.169814
     6  C   -0.217351
     7  H    0.218305
     8  H    0.224861
     9  H    0.280216
    10  H    0.277685
    11  H    0.224091
    12  N    0.487943
    13  O   -0.459180
    14  O   -0.457198
    15  C   -0.171021
    16  C   -0.222206
    17  C   -0.174912
    18  C    0.159561
    19  C   -0.169544
    20  C   -0.218292
    21  H    0.226062
    22  H    0.216430
    23  H    0.277523
    24  H    0.278067
    25  H    0.225819
    26  N    0.487927
    27  O   -0.458245
    28  O   -0.458929
 Sum of Mulliken charges =  -0.00000

 Dipole moment (field-independent basis, Debye):
    X=             -3.6706    Y=             -8.4578    Z=              0.7309  Tot=              9.2489
 Quadrupole moment (field-independent basis, Debye-Ang):
   XX=           -128.8490   YY=           -108.6246   ZZ=           -103.8163
   XY=              4.6837   XZ=             -3.6507   YZ=              2.8240

 Normal termination of Gaussian 16 at Fri May  7 03:16:46 2021.
