 Gaussian 16, Revision A.03,
 Gaussian 16:  EM64L-G16RevA.03 25-Dec-2016

 -------------
 #p 6-31g* mp2
 -------------

 ------------------------------------------------------
 Input file generated by CHIRIPA (05-May-2021 14:57:23)
 ------------------------------------------------------
 Symbolic Z-matrix:
 Charge =  0 Multiplicity = 1

                         Standard orientation:
 ---------------------------------------------------------------------
 Center     Atomic      Atomic             Coordinates (Angstroms)
 Number     Number       Type             X           Y           Z
 ---------------------------------------------------------------------
      1          6           0        4.540614    2.000212    0.144237
      2          6           0        3.196985    1.928114    0.526314
      3          6           0        2.494688    0.723223    0.428519
      4          6           0        3.170142   -0.395047   -0.057819
      5          6           0        4.508296   -0.355074   -0.446451
      6          6           0        5.190835    0.860397   -0.340072
      7          1           0        5.078501    2.940311    0.223541
      8          1           0        2.689460    2.811704    0.902787
      9          1           0        1.454021    0.639294    0.717286
     10          1           0        4.987302   -1.252795   -0.818026
     11          1           0        6.234266    0.913443   -0.637534
     12          7           0        2.437110   -1.676212   -0.165893
     13          8           0        3.054913   -2.647129   -0.597492
     14          8           0        1.258636   -1.685214    0.183042
     15          6           0       -3.455231   -2.313738    0.357435
     16          6           0       -2.376354   -1.608516    0.900764
     17          6           0       -2.275092   -0.224492    0.731138
     18          6           0       -3.275073    0.425357    0.009319
     19          6           0       -4.362170   -0.249300   -0.544167
     20          6           0       -4.442954   -1.633080   -0.362028
     21          1           0       -3.525939   -3.388787    0.494064
     22          1           0       -1.607806   -2.134506    1.459970
     23          1           0       -1.450614    0.346151    1.141041
     24          1           0       -5.112814    0.302621   -1.096739
     25          1           0       -5.281951   -2.178178   -0.785109
     26          7           0       -3.178711    1.890433   -0.176879
     27          8           0       -4.072767    2.439660   -0.816918
     28          8           0       -2.210949    2.461790    0.320742
 ---------------------------------------------------------------------

 SCF Done:  E(RHF) =  -868.340225374     A.U. after   16 cycles
 E2 =    -0.2599046786D+01 EUMP2 =    -0.87093927216027D+03

 The electronic state is 1-A.
 Alpha  occ. eigenvalues --  -20.61263 -20.61219 -20.60553 -20.60518 -15.86280
 Alpha  occ. eigenvalues --  -15.85577 -11.31356 -11.30629 -11.27889 -11.27885
 Alpha  occ. eigenvalues --  -11.27549 -11.27152 -11.27120 -11.26848 -11.26773
 Alpha  occ. eigenvalues --  -11.26754 -11.26139 -11.25923  -1.60305  -1.59612
 Alpha  occ. eigenvalues --   -1.39873  -1.39179  -1.19491  -1.18739  -1.08937
 Alpha  occ. eigenvalues --   -1.08189  -1.04844  -1.04074  -0.95827  -0.95090
 Alpha  occ. eigenvalues --   -0.86261  -0.85497  -0.82676  -0.81920  -0.77763
 Alpha  occ. eigenvalues --   -0.77010  -0.72525  -0.71812  -0.71607  -0.70922
 Alpha  occ. eigenvalues --   -0.70604  -0.69861  -0.65148  -0.64840  -0.64383
 Alpha  occ. eigenvalues --   -0.64053  -0.62206  -0.61425  -0.55357  -0.54594
 Alpha  occ. eigenvalues --   -0.53193  -0.52934  -0.52428  -0.52148  -0.49284
 Alpha  occ. eigenvalues --   -0.49227  -0.48583  -0.48523  -0.45339  -0.44654
 Alpha  occ. eigenvalues --   -0.37452  -0.36696  -0.36430  -0.35633
 Alpha virt. eigenvalues --    0.04755   0.05473   0.11222   0.11982   0.16317
 Alpha virt. eigenvalues --    0.17069   0.20096   0.22338   0.25066   0.27700
 Alpha virt. eigenvalues --    0.28593   0.29611   0.31106   0.31459   0.32026

 Mulliken charges:
               1
     1  C   -0.170030
     2  C   -0.219617
     3  C   -0.170555
     4  C    0.157276
     5  C   -0.170590
     6  C   -0.218679
     7  H    0.227566
     8  H    0.230855
     9  H    0.275103
    10  H    0.275033
    11  H    0.223999
    12  N    0.491530
    13  O   -0.458034
    14  O   -0.473096
    15  C   -0.171740
    16  C   -0.210954
    17  C   -0.170691
    18  C    0.157886
    19  C   -0.172703
    20  C   -0.218315
    21  H    0.226332
    22  H    0.236918
    23  H    0.269412
    24  H    0.272676
    25  H    0.221335
    26  N    0.488649
    27  O   -0.460753
    28  O   -0.468812
 Sum of Mulliken charges =  -0.00000

 Dipole moment (field-independent basis, Debye):
    X=              2.5031    Y=             -0.7574    Z=              1.0607  Tot=              2.8221
 Quadrupole moment (field-independent basis, Debye-Ang):
   XX=            -79.5888   YY=           -112.5898   ZZ=           -104.2461
   XY=             29.2229   XZ=             -0.3592   YZ=              0.6822

 Normal termination of Gaussian 16 at Thu May  6 09:44:17 2021.
