 Gaussian 16, Revision A.03,
 Gaussian 16:  EM64L-G16RevA.03 25-Dec-2016

 -------------
 #p 6-31g* mp2
 -------------

 ------------------------------------------------------
 Input file generated by CHIRIPA (05-May-2021 14:53:16)
 ------------------------------------------------------
 Symbolic Z-matrix:
 Charge =  0 Multiplicity = 1

                         Standard orientation:
 ---------------------------------------------------------------------
 Center     Atomic      Atomic             Coordinates (Angstroms)
 Number     Number       Type             X           Y           Z
 ---------------------------------------------------------------------
      1          6           0       -4.286275   -0.244154    0.012402
      2          6           0       -3.997308   -1.617181   -0.595281
      3          6           0       -5.239880   -2.505243   -0.667075
      4          1           0       -4.702764   -0.376632    1.020336
      5          1           0       -5.062146    0.256696   -0.583055
      6          1           0       -3.221224   -2.114726    0.000336
      7          1           0       -3.581279   -1.481414   -1.601812
      8          1           0       -6.015921   -2.033261   -1.278299
      9          1           0       -5.653820   -2.670171    0.332952
     10          1           0       -5.010602   -3.481878   -1.104655
     11          6           0       -3.053854    0.655126    0.090911
     12          6           0       -3.342821    2.028153    0.698594
     13          6           0       -2.100249    2.916215    0.770388
     14          1           0       -2.277983    0.154276    0.686368
     15          1           0       -2.637365    0.787604   -0.917023
     16          1           0       -3.758850    1.892386    1.705125
     17          1           0       -4.118905    2.525697    0.102977
     18          1           0       -1.686309    3.081143   -0.229638
     19          1           0       -1.324208    2.444233    1.381612
     20          1           0       -2.329527    3.892850    1.207968
     21          6           0        2.465444    2.232075   -0.733106
     22          6           0        3.749618    1.684444   -0.819836
     23          6           0        3.983866    0.359886   -0.438757
     24          6           0        2.906082   -0.391845    0.026616
     25          6           0        1.615225    0.125237    0.124621
     26          6           0        1.404217    1.452097   -0.261985
     27          1           0        2.292501    3.261917   -1.031284
     28          1           0        4.575672    2.287838   -1.185343
     29          1           0        4.967968   -0.089249   -0.495670
     30          1           0        0.811710   -0.500989    0.492890
     31          1           0        0.405857    1.874754   -0.193557
     32          7           0        3.141768   -1.795314    0.432973
     33          8           0        2.175407   -2.436708    0.839663
     34          8           0        4.288397   -2.227384    0.337090
 ---------------------------------------------------------------------

 SCF Done:  E(RHF) =  -669.535209549     A.U. after   15 cycles
 E2 =    -0.2092070575D+01 EUMP2 =    -0.67162728012427D+03

 The electronic state is 1-A.
 Alpha  occ. eigenvalues --  -20.60685 -20.60680 -15.85735 -11.31067 -11.27634
 Alpha  occ. eigenvalues --  -11.27604 -11.27347 -11.26651 -11.26502 -11.22448
 Alpha  occ. eigenvalues --  -11.22262 -11.22175 -11.21886 -11.21827 -11.21229
 Alpha  occ. eigenvalues --   -1.59761  -1.39316  -1.19226  -1.09062  -1.08628
 Alpha  occ. eigenvalues --   -1.04625  -1.04144  -0.96640  -0.95473  -0.87670
 Alpha  occ. eigenvalues --   -0.86018  -0.82311  -0.80255  -0.78832  -0.77347
 Alpha  occ. eigenvalues --   -0.71955  -0.71083  -0.70344  -0.65682  -0.64874
 Alpha  occ. eigenvalues --   -0.64660  -0.62022  -0.61531  -0.60004  -0.58217
 Alpha  occ. eigenvalues --   -0.55940  -0.55133  -0.53348  -0.53258  -0.52955
 Alpha  occ. eigenvalues --   -0.52456  -0.50586  -0.48752  -0.48713  -0.48453
 Alpha  occ. eigenvalues --   -0.47266  -0.46360  -0.46249  -0.44729  -0.44385
 Alpha  occ. eigenvalues --   -0.37211  -0.36220
 Alpha virt. eigenvalues --    0.05161   0.11399   0.16626   0.19911   0.22650
 Alpha virt. eigenvalues --    0.23855   0.24615   0.26017   0.26857   0.28643
 Alpha virt. eigenvalues --    0.29793   0.30441   0.30942   0.31317   0.31951

 Mulliken charges:
               1
     1  C   -0.298504
     2  C   -0.301280
     3  C   -0.476269
     4  H    0.152157
     5  H    0.150819
     6  H    0.155800
     7  H    0.152220
     8  H    0.154755
     9  H    0.156216
    10  H    0.163262
    11  C   -0.302205
    12  C   -0.298720
    13  C   -0.485589
    14  H    0.147132
    15  H    0.148579
    16  H    0.156877
    17  H    0.155554
    18  H    0.150051
    19  H    0.155656
    20  H    0.167508
    21  C   -0.174135
    22  C   -0.218421
    23  C   -0.171538
    24  C    0.159260
    25  C   -0.176581
    26  C   -0.227550
    27  H    0.225319
    28  H    0.222739
    29  H    0.275010
    30  H    0.276050
    31  H    0.239609
    32  N    0.488070
    33  O   -0.460975
    34  O   -0.460875
 Sum of Mulliken charges =  -0.00000

 Dipole moment (field-independent basis, Debye):
    X=             -1.1227    Y=              4.9381    Z=             -1.3942  Tot=              5.2526
 Quadrupole moment (field-independent basis, Debye-Ang):
   XX=            -94.7469   YY=            -99.4163   ZZ=            -94.4999
   XY=             14.6691   XZ=             -5.5812   YZ=              0.2475

 Normal termination of Gaussian 16 at Thu May  6 07:31:35 2021.
