 Gaussian 16, Revision A.03,
 Gaussian 16:  EM64L-G16RevA.03 25-Dec-2016

 -------------
 #p 6-31g* mp2
 -------------

 ------------------------------------------------------
 Input file generated by CHIRIPA (05-May-2021 14:57:23)
 ------------------------------------------------------
 Symbolic Z-matrix:
 Charge =  0 Multiplicity = 1

                         Standard orientation:
 ---------------------------------------------------------------------
 Center     Atomic      Atomic             Coordinates (Angstroms)
 Number     Number       Type             X           Y           Z
 ---------------------------------------------------------------------
      1          6           0       -6.293864   -0.934980   -0.058224
      2          6           0       -5.228381   -1.462594   -0.795037
      3          6           0       -3.972320   -0.849411   -0.765645
      4          6           0       -3.816400    0.295116    0.014762
      5          6           0       -4.858473    0.844823    0.759876
      6          6           0       -6.105840    0.215017    0.715517
      7          1           0       -7.266225   -1.417772   -0.086870
      8          1           0       -5.371497   -2.355582   -1.396814
      9          1           0       -3.130259   -1.236667   -1.326346
     10          1           0       -4.685195    1.736209    1.350489
     11          1           0       -6.931505    0.626991    1.288753
     12          7           0       -2.491266    0.953064    0.053801
     13          8           0       -2.379747    1.960372    0.749165
     14          8           0       -1.589237    0.448998   -0.611705
     15          6           0        6.515392    0.252570    0.131806
     16          6           0        5.721901    0.994074   -0.749707
     17          6           0        4.346398    0.759247   -0.835703
     18          6           0        3.794984   -0.229143   -0.021876
     19          6           0        4.559039   -0.984599    0.866266
     20          6           0        5.932457   -0.732663    0.935563
     21          1           0        7.583105    0.441634    0.192124
     22          1           0        6.171899    1.759846   -1.375119
     23          1           0        3.708705    1.318579   -1.509434
     24          1           0        4.081827   -1.741351    1.477014
     25          1           0        6.546239   -1.310067    1.621070
     26          7           0        2.339904   -0.486800   -0.104076
     27          8           0        1.878280   -1.363151    0.623624
     28          8           0        1.688589    0.192479   -0.894649
 ---------------------------------------------------------------------

 SCF Done:  E(RHF) =  -868.334852533     A.U. after   16 cycles
 E2 =    -0.2600356528D+01 EUMP2 =    -0.87093520906090D+03

 The electronic state is 1-A.
 Alpha  occ. eigenvalues --  -20.59651 -20.59550 -20.59492 -20.59355 -15.84671
 Alpha  occ. eigenvalues --  -15.84478 -11.30397 -11.30229 -11.27028 -11.26991
 Alpha  occ. eigenvalues --  -11.26877 -11.26832 -11.26814 -11.26688 -11.26122
 Alpha  occ. eigenvalues --  -11.26100 -11.25977 -11.25943  -1.58669  -1.58505
 Alpha  occ. eigenvalues --   -1.38218  -1.38043  -1.18606  -1.18447  -1.07935
 Alpha  occ. eigenvalues --   -1.07776  -1.04064  -1.03907  -0.94712  -0.94533
 Alpha  occ. eigenvalues --   -0.85446  -0.85288  -0.81547  -0.81358  -0.76527
 Alpha  occ. eigenvalues --   -0.76350  -0.70963  -0.70572  -0.70021  -0.69852
 Alpha  occ. eigenvalues --   -0.69718  -0.69559  -0.64253  -0.64099  -0.64062
 Alpha  occ. eigenvalues --   -0.63920  -0.61409  -0.61248  -0.54561  -0.54412
 Alpha  occ. eigenvalues --   -0.52375  -0.52219  -0.52164  -0.52007  -0.47838
 Alpha  occ. eigenvalues --   -0.47640  -0.47466  -0.47183  -0.43546  -0.43356
 Alpha  occ. eigenvalues --   -0.36611  -0.36458  -0.35685  -0.35528
 Alpha virt. eigenvalues --    0.06018   0.06196   0.11964   0.12120   0.17443
 Alpha virt. eigenvalues --    0.17611   0.22042   0.22190   0.27926   0.28074
 Alpha virt. eigenvalues --    0.28969   0.29131   0.31562   0.31707   0.33236

 Mulliken charges:
               1
     1  C   -0.172164
     2  C   -0.218816
     3  C   -0.170805
     4  C    0.159184
     5  C   -0.171845
     6  C   -0.218730
     7  H    0.222164
     8  H    0.221083
     9  H    0.279363
    10  H    0.273639
    11  H    0.220067
    12  N    0.486508
    13  O   -0.468641
    14  O   -0.441403
    15  C   -0.172063
    16  C   -0.218590
    17  C   -0.171116
    18  C    0.159462
    19  C   -0.171693
    20  C   -0.218559
    21  H    0.222787
    22  H    0.221442
    23  H    0.277135
    24  H    0.273936
    25  H    0.220642
    26  N    0.486791
    27  O   -0.465418
    28  O   -0.444361
 Sum of Mulliken charges =  -0.00000

 Dipole moment (field-independent basis, Debye):
    X=              0.5370    Y=             -1.3861    Z=             -0.0323  Tot=              1.4869
 Quadrupole moment (field-independent basis, Debye-Ang):
   XX=            -34.3188   YY=           -102.8803   ZZ=           -101.5268
   XY=              8.4397   XZ=              0.5292   YZ=             -0.6094

 Normal termination of Gaussian 16 at Thu May  6 11:19:34 2021.
