 Gaussian 16, Revision A.03,
 Gaussian 16:  EM64L-G16RevA.03 25-Dec-2016

 -------------
 #p 6-31g* mp2
 -------------

 ------------------------------------------------------
 Input file generated by CHIRIPA (05-May-2021 14:53:13)
 ------------------------------------------------------
 Symbolic Z-matrix:
 Charge =  0 Multiplicity = 1

                         Standard orientation:
 ---------------------------------------------------------------------
 Center     Atomic      Atomic             Coordinates (Angstroms)
 Number     Number       Type             X           Y           Z
 ---------------------------------------------------------------------
      1          6           0        4.605038   -0.257838   -0.341468
      2          6           0        5.725742   -0.137152    0.691703
      3          6           0        7.080550   -0.594662    0.150432
      4          1           0        4.534237   -1.301884   -0.675983
      5          1           0        4.866878    0.337154   -1.227368
      6          1           0        5.461229   -0.731084    1.575950
      7          1           0        5.793757    0.906692    1.023939
      8          1           0        7.370409    0.004570   -0.718765
      9          1           0        7.035993   -1.642511   -0.163618
     10          1           0        7.867248   -0.499925    0.905410
     11          6           0        3.244507    0.195767    0.184769
     12          6           0        2.123803    0.075080   -0.848401
     13          6           0        0.768995    0.532590   -0.307131
     14          1           0        2.982667   -0.399226    1.070669
     15          1           0        3.315308    1.239813    0.519285
     16          1           0        2.055788   -0.968763   -1.180637
     17          1           0        2.388316    0.669013   -1.732649
     18          1           0        0.813553    1.580440    0.006919
     19          1           0        0.479136   -0.066641    0.562067
     20          1           0       -0.017703    0.437853   -1.062109
     21          6           0       -2.453247    2.471704    0.072635
     22          6           0       -2.538162    1.776996   -1.138436
     23          6           0       -2.876962    0.420741   -1.156735
     24          6           0       -3.125490   -0.212365    0.060106
     25          6           0       -3.048950    0.452428    1.283006
     26          6           0       -2.708463    1.808372    1.277366
     27          1           0       -2.189404    3.525154    0.077552
     28          1           0       -2.340491    2.289578   -2.075575
     29          1           0       -2.949814   -0.141223   -2.079940
     30          1           0       -3.251602   -0.085621    2.201075
     31          1           0       -2.643262    2.345361    2.219405
     32          7           0       -3.485055   -1.648006    0.053405
     33          8           0       -3.699277   -2.182909    1.139049
     34          8           0       -3.545851   -2.211176   -1.037366
 ---------------------------------------------------------------------

 SCF Done:  E(RHF) =  -669.533736097     A.U. after   15 cycles
 E2 =    -0.2093493820D+01 EUMP2 =    -0.67162722991770D+03

 The electronic state is 1-A.
 Alpha  occ. eigenvalues --  -20.60772 -20.60767 -15.85825 -11.31182 -11.27760
 Alpha  occ. eigenvalues --  -11.27723 -11.27487 -11.26790 -11.26746 -11.21663
 Alpha  occ. eigenvalues --  -11.21637 -11.21472 -11.21409 -11.21118 -11.21027
 Alpha  occ. eigenvalues --   -1.59848  -1.39401  -1.19368  -1.08759  -1.08489
 Alpha  occ. eigenvalues --   -1.04784  -1.03580  -0.96033  -0.95595  -0.87056
 Alpha  occ. eigenvalues --   -0.86170  -0.82433  -0.79655  -0.78310  -0.77477
 Alpha  occ. eigenvalues --   -0.72045  -0.71171  -0.70477  -0.65124  -0.65021
 Alpha  occ. eigenvalues --   -0.64780  -0.62124  -0.60985  -0.59474  -0.57667
 Alpha  occ. eigenvalues --   -0.55330  -0.55271  -0.53737  -0.52867  -0.52472
 Alpha  occ. eigenvalues --   -0.52038  -0.49988  -0.48803  -0.48800  -0.47980
 Alpha  occ. eigenvalues --   -0.46695  -0.45847  -0.45780  -0.44809  -0.43828
 Alpha  occ. eigenvalues --   -0.37300  -0.36255
 Alpha virt. eigenvalues --    0.05029   0.11230   0.16464   0.21340   0.22805
 Alpha virt. eigenvalues --    0.24265   0.26569   0.27164   0.27391   0.27991
 Alpha virt. eigenvalues --    0.28281   0.30923   0.31295   0.31838   0.32335

 Mulliken charges:
               1
     1  C   -0.298259
     2  C   -0.299598
     3  C   -0.475735
     4  H    0.151184
     5  H    0.148585
     6  H    0.152522
     7  H    0.150729
     8  H    0.154752
     9  H    0.156057
    10  H    0.160238
    11  C   -0.298176
    12  C   -0.300509
    13  C   -0.474652
    14  H    0.150503
    15  H    0.146876
    16  H    0.154501
    17  H    0.148573
    18  H    0.147517
    19  H    0.155949
    20  H    0.162929
    21  C   -0.167730
    22  C   -0.215789
    23  C   -0.175732
    24  C    0.163961
    25  C   -0.171732
    26  C   -0.216832
    27  H    0.225355
    28  H    0.223530
    29  H    0.275415
    30  H    0.275506
    31  H    0.223520
    32  N    0.487823
    33  O   -0.460614
    34  O   -0.460666
 Sum of Mulliken charges =  -0.00000

 Dipole moment (field-independent basis, Debye):
    X=              1.1787    Y=              5.0602    Z=              0.0412  Tot=              5.1958
 Quadrupole moment (field-independent basis, Debye-Ang):
   XX=           -104.7566   YY=            -96.7146   ZZ=            -89.7606
   XY=            -15.9718   XZ=             -0.2141   YZ=              0.0126

 Normal termination of Gaussian 16 at Wed May  5 18:34:31 2021.
