 Gaussian 16, Revision A.03,
 Gaussian 16:  EM64L-G16RevA.03 25-Dec-2016

 -------------
 #p 6-31g* mp2
 -------------

 ------------------------------------------------------
 Input file generated by CHIRIPA (05-May-2021 14:55:21)
 ------------------------------------------------------
 Symbolic Z-matrix:
 Charge =  0 Multiplicity = 1

                         Standard orientation:
 ---------------------------------------------------------------------
 Center     Atomic      Atomic             Coordinates (Angstroms)
 Number     Number       Type             X           Y           Z
 ---------------------------------------------------------------------
      1          6           0        2.654366   -2.101704    1.523766
      2          6           0        1.619969   -1.163660    1.442413
      3          6           0        1.705824   -0.087273    0.554400
      4          6           0        2.845531    0.020876   -0.241001
      5          6           0        3.892799   -0.897362   -0.183037
      6          6           0        3.785485   -1.965800    0.712212
      7          1           0        2.579337   -2.934780    2.216407
      8          1           0        0.740348   -1.266684    2.071458
      9          1           0        0.919740    0.653363    0.471045
     10          1           0        4.757228   -0.768101   -0.822937
     11          1           0        4.590353   -2.692784    0.773256
     12          7           0        2.947780    1.156191   -1.184931
     13          8           0        3.962350    1.229045   -1.874843
     14          8           0        2.011418    1.951700   -1.216998
     15          6           0       -3.677364   -0.511473   -0.126602
     16          6           0       -4.866961   -0.755183   -1.055823
     17          6           0       -4.966903   -2.208770   -1.519386
     18          1           0       -2.751399   -0.797270   -0.644146
     19          1           0       -3.762998   -1.171153    0.747974
     20          1           0       -4.779834   -0.094252   -1.927714
     21          1           0       -5.790185   -0.468592   -0.536075
     22          1           0       -5.078408   -2.879876   -0.661608
     23          1           0       -4.062317   -2.503409   -2.061155
     24          1           0       -5.824179   -2.360603   -2.182624
     25          6           0       -3.564054    0.937042    0.345302
     26          6           0       -2.374457    1.180753    1.274523
     27          6           0       -2.274515    2.634339    1.738087
     28          1           0       -3.478420    1.596723   -0.529274
     29          1           0       -4.490019    1.222839    0.862847
     30          1           0       -1.451233    0.894162    0.754775
     31          1           0       -2.461585    0.519821    2.146414
     32          1           0       -3.179101    2.928978    2.279854
     33          1           0       -2.163010    3.305445    0.880308
     34          1           0       -1.417239    2.786173    2.401324
 ---------------------------------------------------------------------

 SCF Done:  E(RHF) =  -669.535659723     A.U. after   15 cycles
 E2 =    -0.2091297097D+01 EUMP2 =    -0.67162695682019D+03

 The electronic state is 1-A.
 Alpha  occ. eigenvalues --  -20.60762 -20.60757 -15.85813 -11.31160 -11.27732
 Alpha  occ. eigenvalues --  -11.27705 -11.27471 -11.26750 -11.26723 -11.22147
 Alpha  occ. eigenvalues --  -11.21786 -11.21691 -11.21632 -11.21316 -11.21240
 Alpha  occ. eigenvalues --   -1.59837  -1.39391  -1.19333  -1.08733  -1.08732
 Alpha  occ. eigenvalues --   -1.04734  -1.03819  -0.96229  -0.95571  -0.87245
 Alpha  occ. eigenvalues --   -0.86134  -0.82402  -0.79914  -0.78563  -0.77445
 Alpha  occ. eigenvalues --   -0.72033  -0.71159  -0.70454  -0.65371  -0.64984
 Alpha  occ. eigenvalues --   -0.64729  -0.62127  -0.61176  -0.59610  -0.57860
 Alpha  occ. eigenvalues --   -0.55498  -0.55235  -0.53067  -0.52936  -0.52829
 Alpha  occ. eigenvalues --   -0.52652  -0.50155  -0.48791  -0.48790  -0.48210
 Alpha  occ. eigenvalues --   -0.46935  -0.46092  -0.45999  -0.44800  -0.44067
 Alpha  occ. eigenvalues --   -0.37318  -0.36335
 Alpha virt. eigenvalues --    0.05072   0.11308   0.16566   0.19935   0.22829
 Alpha virt. eigenvalues --    0.23800   0.25502   0.26345   0.27641   0.28041
 Alpha virt. eigenvalues --    0.29215   0.30303   0.31429   0.31729   0.31926

 Mulliken charges:
               1
     1  C   -0.170795
     2  C   -0.221500
     3  C   -0.181419
     4  C    0.160504
     5  C   -0.170473
     6  C   -0.218813
     7  H    0.225546
     8  H    0.224921
     9  H    0.286404
    10  H    0.275471
    11  H    0.223364
    12  N    0.487309
    13  O   -0.460402
    14  O   -0.460651
    15  C   -0.299085
    16  C   -0.300079
    17  C   -0.476031
    18  H    0.149953
    19  H    0.146538
    20  H    0.154819
    21  H    0.152298
    22  H    0.153787
    23  H    0.155878
    24  H    0.161513
    25  C   -0.297796
    26  C   -0.306052
    27  C   -0.476016
    28  H    0.155417
    29  H    0.151163
    30  H    0.147385
    31  H    0.147803
    32  H    0.156491
    33  H    0.163364
    34  H    0.159183
 Sum of Mulliken charges =  -0.00000

 Dipole moment (field-independent basis, Debye):
    X=             -0.4802    Y=             -3.9182    Z=              3.2708  Tot=              5.1265
 Quadrupole moment (field-independent basis, Debye-Ang):
   XX=            -92.2348   YY=            -95.6828   ZZ=            -96.1806
   XY=            -13.6713   XZ=              7.7145   YZ=              0.9393

 Normal termination of Gaussian 16 at Thu May  6 12:31:21 2021.
