 Gaussian 16, Revision A.03,
 Gaussian 16:  EM64L-G16RevA.03 25-Dec-2016

 -------------
 #p 6-31g* mp2
 -------------

 ------------------------------------------------------
 Input file generated by CHIRIPA (05-May-2021 14:57:25)
 ------------------------------------------------------
 Symbolic Z-matrix:
 Charge =  0 Multiplicity = 1

                         Standard orientation:
 ---------------------------------------------------------------------
 Center     Atomic      Atomic             Coordinates (Angstroms)
 Number     Number       Type             X           Y           Z
 ---------------------------------------------------------------------
      1          6           0       -1.834067   -0.623433    1.032940
      2          6           0       -2.833269   -1.601304    1.076378
      3          6           0       -4.098504   -1.347979    0.538275
      4          6           0       -4.331084   -0.100264   -0.038271
      5          6           0       -3.356216    0.894469   -0.096826
      6          6           0       -2.098264    0.619141    0.447509
      7          1           0       -0.854031   -0.828768    1.453372
      8          1           0       -2.630925   -2.567201    1.530409
      9          1           0       -4.890283   -2.086963    0.558423
     10          1           0       -3.587789    1.847863   -0.555989
     11          1           0       -1.324182    1.380460    0.412362
     12          7           0       -5.666676    0.179566   -0.611235
     13          8           0       -5.846364    1.286791   -1.113632
     14          8           0       -6.508536   -0.713626   -0.547078
     15          6           0        5.766751   -1.650345   -0.685487
     16          6           0        4.433489   -1.986142   -0.428243
     17          6           0        3.507381   -0.998868   -0.078724
     18          6           0        3.950886    0.320085    0.004680
     19          6           0        5.272464    0.686224   -0.245650
     20          6           0        6.181252   -0.317583   -0.593531
     21          1           0        6.479447   -2.423704   -0.956366
     22          1           0        4.108759   -3.020358   -0.498897
     23          1           0        2.469229   -1.230969    0.125691
     24          1           0        5.566420    1.725866   -0.167214
     25          1           0        7.216053   -0.053878   -0.792759
     26          7           0        2.979625    1.374019    0.373834
     27          8           0        3.395470    2.528687    0.440555
     28          8           0        1.820896    1.025468    0.589465
 ---------------------------------------------------------------------

 SCF Done:  E(RHF) =  -868.340157575     A.U. after   16 cycles
 E2 =    -0.2598611698D+01 EUMP2 =    -0.87093876927318D+03

 The electronic state is 1-A.
 Alpha  occ. eigenvalues --  -20.61909 -20.61848 -20.60196 -20.60185 -15.86916
 Alpha  occ. eigenvalues --  -15.85238 -11.32019 -11.30456 -11.28599 -11.28520
 Alpha  occ. eigenvalues --  -11.28224 -11.27517 -11.27476 -11.27044 -11.26909
 Alpha  occ. eigenvalues --  -11.26613 -11.26052 -11.25733  -1.60932  -1.59272
 Alpha  occ. eigenvalues --   -1.40499  -1.38829  -1.20159  -1.18587  -1.09597
 Alpha  occ. eigenvalues --   -1.07994  -1.05527  -1.03953  -0.96481  -0.94863
 Alpha  occ. eigenvalues --   -0.86936  -0.85338  -0.83330  -0.81696  -0.78411
 Alpha  occ. eigenvalues --   -0.76775  -0.73161  -0.72229  -0.71458  -0.71265
 Alpha  occ. eigenvalues --   -0.70593  -0.69658  -0.65820  -0.65524  -0.64220
 Alpha  occ. eigenvalues --   -0.63896  -0.62886  -0.61281  -0.56023  -0.54412
 Alpha  occ. eigenvalues --   -0.53862  -0.53616  -0.52316  -0.52004  -0.49915
 Alpha  occ. eigenvalues --   -0.49853  -0.48225  -0.48198  -0.45957  -0.44268
 Alpha  occ. eigenvalues --   -0.38111  -0.37116  -0.36556  -0.35564
 Alpha virt. eigenvalues --    0.04115   0.05722   0.10544   0.12092   0.15667
 Alpha virt. eigenvalues --    0.17260   0.20299   0.22198   0.25995   0.27044
 Alpha virt. eigenvalues --    0.28319   0.28935   0.30632   0.31277   0.33271

 Mulliken charges:
               1
     1  C   -0.175018
     2  C   -0.219388
     3  C   -0.172984
     4  C    0.158233
     5  C   -0.173226
     6  C   -0.223581
     7  H    0.229952
     8  H    0.218039
     9  H    0.272173
    10  H    0.274756
    11  H    0.245075
    12  N    0.488088
    13  O   -0.461269
    14  O   -0.463293
    15  C   -0.169690
    16  C   -0.218129
    17  C   -0.169845
    18  C    0.158508
    19  C   -0.169979
    20  C   -0.218285
    21  H    0.228485
    22  H    0.224964
    23  H    0.269877
    24  H    0.277331
    25  H    0.226316
    26  N    0.492738
    27  O   -0.454106
    28  O   -0.475742
 Sum of Mulliken charges =  -0.00000

 Dipole moment (field-independent basis, Debye):
    X=              8.7453    Y=             -4.5405    Z=              0.6786  Tot=              9.8771
 Quadrupole moment (field-independent basis, Debye-Ang):
   XX=           -116.0089   YY=           -100.6734   ZZ=           -106.3376
   XY=             -5.9203   XZ=            -15.1292   YZ=             -2.0654

 Normal termination of Gaussian 16 at Thu May  6 01:55:53 2021.
