 Gaussian 16, Revision A.03,
 Gaussian 16:  EM64L-G16RevA.03 25-Dec-2016

 -------------
 #p 6-31g* mp2
 -------------

 ------------------------------------------------------
 Input file generated by CHIRIPA (05-May-2021 14:57:23)
 ------------------------------------------------------
 Symbolic Z-matrix:
 Charge =  0 Multiplicity = 1

                         Standard orientation:
 ---------------------------------------------------------------------
 Center     Atomic      Atomic             Coordinates (Angstroms)
 Number     Number       Type             X           Y           Z
 ---------------------------------------------------------------------
      1          6           0        3.414067    2.530625    0.006972
      2          6           0        4.624430    1.963736    0.419501
      3          6           0        4.822535    0.581716    0.346541
      4          6           0        3.784265   -0.207213   -0.146285
      5          6           0        2.566984    0.327757   -0.565002
      6          6           0        2.391011    1.712269   -0.483098
      7          1           0        3.268771    3.605179    0.067123
      8          1           0        5.420704    2.596838    0.800517
      9          1           0        5.749527    0.116523    0.659107
     10          1           0        1.791709   -0.329099   -0.940378
     11          1           0        1.449976    2.149763   -0.804186
     12          7           0        3.982274   -1.671615   -0.228259
     13          8           0        3.051946   -2.344924   -0.666187
     14          8           0        5.064053   -2.118375    0.146972
     15          6           0       -6.156516   -0.034058   -0.630407
     16          6           0       -5.130490    0.209618   -1.549327
     17          6           0       -3.794422    0.211988   -1.137662
     18          6           0       -3.519134   -0.034146    0.206556
     19          6           0       -4.519169   -0.280238    1.146056
     20          6           0       -5.848125   -0.277779    0.711984
     21          1           0       -7.191643   -0.034024   -0.958902
     22          1           0       -5.367033    0.399200   -2.592472
     23          1           0       -2.980499    0.397713   -1.827919
     24          1           0       -4.252213   -0.465998    2.179326
     25          1           0       -6.642895   -0.467328    1.427845
     26          7           0       -2.108465   -0.034192    0.654228
     27          8           0       -1.892241   -0.253760    1.844049
     28          8           0       -1.245717    0.185340   -0.193185
 ---------------------------------------------------------------------

 SCF Done:  E(RHF) =  -868.339670543     A.U. after   16 cycles
 E2 =    -0.2598659185D+01 EUMP2 =    -0.87093832972771D+03

 The electronic state is 1-A.
 Alpha  occ. eigenvalues --  -20.61404 -20.61344 -20.59728 -20.59707 -15.86414
 Alpha  occ. eigenvalues --  -15.84766 -11.31588 -11.29957 -11.28151 -11.28115
 Alpha  occ. eigenvalues --  -11.27838 -11.27112 -11.27092 -11.26616 -11.26366
 Alpha  occ. eigenvalues --  -11.26327 -11.25635 -11.25413  -1.60426  -1.58798
 Alpha  occ. eigenvalues --   -1.39992  -1.38354  -1.19740  -1.18139  -1.09168
 Alpha  occ. eigenvalues --   -1.07592  -1.05117  -1.03493  -0.96038  -0.94440
 Alpha  occ. eigenvalues --   -0.86524  -0.84926  -0.82885  -0.81259  -0.77949
 Alpha  occ. eigenvalues --   -0.76309  -0.72654  -0.71727  -0.70996  -0.70849
 Alpha  occ. eigenvalues --   -0.70114  -0.69279  -0.65400  -0.65118  -0.63795
 Alpha  occ. eigenvalues --   -0.63512  -0.62468  -0.60821  -0.55622  -0.54086
 Alpha  occ. eigenvalues --   -0.53453  -0.53208  -0.51871  -0.51587  -0.49402
 Alpha  occ. eigenvalues --   -0.49359  -0.47754  -0.47735  -0.45435  -0.43796
 Alpha  occ. eigenvalues --   -0.37706  -0.36710  -0.36172  -0.35076
 Alpha virt. eigenvalues --    0.04569   0.06194   0.10947   0.12551   0.16093
 Alpha virt. eigenvalues --    0.17695   0.21079   0.22595   0.27018   0.27815
 Alpha virt. eigenvalues --    0.28616   0.29448   0.30708   0.32069   0.32252

 Mulliken charges:
               1
     1  C   -0.171772
     2  C   -0.219527
     3  C   -0.172264
     4  C    0.156579
     5  C   -0.166165
     6  C   -0.217744
     7  H    0.220698
     8  H    0.218406
     9  H    0.271524
    10  H    0.286393
    11  H    0.228148
    12  N    0.488295
    13  O   -0.459765
    14  O   -0.465400
    15  C   -0.170070
    16  C   -0.218372
    17  C   -0.170407
    18  C    0.158256
    19  C   -0.170134
    20  C   -0.218475
    21  H    0.227127
    22  H    0.224480
    23  H    0.273359
    24  H    0.276887
    25  H    0.225058
    26  N    0.491792
    27  O   -0.454096
    28  O   -0.472809
 Sum of Mulliken charges =  -0.00000

 Dipole moment (field-independent basis, Debye):
    X=             -6.2348    Y=              5.0852    Z=             -1.2545  Tot=              8.1429
 Quadrupole moment (field-independent basis, Debye-Ang):
   XX=            -71.9259   YY=           -108.6355   ZZ=           -101.1664
   XY=             20.7486   XZ=              5.9997   YZ=             -1.7088

 Normal termination of Gaussian 16 at Fri May  7 04:53:20 2021.
