 Gaussian 16, Revision A.03,
 Gaussian 16:  EM64L-G16RevA.03 25-Dec-2016

 -------------
 #p 6-31g* mp2
 -------------

 ------------------------------------------------------
 Input file generated by CHIRIPA (05-May-2021 14:57:23)
 ------------------------------------------------------
 Symbolic Z-matrix:
 Charge =  0 Multiplicity = 1

                         Standard orientation:
 ---------------------------------------------------------------------
 Center     Atomic      Atomic             Coordinates (Angstroms)
 Number     Number       Type             X           Y           Z
 ---------------------------------------------------------------------
      1          6           0        2.752166   -2.204970   -0.872799
      2          6           0        1.739160   -1.291450   -1.182348
      3          6           0        1.853018    0.049859   -0.804889
      4          6           0        2.998611    0.445056   -0.115884
      5          6           0        4.025034   -0.441184    0.207109
      6          6           0        3.889864   -1.777675   -0.180279
      7          1           0        2.655441   -3.245059   -1.169875
      8          1           0        0.854492   -1.620469   -1.720078
      9          1           0        1.083906    0.778185   -1.031664
     10          1           0        4.895146   -0.083450    0.744091
     11          1           0        4.678163   -2.484914    0.061469
     12          7           0        3.130428    1.862489    0.288971
     13          8           0        4.149632    2.185539    0.895187
     14          8           0        2.212045    2.623583   -0.007585
     15          6           0       -1.628617   -1.962831    1.399468
     16          6           0       -2.312844   -0.979464    2.121509
     17          6           0       -3.062974   -0.004118    1.457766
     18          6           0       -3.107232   -0.042128    0.064968
     19          6           0       -2.436496   -1.008905   -0.682525
     20          6           0       -1.692514   -1.974393    0.002219
     21          1           0       -1.048286   -2.716674    1.923236
     22          1           0       -2.265017   -0.968035    3.206694
     23          1           0       -3.602366    0.768620    1.991947
     24          1           0       -2.503084   -0.994482   -1.763624
     25          1           0       -1.162149   -2.736888   -0.561128
     26          7           0       -3.898105    0.985209   -0.648823
     27          8           0       -3.921131    0.929926   -1.876443
     28          8           0       -4.479992    1.826265    0.032843
 ---------------------------------------------------------------------

 SCF Done:  E(RHF) =  -868.336268458     A.U. after   16 cycles
 E2 =    -0.2601259643D+01 EUMP2 =    -0.87093752810144D+03

 The electronic state is 1-A.
 Alpha  occ. eigenvalues --  -20.61060 -20.61039 -20.61022 -20.61008 -15.86114
 Alpha  occ. eigenvalues --  -15.86076 -11.31638 -11.31570 -11.28298 -11.28157
 Alpha  occ. eigenvalues --  -11.28156 -11.28139 -11.27988 -11.27977 -11.27379
 Alpha  occ. eigenvalues --  -11.27253 -11.27215 -11.27190  -1.60124  -1.60092
 Alpha  occ. eigenvalues --   -1.39674  -1.39640  -1.19832  -1.19767  -1.09194
 Alpha  occ. eigenvalues --   -1.09149  -1.05305  -1.05156  -0.95991  -0.95960
 Alpha  occ. eigenvalues --   -0.86708  -0.86544  -0.82877  -0.82749  -0.77919
 Alpha  occ. eigenvalues --   -0.77748  -0.72328  -0.72289  -0.71449  -0.71420
 Alpha  occ. eigenvalues --   -0.70915  -0.70892  -0.65521  -0.65474  -0.65420
 Alpha  occ. eigenvalues --   -0.65037  -0.62743  -0.62393  -0.55763  -0.55702
 Alpha  occ. eigenvalues --   -0.53760  -0.53467  -0.53390  -0.53114  -0.49103
 Alpha  occ. eigenvalues --   -0.49074  -0.49060  -0.49035  -0.45046  -0.45016
 Alpha  occ. eigenvalues --   -0.37950  -0.37712  -0.37118  -0.36434
 Alpha virt. eigenvalues --    0.04648   0.04757   0.10364   0.11209   0.15937
 Alpha virt. eigenvalues --    0.16305   0.19369   0.21843   0.25205   0.27388
 Alpha virt. eigenvalues --    0.28060   0.28495   0.30093   0.31175   0.32091

 Mulliken charges:
               1
     1  C   -0.174600
     2  C   -0.216479
     3  C   -0.168773
     4  C    0.157996
     5  C   -0.171033
     6  C   -0.218789
     7  H    0.222869
     8  H    0.216412
     9  H    0.279578
    10  H    0.276698
    11  H    0.223897
    12  N    0.487717
    13  O   -0.460185
    14  O   -0.457127
    15  C   -0.168932
    16  C   -0.217640
    17  C   -0.168244
    18  C    0.160037
    19  C   -0.177419
    20  C   -0.217324
    21  H    0.226269
    22  H    0.226645
    23  H    0.279111
    24  H    0.273412
    25  H    0.215029
    26  N    0.488356
    27  O   -0.461009
    28  O   -0.456473
 Sum of Mulliken charges =  -0.00000

 Dipole moment (field-independent basis, Debye):
    X=              2.2273    Y=             -8.3898    Z=              1.2991  Tot=              8.7771
 Quadrupole moment (field-independent basis, Debye-Ang):
   XX=           -121.0098   YY=           -109.3592   ZZ=           -100.1446
   XY=             -5.8394   XZ=            -11.4214   YZ=              0.9435

 Normal termination of Gaussian 16 at Thu May  6 14:36:22 2021.
