 Gaussian 16, Revision A.03,
 Gaussian 16:  EM64L-G16RevA.03 25-Dec-2016

 -------------
 #p 6-31g* mp2
 -------------

 ------------------------------------------------------
 Input file generated by CHIRIPA (05-May-2021 14:55:23)
 ------------------------------------------------------
 Symbolic Z-matrix:
 Charge =  0 Multiplicity = 1

                         Standard orientation:
 ---------------------------------------------------------------------
 Center     Atomic      Atomic             Coordinates (Angstroms)
 Number     Number       Type             X           Y           Z
 ---------------------------------------------------------------------
      1          6           0       -4.889924   -1.328264   -0.976733
      2          6           0       -3.532065   -1.658933   -1.035023
      3          6           0       -2.563080   -0.765479   -0.568808
      4          6           0       -2.989256    0.455446   -0.048224
      5          6           0       -4.334511    0.813846    0.023373
      6          6           0       -5.286115   -0.095104   -0.448652
      7          1           0       -5.635903   -2.028340   -1.341157
      8          1           0       -3.221469   -2.615909   -1.444624
      9          1           0       -1.505153   -0.995930   -0.602002
     10          1           0       -4.613487    1.775315    0.437099
     11          1           0       -6.339942    0.164375   -0.402133
     12          7           0       -1.972635    1.409508    0.448412
     13          8           0       -2.373966    2.478806    0.902475
     14          8           0       -0.793727    1.069939    0.374209
     15          6           0        4.700014    0.002989    0.138768
     16          6           0        5.218306    0.216144   -1.283878
     17          6           0        6.538036    0.987235   -1.322910
     18          1           0        4.570287    0.979513    0.625099
     19          1           0        5.459042   -0.537741    0.720904
     20          1           0        4.457955    0.755097   -1.863546
     21          1           0        5.346631   -0.760992   -1.766943
     22          1           0        7.314473    0.450304   -0.768426
     23          1           0        6.420748    1.975006   -0.865577
     24          1           0        6.890352    1.128339   -2.349469
     25          6           0        3.381413   -0.766392    0.194226
     26          6           0        2.863120   -0.979548    1.616872
     27          6           0        1.543389   -1.750639    1.655905
     28          1           0        2.622384   -0.225662   -0.387909
     29          1           0        3.511139   -1.742916   -0.292104
     30          1           0        2.734796   -0.002411    2.099938
     31          1           0        3.623471   -1.518499    2.196540
     32          1           0        1.660678   -2.738409    1.198571
     33          1           0        0.766954   -1.213706    1.101421
     34          1           0        1.191075   -1.891742    2.682464
 ---------------------------------------------------------------------

 SCF Done:  E(RHF) =  -669.536285570     A.U. after   15 cycles
 E2 =    -0.2091254761D+01 EUMP2 =    -0.67162754033040D+03

 The electronic state is 1-A.
 Alpha  occ. eigenvalues --  -20.60954 -20.60943 -15.85984 -11.31276 -11.27839
 Alpha  occ. eigenvalues --  -11.27833 -11.27573 -11.26843 -11.26831 -11.21072
 Alpha  occ. eigenvalues --  -11.20821 -11.20746 -11.20632 -11.20612 -11.20330
 Alpha  occ. eigenvalues --   -1.60011  -1.39569  -1.19444  -1.08854  -1.07758
 Alpha  occ. eigenvalues --   -1.04837  -1.02882  -0.95704  -0.95346  -0.86377
 Alpha  occ. eigenvalues --   -0.86239  -0.82537  -0.78968  -0.77633  -0.77535
 Alpha  occ. eigenvalues --   -0.72215  -0.71321  -0.70556  -0.65105  -0.64843
 Alpha  occ. eigenvalues --   -0.64364  -0.62191  -0.60252  -0.58726  -0.56967
 Alpha  occ. eigenvalues --   -0.55345  -0.54618  -0.53169  -0.52933  -0.52063
 Alpha  occ. eigenvalues --   -0.51792  -0.49341  -0.48955  -0.48912  -0.47286
 Alpha  occ. eigenvalues --   -0.45978  -0.45138  -0.45042  -0.44901  -0.43142
 Alpha  occ. eigenvalues --   -0.37423  -0.36435
 Alpha virt. eigenvalues --    0.04912   0.11204   0.16410   0.20963   0.23477
 Alpha virt. eigenvalues --    0.24495   0.26207   0.27440   0.27753   0.28322
 Alpha virt. eigenvalues --    0.29160   0.30463   0.31563   0.32307   0.32506

 Mulliken charges:
               1
     1  C   -0.170385
     2  C   -0.219491
     3  C   -0.171184
     4  C    0.157354
     5  C   -0.170665
     6  C   -0.218684
     7  H    0.225978
     8  H    0.224329
     9  H    0.279068
    10  H    0.275689
    11  H    0.223738
    12  N    0.490836
    13  O   -0.458862
    14  O   -0.464517
    15  C   -0.298262
    16  C   -0.299501
    17  C   -0.475456
    18  H    0.152900
    19  H    0.146919
    20  H    0.153397
    21  H    0.149106
    22  H    0.153833
    23  H    0.156199
    24  H    0.158376
    25  C   -0.300637
    26  C   -0.296609
    27  C   -0.487247
    28  H    0.157946
    29  H    0.143570
    30  H    0.159446
    31  H    0.147279
    32  H    0.145817
    33  H    0.171896
    34  H    0.157825
 Sum of Mulliken charges =  -0.00000

 Dipole moment (field-independent basis, Debye):
    X=             -3.7955    Y=             -3.1921    Z=             -1.7510  Tot=              5.2594
 Quadrupole moment (field-independent basis, Debye-Ang):
   XX=            -72.1246   YY=            -96.0247   ZZ=            -95.2871
   XY=              5.3830   XZ=              4.8237   YZ=              0.6629

 Normal termination of Gaussian 16 at Thu May  6 09:25:01 2021.
