 Gaussian 16, Revision A.03,
 Gaussian 16:  EM64L-G16RevA.03 25-Dec-2016

 -------------
 #p 6-31g* mp2
 -------------

 ------------------------------------------------------
 Input file generated by CHIRIPA (05-May-2021 14:57:27)
 ------------------------------------------------------
 Symbolic Z-matrix:
 Charge =  0 Multiplicity = 1

                         Standard orientation:
 ---------------------------------------------------------------------
 Center     Atomic      Atomic             Coordinates (Angstroms)
 Number     Number       Type             X           Y           Z
 ---------------------------------------------------------------------
      1          6           0        2.683827   -2.480974   -0.043303
      2          6           0        2.448543   -1.790687    1.150291
      3          6           0        2.590418   -0.400993    1.206612
      4          6           0        2.970671    0.269695    0.045201
      5          6           0        3.212219   -0.389720   -1.159006
      6          6           0        3.064243   -1.779524   -1.192117
      7          1           0        2.571246   -3.560564   -0.078040
      8          1           0        2.152993   -2.332835    2.044030
      9          1           0        2.414559    0.158406    2.117416
     10          1           0        3.505634    0.178187   -2.033539
     11          1           0        3.247627   -2.312990   -2.120465
     12          7           0        3.124096    1.740959    0.092540
     13          8           0        3.460116    2.308647   -0.944503
     14          8           0        2.905427    2.298590    1.165792
     15          6           0       -5.393227    0.581765   -0.093373
     16          6           0       -4.420604    1.584131   -0.169435
     17          6           0       -3.061382    1.258313   -0.139328
     18          6           0       -2.708736   -0.086087   -0.031988
     19          6           0       -3.654193   -1.107542    0.045669
     20          6           0       -5.007597   -0.758510    0.013747
     21          1           0       -6.446844    0.843885   -0.117466
     22          1           0       -4.717170    2.625843   -0.252682
     23          1           0       -2.287592    2.014218   -0.196557
     24          1           0       -3.327797   -2.137151    0.128056
     25          1           0       -5.760768   -1.539067    0.072991
     26          7           0       -1.272867   -0.443303    0.000845
     27          8           0       -0.988159   -1.635167    0.095917
     28          8           0       -0.459331    0.475338   -0.069113
 ---------------------------------------------------------------------

 SCF Done:  E(RHF) =  -868.338285944     A.U. after   16 cycles
 E2 =    -0.2601485525D+01 EUMP2 =    -0.87093977146882D+03

 The electronic state is 1-A.
 Alpha  occ. eigenvalues --  -20.61128 -20.61087 -20.59302 -20.59288 -15.86141
 Alpha  occ. eigenvalues --  -15.84338 -11.31376 -11.29335 -11.27964 -11.27882
 Alpha  occ. eigenvalues --  -11.27655 -11.26940 -11.26883 -11.26003 -11.25912
 Alpha  occ. eigenvalues --  -11.25719 -11.25012 -11.24915  -1.60171  -1.58364
 Alpha  occ. eigenvalues --   -1.39731  -1.37937  -1.19538  -1.17512  -1.08960
 Alpha  occ. eigenvalues --   -1.06998  -1.04918  -1.02945  -0.95817  -0.93903
 Alpha  occ. eigenvalues --   -0.86323  -0.84381  -0.82655  -0.80792  -0.77711
 Alpha  occ. eigenvalues --   -0.75856  -0.72394  -0.71489  -0.70644  -0.70604
 Alpha  occ. eigenvalues --   -0.69626  -0.68762  -0.65193  -0.64920  -0.63249
 Alpha  occ. eigenvalues --   -0.63048  -0.62262  -0.60369  -0.55439  -0.53537
 Alpha  occ. eigenvalues --   -0.53260  -0.53007  -0.51479  -0.51126  -0.49129
 Alpha  occ. eigenvalues --   -0.48777  -0.47356  -0.47319  -0.45166  -0.43432
 Alpha  occ. eigenvalues --   -0.37521  -0.36516  -0.35380  -0.34446
 Alpha virt. eigenvalues --    0.04794   0.06738   0.11139   0.13186   0.16323
 Alpha virt. eigenvalues --    0.18297   0.21302   0.22942   0.27222   0.28195
 Alpha virt. eigenvalues --    0.28787   0.29822   0.30865   0.32373   0.32457

 Mulliken charges:
               1
     1  C   -0.161196
     2  C   -0.206262
     3  C   -0.160289
     4  C    0.174527
     5  C   -0.171216
     6  C   -0.218913
     7  H    0.218498
     8  H    0.215857
     9  H    0.268033
    10  H    0.268327
    11  H    0.215046
    12  N    0.488644
    13  O   -0.468118
    14  O   -0.465901
    15  C   -0.170376
    16  C   -0.218731
    17  C   -0.170725
    18  C    0.157522
    19  C   -0.171337
    20  C   -0.218691
    21  H    0.226423
    22  H    0.225748
    23  H    0.280361
    24  H    0.273143
    25  H    0.223199
    26  N    0.488956
    27  O   -0.464466
    28  O   -0.458065
 Sum of Mulliken charges =  -0.00000

 Dipole moment (field-independent basis, Debye):
    X=             -5.9981    Y=             -3.8769    Z=             -0.2282  Tot=              7.1456
 Quadrupole moment (field-independent basis, Debye-Ang):
   XX=            -82.4198   YY=           -104.2776   ZZ=           -101.4484
   XY=            -17.7020   XZ=             -1.3184   YZ=             -0.8613

 Normal termination of Gaussian 16 at Thu May  6 13:12:14 2021.
