 Gaussian 16, Revision A.03,
 Gaussian 16:  EM64L-G16RevA.03 25-Dec-2016

 -------------
 #p 6-31g* mp2
 -------------

 ------------------------------------------------------
 Input file generated by CHIRIPA (05-May-2021 14:55:20)
 ------------------------------------------------------
 Symbolic Z-matrix:
 Charge =  0 Multiplicity = 1

                         Standard orientation:
 ---------------------------------------------------------------------
 Center     Atomic      Atomic             Coordinates (Angstroms)
 Number     Number       Type             X           Y           Z
 ---------------------------------------------------------------------
      1          6           0       -2.352114    2.444076    0.288505
      2          6           0       -2.329208    1.634502    1.428937
      3          6           0       -2.680749    0.283793    1.347990
      4          6           0       -3.051825   -0.226696    0.105012
      5          6           0       -3.084551    0.554283   -1.049237
      6          6           0       -2.729048    1.902338   -0.944768
      7          1           0       -2.077490    3.492309    0.360522
      8          1           0       -2.036890    2.052517    2.388030
      9          1           0       -2.671755   -0.365558    2.214985
     10          1           0       -3.380307    0.109071   -1.991432
     11          1           0       -2.747753    2.528695   -1.832108
     12          7           0       -3.426082   -1.655226    0.006867
     13          8           0       -3.749320   -2.080895   -1.099913
     14          8           0       -3.389101   -2.322190    1.038578
     15          6           0        4.534450    0.222135    0.015310
     16          6           0        5.560640   -0.911344    0.027294
     17          6           0        6.970457   -0.428805    0.369881
     18          1           0        4.848757    0.985102   -0.709974
     19          1           0        4.526709    0.710792    0.999459
     20          1           0        5.565456   -1.398607   -0.956153
     21          1           0        5.243755   -1.671793    0.752495
     22          1           0        6.987628    0.039084    1.359521
     23          1           0        7.311156    0.313823   -0.358836
     24          1           0        7.687999   -1.255234    0.372846
     25          6           0        3.120315   -0.244518   -0.325551
     26          6           0        2.094124    0.888962   -0.337534
     27          6           0        0.684307    0.406423   -0.680122
     28          1           0        3.128055   -0.733175   -1.309700
     29          1           0        2.806008   -1.007484    0.399734
     30          1           0        2.411010    1.649410   -1.062736
     31          1           0        2.089309    1.376224    0.645912
     32          1           0        0.343609   -0.336206    0.048595
     33          1           0        0.667137   -0.061467   -1.669761
     34          1           0       -0.033235    1.232852   -0.683086
 ---------------------------------------------------------------------

 SCF Done:  E(RHF) =  -669.533604291     A.U. after   15 cycles
 E2 =    -0.2094047583D+01 EUMP2 =    -0.67162765187341D+03

 The electronic state is 1-A.
 Alpha  occ. eigenvalues --  -20.60803 -20.60797 -15.85855 -11.31251 -11.27814
 Alpha  occ. eigenvalues --  -11.27798 -11.27524 -11.26826 -11.26796 -11.21686
 Alpha  occ. eigenvalues --  -11.21630 -11.21454 -11.21382 -11.21116 -11.20870
 Alpha  occ. eigenvalues --   -1.59876  -1.39429  -1.19427  -1.08823  -1.08471
 Alpha  occ. eigenvalues --   -1.04824  -1.03557  -0.95995  -0.95645  -0.87019
 Alpha  occ. eigenvalues --   -0.86223  -0.82471  -0.79638  -0.78293  -0.77514
 Alpha  occ. eigenvalues --   -0.72074  -0.71196  -0.70528  -0.65110  -0.65071
 Alpha  occ. eigenvalues --   -0.64826  -0.62167  -0.60969  -0.59479  -0.57664
 Alpha  occ. eigenvalues --   -0.55326  -0.55319  -0.53838  -0.52914  -0.52439
 Alpha  occ. eigenvalues --   -0.51877  -0.49913  -0.48835  -0.48827  -0.47957
 Alpha  occ. eigenvalues --   -0.46673  -0.45830  -0.45766  -0.44828  -0.43780
 Alpha  occ. eigenvalues --   -0.37322  -0.36382
 Alpha virt. eigenvalues --    0.05001   0.11151   0.16480   0.21350   0.22824
 Alpha virt. eigenvalues --    0.24357   0.26573   0.27252   0.27410   0.28011
 Alpha virt. eigenvalues --    0.28269   0.30902   0.31323   0.31810   0.32430

 Mulliken charges:
               1
     1  C   -0.175045
     2  C   -0.213279
     3  C   -0.171645
     4  C    0.162463
     5  C   -0.167013
     6  C   -0.219696
     7  H    0.226108
     8  H    0.223741
     9  H    0.275694
    10  H    0.275976
    11  H    0.224007
    12  N    0.487668
    13  O   -0.459990
    14  O   -0.460532
    15  C   -0.297966
    16  C   -0.299759
    17  C   -0.475662
    18  H    0.148615
    19  H    0.147994
    20  H    0.152639
    21  H    0.152823
    22  H    0.154576
    23  H    0.154693
    24  H    0.160822
    25  C   -0.298368
    26  C   -0.298949
    27  C   -0.481750
    28  H    0.150690
    29  H    0.151048
    30  H    0.148687
    31  H    0.147125
    32  H    0.155180
    33  H    0.153119
    34  H    0.165987
 Sum of Mulliken charges =  -0.00000

 Dipole moment (field-independent basis, Debye):
    X=              1.1665    Y=              5.0177    Z=              0.3520  Tot=              5.1635
 Quadrupole moment (field-independent basis, Debye-Ang):
   XX=           -104.6954   YY=            -97.6636   ZZ=            -88.9496
   XY=            -16.2756   XZ=             -0.3759   YZ=             -0.3668

 Normal termination of Gaussian 16 at Thu May  6 19:06:03 2021.
