 Gaussian 16, Revision A.03,
 Gaussian 16:  EM64L-G16RevA.03 25-Dec-2016

 -------------
 #p 6-31g* mp2
 -------------

 ------------------------------------------------------
 Input file generated by CHIRIPA (05-May-2021 14:53:15)
 ------------------------------------------------------
 Symbolic Z-matrix:
 Charge =  0 Multiplicity = 1

                         Standard orientation:
 ---------------------------------------------------------------------
 Center     Atomic      Atomic             Coordinates (Angstroms)
 Number     Number       Type             X           Y           Z
 ---------------------------------------------------------------------
      1          6           0        3.621188    0.169715    0.409996
      2          6           0        4.360047   -0.987767   -0.262542
      3          6           0        5.146905   -1.843480    0.730637
      4          1           0        4.346721    0.798699    0.943779
      5          1           0        2.937752   -0.233105    1.170291
      6          1           0        5.040873   -0.582972   -1.022300
      7          1           0        3.632693   -1.613962   -0.794945
      8          1           0        4.477817   -2.274622    1.482328
      9          1           0        5.893997   -1.237774    1.253680
     10          1           0        5.667326   -2.665020    0.228547
     11          6           0        2.829977    1.034301   -0.569904
     12          6           0        2.091118    2.191783    0.102634
     13          6           0        1.304260    3.047496   -0.890545
     14          1           0        3.513413    1.437121   -1.330198
     15          1           0        2.104444    0.405316   -1.103687
     16          1           0        2.818472    2.817978    0.635037
     17          1           0        1.410292    1.786988    0.862393
     18          1           0        0.557168    2.441790   -1.413588
     19          1           0        1.973348    3.478638   -1.642236
     20          1           0        0.783839    3.869036   -0.388454
     21          6           0       -4.875935    0.384452    0.353662
     22          6           0       -3.866898    0.801506    1.227978
     23          6           0       -2.557980    0.334373    1.076095
     24          6           0       -2.292222   -0.552955    0.034313
     25          6           0       -3.275834   -0.986994   -0.853047
     26          6           0       -4.577709   -0.506896   -0.682235
     27          1           0       -5.889998    0.752367    0.479001
     28          1           0       -4.095604    1.493670    2.033366
     29          1           0       -1.757656    0.640904    1.738618
     30          1           0       -3.017275   -1.677701   -1.646450
     31          1           0       -5.359331   -0.832499   -1.362745
     32          7           0       -0.910257   -1.054350   -0.136500
     33          8           0       -0.701937   -1.835475   -1.062288
     34          8           0       -0.061562   -0.656724    0.658639
 ---------------------------------------------------------------------

 SCF Done:  E(RHF) =  -669.536628340     A.U. after   15 cycles
 E2 =    -0.2092691008D+01 EUMP2 =    -0.67162931934865D+03

 The electronic state is 1-A.
 Alpha  occ. eigenvalues --  -20.61167 -20.61154 -15.86167 -11.31403 -11.27954
 Alpha  occ. eigenvalues --  -11.27950 -11.27675 -11.26940 -11.26930 -11.20402
 Alpha  occ. eigenvalues --  -11.20309 -11.20207 -11.19924 -11.19892 -11.19810
 Alpha  occ. eigenvalues --   -1.60208  -1.39767  -1.19561  -1.08983  -1.07030
 Alpha  occ. eigenvalues --   -1.04943  -1.02335  -0.95840  -0.94797  -0.86348
 Alpha  occ. eigenvalues --   -0.85831  -0.82679  -0.78392  -0.77745  -0.76829
 Alpha  occ. eigenvalues --   -0.72408  -0.71523  -0.70670  -0.65227  -0.64948
 Alpha  occ. eigenvalues --   -0.63580  -0.62292  -0.59718  -0.58199  -0.56424
 Alpha  occ. eigenvalues --   -0.55453  -0.54087  -0.53275  -0.53033  -0.51571
 Alpha  occ. eigenvalues --   -0.51261  -0.49165  -0.49135  -0.48738  -0.46740
 Alpha  occ. eigenvalues --   -0.45420  -0.45121  -0.44358  -0.44217  -0.42521
 Alpha  occ. eigenvalues --   -0.37532  -0.36537
 Alpha virt. eigenvalues --    0.04742   0.11111   0.16230   0.21099   0.24186
 Alpha virt. eigenvalues --    0.25229   0.26914   0.27508   0.28290   0.29003
 Alpha virt. eigenvalues --    0.29233   0.30819   0.31829   0.32541   0.32675

 Mulliken charges:
               1
     1  C   -0.299974
     2  C   -0.300750
     3  C   -0.475232
     4  H    0.140130
     5  H    0.164805
     6  H    0.145545
     7  H    0.161355
     8  H    0.156634
     9  H    0.150413
    10  H    0.156228
    11  C   -0.295379
    12  C   -0.302774
    13  C   -0.474348
    14  H    0.140546
    15  H    0.162157
    16  H    0.144960
    17  H    0.161278
    18  H    0.151326
    19  H    0.153300
    20  H    0.152546
    21  C   -0.170181
    22  C   -0.218530
    23  C   -0.170214
    24  C    0.157831
    25  C   -0.170451
    26  C   -0.218593
    27  H    0.226495
    28  H    0.224395
    29  H    0.276067
    30  H    0.276037
    31  H    0.224242
    32  N    0.490964
    33  O   -0.458536
    34  O   -0.462290
 Sum of Mulliken charges =  -0.00000

 Dipole moment (field-independent basis, Debye):
    X=             -5.2604    Y=              1.5099    Z=              0.6456  Tot=              5.5108
 Quadrupole moment (field-independent basis, Debye-Ang):
   XX=            -73.5162   YY=            -96.8351   ZZ=            -92.3316
   XY=              0.0007   XZ=             -0.6971   YZ=              2.8201

 Normal termination of Gaussian 16 at Thu May  6 07:27:07 2021.
