 Gaussian 16, Revision A.03,
 Gaussian 16:  EM64L-G16RevA.03 25-Dec-2016

 -------------
 #p 6-31g* mp2
 -------------

 ------------------------------------------------------
 Input file generated by CHIRIPA (05-May-2021 14:55:22)
 ------------------------------------------------------
 Symbolic Z-matrix:
 Charge =  0 Multiplicity = 1

                         Standard orientation:
 ---------------------------------------------------------------------
 Center     Atomic      Atomic             Coordinates (Angstroms)
 Number     Number       Type             X           Y           Z
 ---------------------------------------------------------------------
      1          6           0        4.316173   -1.232712   -1.539074
      2          6           0        3.303317   -0.364385   -1.959373
      3          6           0        2.495685    0.289862   -1.024364
      4          6           0        2.729656    0.051551    0.329059
      5          6           0        3.730798   -0.807772    0.779136
      6          6           0        4.526310   -1.451249   -0.173569
      7          1           0        4.938854   -1.736763   -2.272284
      8          1           0        3.137846   -0.192762   -3.019189
      9          1           0        1.704513    0.967220   -1.322108
     10          1           0        3.871767   -0.958801    1.842496
     11          1           0        5.312169   -2.125066    0.155738
     12          7           0        1.881068    0.738472    1.328278
     13          8           0        2.107442    0.511590    2.514834
     14          8           0        1.005637    1.490755    0.905988
     15          6           0       -3.121233    0.585902   -0.062126
     16          6           0       -3.205684    1.844237   -0.926675
     17          6           0       -2.095154    2.848947   -0.618332
     18          1           0       -3.168169    0.872805    0.997321
     19          1           0       -2.142493    0.110103   -0.214039
     20          1           0       -4.184506    2.316764   -0.774224
     21          1           0       -3.158734    1.554289   -1.984192
     22          1           0       -1.111275    2.399957   -0.788602
     23          1           0       -2.142876    3.166764    0.428242
     24          1           0       -2.174570    3.740833   -1.247691
     25          6           0       -4.224723   -0.428049   -0.358677
     26          6           0       -4.140271   -1.686384    0.505872
     27          6           0       -5.250802   -2.691094    0.197530
     28          1           0       -5.203463    0.047750   -0.206763
     29          1           0       -4.177786   -0.714952   -1.418125
     30          1           0       -4.187222   -1.396436    1.563389
     31          1           0       -3.161449   -2.158911    0.353421
     32          1           0       -5.203080   -3.008911   -0.849044
     33          1           0       -6.234680   -2.242103    0.367799
     34          1           0       -5.171385   -3.582980    0.826888
 ---------------------------------------------------------------------

 SCF Done:  E(RHF) =  -669.535761482     A.U. after   15 cycles
 E2 =    -0.2091234154D+01 EUMP2 =    -0.67162699563571D+03

 The electronic state is 1-A.
 Alpha  occ. eigenvalues --  -20.60882 -20.60876 -15.85919 -11.31275 -11.27850
 Alpha  occ. eigenvalues --  -11.27836 -11.27581 -11.26857 -11.26847 -11.21129
 Alpha  occ. eigenvalues --  -11.20841 -11.20827 -11.20716 -11.20579 -11.19970
 Alpha  occ. eigenvalues --   -1.59947  -1.39502  -1.19447  -1.08843  -1.07779
 Alpha  occ. eigenvalues --   -1.04849  -1.02864  -0.95684  -0.95290  -0.86303
 Alpha  occ. eigenvalues --   -0.86247  -0.82516  -0.78942  -0.77623  -0.77493
 Alpha  occ. eigenvalues --   -0.72144  -0.71262  -0.70556  -0.65103  -0.64852
 Alpha  occ. eigenvalues --   -0.64422  -0.62199  -0.60273  -0.58691  -0.56890
 Alpha  occ. eigenvalues --   -0.55349  -0.54578  -0.53178  -0.52941  -0.52013
 Alpha  occ. eigenvalues --   -0.51681  -0.49261  -0.48898  -0.48865  -0.47223
 Alpha  occ. eigenvalues --   -0.45988  -0.45159  -0.45056  -0.44795  -0.43127
 Alpha  occ. eigenvalues --   -0.37426  -0.36452
 Alpha virt. eigenvalues --    0.04961   0.11199   0.16447   0.20918   0.23334
 Alpha virt. eigenvalues --    0.24437   0.26323   0.27446   0.27663   0.28277
 Alpha virt. eigenvalues --    0.29147   0.30426   0.31593   0.32297   0.32505

 Mulliken charges:
               1
     1  C   -0.170604
     2  C   -0.218967
     3  C   -0.171326
     4  C    0.157840
     5  C   -0.170808
     6  C   -0.218557
     7  H    0.225935
     8  H    0.223899
     9  H    0.276518
    10  H    0.275865
    11  H    0.223786
    12  N    0.492843
    13  O   -0.459517
    14  O   -0.464512
    15  C   -0.296177
    16  C   -0.300500
    17  C   -0.477400
    18  H    0.154717
    19  H    0.150124
    20  H    0.148991
    21  H    0.144823
    22  H    0.165884
    23  H    0.162100
    24  H    0.151903
    25  C   -0.297976
    26  C   -0.298846
    27  C   -0.475251
    28  H    0.148254
    29  H    0.145736
    30  H    0.153963
    31  H    0.150411
    32  H    0.153085
    33  H    0.154792
    34  H    0.158973
 Sum of Mulliken charges =  -0.00000

 Dipole moment (field-independent basis, Debye):
    X=              3.2026    Y=             -2.3888    Z=             -3.3739  Tot=              5.2293
 Quadrupole moment (field-independent basis, Debye-Ang):
   XX=            -78.5454   YY=            -95.4198   ZZ=            -94.2608
   XY=             -8.9456   XZ=             -7.6209   YZ=             -2.3521

 Normal termination of Gaussian 16 at Wed May  5 20:41:27 2021.
