 Gaussian 16, Revision A.03,
 Gaussian 16:  EM64L-G16RevA.03 25-Dec-2016

 -------------
 #p 6-31g* mp2
 -------------

 ------------------------------------------------------
 Input file generated by CHIRIPA (05-May-2021 14:53:14)
 ------------------------------------------------------
 Symbolic Z-matrix:
 Charge =  0 Multiplicity = 1

                         Standard orientation:
 ---------------------------------------------------------------------
 Center     Atomic      Atomic             Coordinates (Angstroms)
 Number     Number       Type             X           Y           Z
 ---------------------------------------------------------------------
      1          6           0       -2.356553   -0.358786    0.548624
      2          6           0       -1.845731   -1.491151    1.440137
      3          6           0       -0.347264   -1.388245    1.726142
      4          1           0       -1.799686   -0.366585   -0.398362
      5          1           0       -2.139665    0.604446    1.030846
      6          1           0       -2.064756   -2.452009    0.957025
      7          1           0       -2.404011   -1.480775    2.385035
      8          1           0       -0.115189   -0.444451    2.230123
      9          1           0        0.225994   -1.421203    0.793999
     10          1           0       -0.003311   -2.207566    2.365101
     11          6           0       -3.852828   -0.447889    0.253752
     12          6           0       -4.363650    0.684476   -0.637761
     13          6           0       -5.862118    0.581570   -0.923766
     14          1           0       -4.069716   -1.411121   -0.228469
     15          1           0       -4.409696   -0.440090    1.200738
     16          1           0       -3.805370    0.674101   -1.582659
     17          1           0       -4.144625    1.645334   -0.154649
     18          1           0       -6.435376    0.614528    0.008377
     19          1           0       -6.094193   -0.362223   -1.427746
     20          1           0       -6.206071    1.400891   -1.562725
     21          6           0        1.887640    2.670318    0.414288
     22          6           0        1.040373    2.001868   -0.475563
     23          6           0        1.328541    0.696732   -0.885597
     24          6           0        2.477541    0.087414   -0.383781
     25          6           0        3.341292    0.727075    0.503946
     26          6           0        3.033375    2.031914    0.900346
     27          1           0        1.656113    3.684063    0.727516
     28          1           0        0.149889    2.495188   -0.854665
     29          1           0        0.689907    0.156006   -1.573479
     30          1           0        4.221684    0.209250    0.864755
     31          1           0        3.693186    2.548605    1.591522
     32          7           0        2.793065   -1.294116   -0.810649
     33          8           0        3.811489   -1.808925   -0.354112
     34          8           0        2.015976   -1.835994   -1.593680
 ---------------------------------------------------------------------

 SCF Done:  E(RHF) =  -669.534791027     A.U. after   15 cycles
 E2 =    -0.2094166117D+01 EUMP2 =    -0.67162895714334D+03

 The electronic state is 1-A.
 Alpha  occ. eigenvalues --  -20.60856 -20.60844 -15.85867 -11.31145 -11.27748
 Alpha  occ. eigenvalues --  -11.27729 -11.27492 -11.26754 -11.26735 -11.21939
 Alpha  occ. eigenvalues --  -11.21658 -11.21582 -11.21557 -11.21318 -11.20870
 Alpha  occ. eigenvalues --   -1.59908  -1.39467  -1.19352  -1.08762  -1.08618
 Alpha  occ. eigenvalues --   -1.04749  -1.03648  -0.96096  -0.95604  -0.87121
 Alpha  occ. eigenvalues --   -0.86153  -0.82438  -0.79743  -0.78471  -0.77482
 Alpha  occ. eigenvalues --   -0.72101  -0.71238  -0.70478  -0.65256  -0.65009
 Alpha  occ. eigenvalues --   -0.64743  -0.62109  -0.61031  -0.59477  -0.57735
 Alpha  occ. eigenvalues --   -0.55390  -0.55258  -0.53246  -0.52844  -0.52764
 Alpha  occ. eigenvalues --   -0.52393  -0.50053  -0.48866  -0.48850  -0.48025
 Alpha  occ. eigenvalues --   -0.46785  -0.45998  -0.45908  -0.44813  -0.43925
 Alpha  occ. eigenvalues --   -0.37285  -0.36288
 Alpha virt. eigenvalues --    0.05005   0.11221   0.16480   0.20639   0.22867
 Alpha virt. eigenvalues --    0.24152   0.25365   0.26471   0.27701   0.28154
 Alpha virt. eigenvalues --    0.29356   0.30475   0.31438   0.31714   0.31817

 Mulliken charges:
               1
     1  C   -0.298453
     2  C   -0.299411
     3  C   -0.479906
     4  H    0.144818
     5  H    0.145614
     6  H    0.156662
     7  H    0.150931
     8  H    0.151984
     9  H    0.159339
    10  H    0.162928
    11  C   -0.298337
    12  C   -0.299464
    13  C   -0.475661
    14  H    0.152874
    15  H    0.150598
    16  H    0.149383
    17  H    0.148308
    18  H    0.155952
    19  H    0.157322
    20  H    0.159803
    21  C   -0.171472
    22  C   -0.216885
    23  C   -0.171723
    24  C    0.159467
    25  C   -0.170518
    26  C   -0.218738
    27  H    0.225481
    28  H    0.224419
    29  H    0.275064
    30  H    0.275533
    31  H    0.223305
    32  N    0.490082
    33  O   -0.458521
    34  O   -0.460777
 Sum of Mulliken charges =  -0.00000

 Dipole moment (field-independent basis, Debye):
    X=             -1.0791    Y=              4.7942    Z=              1.5196  Tot=              5.1437
 Quadrupole moment (field-independent basis, Debye-Ang):
   XX=            -97.9807   YY=            -94.1081   ZZ=            -94.3724
   XY=             12.2668   XZ=              6.4652   YZ=             -1.1837

 Normal termination of Gaussian 16 at Thu May  6 13:47:49 2021.
