 Gaussian 16, Revision A.03,
 Gaussian 16:  EM64L-G16RevA.03 25-Dec-2016

 -------------
 #p 6-31g* mp2
 -------------

 ------------------------------------------------------
 Input file generated by CHIRIPA (05-May-2021 14:57:24)
 ------------------------------------------------------
 Symbolic Z-matrix:
 Charge =  0 Multiplicity = 1

                         Standard orientation:
 ---------------------------------------------------------------------
 Center     Atomic      Atomic             Coordinates (Angstroms)
 Number     Number       Type             X           Y           Z
 ---------------------------------------------------------------------
      1          6           0       -2.216704    2.204079   -1.359251
      2          6           0       -1.609470    0.944740   -1.402302
      3          6           0       -2.174322   -0.139424   -0.724010
      4          6           0       -3.352234    0.072364   -0.009195
      5          6           0       -3.981053    1.314956    0.052791
      6          6           0       -3.398473    2.384849   -0.633122
      7          1           0       -1.771027    3.040741   -1.889125
      8          1           0       -0.691647    0.801421   -1.965424
      9          1           0       -1.725238   -1.125055   -0.740490
     10          1           0       -4.895511    1.426947    0.622565
     11          1           0       -3.872261    3.361748   -0.597923
     12          7           0       -3.959601   -1.067837    0.712916
     13          8           0       -4.997742   -0.855184    1.335555
     14          8           0       -3.386014   -2.152591    0.642595
     15          6           0        4.548694    1.677306    1.092883
     16          6           0        5.074589    0.946996    0.022088
     17          6           0        4.364960   -0.128504   -0.520382
     18          6           0        3.126785   -0.447602    0.034947
     19          6           0        2.576184    0.260812    1.101848
     20          6           0        3.303366    1.332491    1.628402
     21          1           0        5.106769    2.511296    1.508105
     22          1           0        6.041490    1.212523   -0.395817
     23          1           0        4.748585   -0.710838   -1.349320
     24          1           0        1.609818   -0.027705    1.497211
     25          1           0        2.892485    1.897882    2.459999
     26          7           0        2.366242   -1.584163   -0.530917
     27          8           0        1.277530   -1.845173   -0.023751
     28          8           0        2.873241   -2.192469   -1.470893
 ---------------------------------------------------------------------

 SCF Done:  E(RHF) =  -868.338703472     A.U. after   16 cycles
 E2 =    -0.2599188294D+01 EUMP2 =    -0.87093789176579D+03

 The electronic state is 1-A.
 Alpha  occ. eigenvalues --  -20.61371 -20.61346 -20.60215 -20.60173 -15.86395
 Alpha  occ. eigenvalues --  -15.85249 -11.31663 -11.30640 -11.28221 -11.28199
 Alpha  occ. eigenvalues --  -11.27940 -11.27313 -11.27207 -11.27189 -11.27081
 Alpha  occ. eigenvalues --  -11.27074 -11.26346 -11.26227  -1.60433  -1.59277
 Alpha  occ. eigenvalues --   -1.39986  -1.38824  -1.19828  -1.18853  -1.09242
 Alpha  occ. eigenvalues --   -1.08262  -1.05207  -1.04241  -0.96087  -0.95071
 Alpha  occ. eigenvalues --   -0.86609  -0.85648  -0.82915  -0.81888  -0.77977
 Alpha  occ. eigenvalues --   -0.76907  -0.72605  -0.71765  -0.71463  -0.70921
 Alpha  occ. eigenvalues --   -0.70608  -0.69955  -0.65475  -0.65198  -0.64499
 Alpha  occ. eigenvalues --   -0.64248  -0.62545  -0.61547  -0.55708  -0.54795
 Alpha  occ. eigenvalues --   -0.53557  -0.53288  -0.52612  -0.52319  -0.49369
 Alpha  occ. eigenvalues --   -0.49356  -0.48244  -0.48205  -0.45406  -0.44222
 Alpha  occ. eigenvalues --   -0.37813  -0.36897  -0.36809  -0.35856
 Alpha virt. eigenvalues --    0.04505   0.05601   0.10837   0.11784   0.16005
 Alpha virt. eigenvalues --    0.17047   0.21017   0.21919   0.26957   0.27612
 Alpha virt. eigenvalues --    0.28004   0.28894   0.30648   0.31406   0.32122

 Mulliken charges:
               1
     1  C   -0.172096
     2  C   -0.222938
     3  C   -0.173795
     4  C    0.155862
     5  C   -0.171841
     6  C   -0.220177
     7  H    0.222198
     8  H    0.223886
     9  H    0.294716
    10  H    0.273640
    11  H    0.220349
    12  N    0.487237
    13  O   -0.464650
    14  O   -0.454422
    15  C   -0.170690
    16  C   -0.218871
    17  C   -0.171431
    18  C    0.155579
    19  C   -0.172087
    20  C   -0.219073
    21  H    0.226944
    22  H    0.224657
    23  H    0.276241
    24  H    0.278345
    25  H    0.225423
    26  N    0.487475
    27  O   -0.462764
    28  O   -0.457719
 Sum of Mulliken charges =  -0.00000

 Dipole moment (field-independent basis, Debye):
    X=              5.0878    Y=              7.8333    Z=             -0.5235  Tot=              9.3553
 Quadrupole moment (field-independent basis, Debye-Ang):
   XX=            -97.9673   YY=           -107.1271   ZZ=           -103.0618
   XY=             -4.4893   XZ=             10.9677   YZ=              0.9636

 Normal termination of Gaussian 16 at Fri May  7 03:26:24 2021.
