 Gaussian 16, Revision A.03,
 Gaussian 16:  EM64L-G16RevA.03 25-Dec-2016

 -------------
 #p 6-31g* mp2
 -------------

 ------------------------------------------------------
 Input file generated by CHIRIPA (05-May-2021 14:55:19)
 ------------------------------------------------------
 Symbolic Z-matrix:
 Charge =  0 Multiplicity = 1

                         Standard orientation:
 ---------------------------------------------------------------------
 Center     Atomic      Atomic             Coordinates (Angstroms)
 Number     Number       Type             X           Y           Z
 ---------------------------------------------------------------------
      1          6           0        1.041319    2.636682    0.235135
      2          6           0        0.858866    1.598162    1.154215
      3          6           0        1.642244    0.442319    1.084248
      4          6           0        2.603151    0.358035    0.077847
      5          6           0        2.808825    1.375606   -0.852497
      6          6           0        2.014001    2.522291   -0.763527
      7          1           0        0.428327    3.531012    0.296868
      8          1           0        0.104227    1.684253    1.930844
      9          1           0        1.522076   -0.376787    1.782850
     10          1           0        3.569078    1.260853   -1.615559
     11          1           0        2.157906    3.327235   -1.478650
     12          7           0        3.438537   -0.860756   -0.006283
     13          8           0        4.278350   -0.910584   -0.902311
     14          8           0        3.237680   -1.743140    0.825398
     15          6           0       -3.579332   -0.160261    0.192240
     16          6           0       -4.888411    0.092800   -0.556264
     17          6           0       -5.724721    1.206190    0.075197
     18          1           0       -3.805040   -0.416525    1.236428
     19          1           0       -2.994189    0.769438    0.218030
     20          1           0       -5.470292   -0.837456   -0.581835
     21          1           0       -4.659569    0.348305   -1.598840
     22          1           0       -5.166589    2.147976    0.086624
     23          1           0       -5.981919    0.955477    1.109408
     24          1           0       -6.656042    1.370422   -0.475739
     25          6           0       -2.732270   -1.270542   -0.427025
     26          6           0       -1.423191   -1.523601    0.321480
     27          6           0       -0.586881   -2.636992   -0.309981
     28          1           0       -3.317414   -2.200239   -0.452814
     29          1           0       -2.506561   -1.014277   -1.471212
     30          1           0       -1.652033   -1.779106    1.364056
     31          1           0       -0.841310   -0.593345    0.347051
     32          1           0       -0.329683   -2.386278   -1.344192
     33          1           0       -1.145012   -3.578777   -0.321409
     34          1           0        0.344439   -2.801223    0.240955
 ---------------------------------------------------------------------

 SCF Done:  E(RHF) =  -669.535025202     A.U. after   15 cycles
 E2 =    -0.2093873232D+01 EUMP2 =    -0.67162889843431D+03

 The electronic state is 1-A.
 Alpha  occ. eigenvalues --  -20.60898 -20.60892 -15.85929 -11.31271 -11.27847
 Alpha  occ. eigenvalues --  -11.27836 -11.27592 -11.26852 -11.26832 -11.21900
 Alpha  occ. eigenvalues --  -11.21711 -11.21568 -11.21487 -11.21426 -11.20780
 Alpha  occ. eigenvalues --   -1.59953  -1.39510  -1.19463  -1.08852  -1.08624
 Alpha  occ. eigenvalues --   -1.04874  -1.03657  -0.96101  -0.95687  -0.87103
 Alpha  occ. eigenvalues --   -0.86252  -0.82531  -0.79751  -0.78474  -0.77560
 Alpha  occ. eigenvalues --   -0.72151  -0.71267  -0.70563  -0.65278  -0.65104
 Alpha  occ. eigenvalues --   -0.64852  -0.62219  -0.61078  -0.59472  -0.57719
 Alpha  occ. eigenvalues --   -0.55412  -0.55352  -0.53219  -0.52942  -0.52731
 Alpha  occ. eigenvalues --   -0.52512  -0.50042  -0.48913  -0.48908  -0.48047
 Alpha  occ. eigenvalues --   -0.46800  -0.45990  -0.45924  -0.44917  -0.43880
 Alpha  occ. eigenvalues --   -0.37443  -0.36328
 Alpha virt. eigenvalues --    0.04928   0.11090   0.16350   0.20988   0.22754
 Alpha virt. eigenvalues --    0.24095   0.26196   0.26509   0.27013   0.28318
 Alpha virt. eigenvalues --    0.28640   0.30737   0.31346   0.31625   0.31911

 Mulliken charges:
               1
     1  C   -0.171347
     2  C   -0.219523
     3  C   -0.170013
     4  C    0.159821
     5  C   -0.171134
     6  C   -0.218757
     7  H    0.226133
     8  H    0.226032
     9  H    0.277999
    10  H    0.275901
    11  H    0.223788
    12  N    0.488785
    13  O   -0.459007
    14  O   -0.460625
    15  C   -0.297515
    16  C   -0.299604
    17  C   -0.475402
    18  H    0.148616
    19  H    0.142983
    20  H    0.153919
    21  H    0.152291
    22  H    0.151929
    23  H    0.155316
    24  H    0.161499
    25  C   -0.296346
    26  C   -0.310774
    27  C   -0.483370
    28  H    0.150834
    29  H    0.150088
    30  H    0.147286
    31  H    0.156130
    32  H    0.154706
    33  H    0.155497
    34  H    0.173866
 Sum of Mulliken charges =  -0.00000

 Dipole moment (field-independent basis, Debye):
    X=             -2.8017    Y=              4.2709    Z=              0.2697  Tot=              5.1150
 Quadrupole moment (field-independent basis, Debye-Ang):
   XX=           -109.8402   YY=            -91.4878   ZZ=            -91.6532
   XY=             12.1237   XZ=             -1.5852   YZ=             -1.9583

 Normal termination of Gaussian 16 at Thu May  6 15:44:31 2021.
