 Gaussian 16, Revision A.03,
 Gaussian 16:  EM64L-G16RevA.03 25-Dec-2016

 -------------
 #p 6-31g* mp2
 -------------

 ------------------------------------------------------
 Input file generated by CHIRIPA (05-May-2021 14:55:25)
 ------------------------------------------------------
 Symbolic Z-matrix:
 Charge =  0 Multiplicity = 1

                         Standard orientation:
 ---------------------------------------------------------------------
 Center     Atomic      Atomic             Coordinates (Angstroms)
 Number     Number       Type             X           Y           Z
 ---------------------------------------------------------------------
      1          6           0       -1.227872   -2.848211   -0.554689
      2          6           0       -1.969878   -2.107715   -1.480763
      3          6           0       -2.507564   -0.865940   -1.129427
      4          6           0       -2.282771   -0.392761    0.162417
      5          6           0       -1.547876   -1.106931    1.107500
      6          6           0       -1.019606   -2.346341    0.734214
      7          1           0       -0.813842   -3.811933   -0.836141
      8          1           0       -2.133219   -2.494991   -2.482453
      9          1           0       -3.085867   -0.271844   -1.826587
     10          1           0       -1.401902   -0.694710    2.098551
     11          1           0       -0.443760   -2.919237    1.455488
     12          7           0       -2.847011    0.920598    0.545980
     13          8           0       -2.634741    1.315379    1.690412
     14          8           0       -3.490849    1.530359   -0.305079
     15          6           0        3.477389    0.460234   -0.289441
     16          6           0        3.812190   -0.735846    0.602347
     17          6           0        5.164594   -1.364416    0.265154
     18          1           0        3.482274    0.138944   -1.340009
     19          1           0        4.268958    1.215827   -0.189978
     20          1           0        3.019525   -1.488366    0.502287
     21          1           0        3.806319   -0.411714    1.650927
     22          1           0        5.969894   -0.632196    0.383248
     23          1           0        5.178629   -1.714965   -0.771919
     24          1           0        5.383877   -2.217596    0.914659
     25          6           0        2.128441    1.099366    0.035485
     26          6           0        1.793642    2.295447   -0.856302
     27          6           0        0.441238    2.924016   -0.519110
     28          1           0        1.336872    0.343773   -0.063978
     29          1           0        2.123557    1.420656    1.086054
     30          1           0        1.799512    1.971314   -1.904883
     31          1           0        2.586306    3.047967   -0.756242
     32          1           0        0.427202    3.274565    0.517963
     33          1           0       -0.364063    2.191796   -0.637204
     34          1           0        0.221954    3.777197   -1.168615
 ---------------------------------------------------------------------

 SCF Done:  E(RHF) =  -669.535796140     A.U. after   15 cycles
 E2 =    -0.2092765293D+01 EUMP2 =    -0.67162856143239D+03

 The electronic state is 1-A.
 Alpha  occ. eigenvalues --  -20.60806 -20.60800 -15.85851 -11.31260 -11.27836
 Alpha  occ. eigenvalues --  -11.27829 -11.27580 -11.26857 -11.26839 -11.21841
 Alpha  occ. eigenvalues --  -11.21454 -11.21369 -11.21323 -11.21264 -11.20587
 Alpha  occ. eigenvalues --   -1.59878  -1.39429  -1.19439  -1.08826  -1.08423
 Alpha  occ. eigenvalues --   -1.04840  -1.03486  -0.95910  -0.95652  -0.86921
 Alpha  occ. eigenvalues --   -0.86234  -0.82479  -0.79569  -0.78223  -0.77520
 Alpha  occ. eigenvalues --   -0.72073  -0.71219  -0.70535  -0.65087  -0.65059
 Alpha  occ. eigenvalues --   -0.64834  -0.62182  -0.60886  -0.59313  -0.57520
 Alpha  occ. eigenvalues --   -0.55338  -0.55195  -0.53191  -0.52926  -0.52593
 Alpha  occ. eigenvalues --   -0.52320  -0.49859  -0.48837  -0.48826  -0.47870
 Alpha  occ. eigenvalues --   -0.46626  -0.45751  -0.45668  -0.44812  -0.43732
 Alpha  occ. eigenvalues --   -0.37410  -0.36425
 Alpha virt. eigenvalues --    0.05005   0.11176   0.16465   0.21285   0.22786
 Alpha virt. eigenvalues --    0.24194   0.26344   0.26992   0.27551   0.27973
 Alpha virt. eigenvalues --    0.28304   0.30477   0.31512   0.31768   0.32221

 Mulliken charges:
               1
     1  C   -0.171048
     2  C   -0.218534
     3  C   -0.172066
     4  C    0.155418
     5  C   -0.169738
     6  C   -0.219128
     7  H    0.226043
     8  H    0.223781
     9  H    0.276276
    10  H    0.276620
    11  H    0.224476
    12  N    0.490709
    13  O   -0.458771
    14  O   -0.459734
    15  C   -0.297493
    16  C   -0.298882
    17  C   -0.475471
    18  H    0.148362
    19  H    0.150554
    20  H    0.146247
    21  H    0.152181
    22  H    0.157014
    23  H    0.154424
    24  H    0.158534
    25  C   -0.301653
    26  C   -0.300310
    27  C   -0.473534
    28  H    0.149818
    29  H    0.150386
    30  H    0.149321
    31  H    0.151415
    32  H    0.161584
    33  H    0.150774
    34  H    0.162424
 Sum of Mulliken charges =  -0.00000

 Dipole moment (field-independent basis, Debye):
    X=              1.8876    Y=             -4.5544    Z=             -1.3098  Tot=              5.1011
 Quadrupole moment (field-independent basis, Debye-Ang):
   XX=           -104.6687   YY=            -91.3210   ZZ=            -90.6842
   XY=             10.5381   XZ=              5.9567   YZ=             -0.2522

 Normal termination of Gaussian 16 at Thu May  6 03:14:34 2021.
