 Gaussian 16, Revision A.03,
 Gaussian 16:  EM64L-G16RevA.03 25-Dec-2016

 -------------
 #p 6-31g* mp2
 -------------

 ------------------------------------------------------
 Input file generated by CHIRIPA (05-May-2021 14:57:21)
 ------------------------------------------------------
 Symbolic Z-matrix:
 Charge =  0 Multiplicity = 1

                         Standard orientation:
 ---------------------------------------------------------------------
 Center     Atomic      Atomic             Coordinates (Angstroms)
 Number     Number       Type             X           Y           Z
 ---------------------------------------------------------------------
      1          6           0        2.291256    1.215745    2.181925
      2          6           0        1.970497    1.659981    0.894956
      3          6           0        2.484618    1.008089   -0.229884
      4          6           0        3.320228   -0.089706   -0.030156
      5          6           0        3.658273   -0.556242    1.239237
      6          6           0        3.132637    0.110999    2.349663
      7          1           0        1.887402    1.728112    3.050129
      8          1           0        1.317318    2.517674    0.761674
      9          1           0        2.252590    1.330884   -1.237547
     10          1           0        4.312005   -1.414050    1.340322
     11          1           0        3.383450   -0.236214    3.347951
     12          7           0        3.870600   -0.787959   -1.213344
     13          8           0        4.604571   -1.752739   -1.010555
     14          8           0        3.557589   -0.357248   -2.321112
     15          6           0       -2.113903    2.116346   -0.895842
     16          6           0       -1.349554    0.962388   -0.694171
     17          6           0       -1.957059   -0.229854   -0.289149
     18          6           0       -3.337374   -0.232429   -0.094177
     19          6           0       -4.126072    0.900762   -0.286856
     20          6           0       -3.497284    2.081911   -0.691900
     21          1           0       -1.633711    3.038200   -1.210481
     22          1           0       -0.275015    0.986196   -0.851794
     23          1           0       -1.389288   -1.137792   -0.125742
     24          1           0       -5.195259    0.846102   -0.121717
     25          1           0       -4.093400    2.976561   -0.847756
     26          7           0       -3.991779   -1.488730    0.334612
     27          8           0       -5.209498   -1.464887    0.499619
     28          8           0       -3.274589   -2.473474    0.497573
 ---------------------------------------------------------------------

 SCF Done:  E(RHF) =  -868.336110114     A.U. after   16 cycles
 E2 =    -0.2601706244D+01 EUMP2 =    -0.87093781635841D+03

 The electronic state is 1-A.
 Alpha  occ. eigenvalues --  -20.61421 -20.61401 -20.60969 -20.60963 -15.86474
 Alpha  occ. eigenvalues --  -15.86023 -11.32010 -11.31464 -11.28651 -11.28485
 Alpha  occ. eigenvalues --  -11.28254 -11.28032 -11.28009 -11.27849 -11.27679
 Alpha  occ. eigenvalues --  -11.27517 -11.27091 -11.27028  -1.60487  -1.60043
 Alpha  occ. eigenvalues --   -1.40037  -1.39594  -1.20180  -1.19646  -1.09515
 Alpha  occ. eigenvalues --   -1.09049  -1.05637  -1.05039  -0.96335  -0.95864
 Alpha  occ. eigenvalues --   -0.86978  -0.86474  -0.83190  -0.82675  -0.78242
 Alpha  occ. eigenvalues --   -0.77690  -0.72683  -0.72241  -0.71818  -0.71367
 Alpha  occ. eigenvalues --   -0.71243  -0.70788  -0.65853  -0.65599  -0.65298
 Alpha  occ. eigenvalues --   -0.65099  -0.63009  -0.62314  -0.56030  -0.55617
 Alpha  occ. eigenvalues --   -0.54023  -0.53711  -0.53357  -0.53017  -0.49456
 Alpha  occ. eigenvalues --   -0.49432  -0.49007  -0.48990  -0.45406  -0.44982
 Alpha  occ. eigenvalues --   -0.38134  -0.37692  -0.37237  -0.36548
 Alpha virt. eigenvalues --    0.04280   0.04812   0.10210   0.11099   0.15664
 Alpha virt. eigenvalues --    0.16310   0.19567   0.21902   0.25488   0.26853
 Alpha virt. eigenvalues --    0.27969   0.28899   0.30018   0.31049   0.32103

 Mulliken charges:
               1
     1  C   -0.170464
     2  C   -0.215603
     3  C   -0.183523
     4  C    0.159345
     5  C   -0.170174
     6  C   -0.216907
     7  H    0.229572
     8  H    0.221181
     9  H    0.272178
    10  H    0.279391
    11  H    0.228203
    12  N    0.488051
    13  O   -0.455992
    14  O   -0.460799
    15  C   -0.176234
    16  C   -0.220456
    17  C   -0.173721
    18  C    0.158889
    19  C   -0.171259
    20  C   -0.217956
    21  H    0.221990
    22  H    0.226546
    23  H    0.278529
    24  H    0.276390
    25  H    0.223844
    26  N    0.487920
    27  O   -0.460040
    28  O   -0.458898
 Sum of Mulliken charges =  -0.00000

 Dipole moment (field-independent basis, Debye):
    X=              0.5510    Y=              6.6941    Z=              2.8651  Tot=              7.3023
 Quadrupole moment (field-independent basis, Debye-Ang):
   XX=           -127.7093   YY=           -105.2787   ZZ=           -103.7755
   XY=            -11.3505   XZ=             20.9907   YZ=             -2.5817

 Normal termination of Gaussian 16 at Thu May  6 00:08:40 2021.
