 Gaussian 16, Revision A.03,
 Gaussian 16:  EM64L-G16RevA.03 25-Dec-2016

 -------------
 #p 6-31g* mp2
 -------------

 ------------------------------------------------------
 Input file generated by CHIRIPA (05-May-2021 14:55:25)
 ------------------------------------------------------
 Symbolic Z-matrix:
 Charge =  0 Multiplicity = 1

                         Standard orientation:
 ---------------------------------------------------------------------
 Center     Atomic      Atomic             Coordinates (Angstroms)
 Number     Number       Type             X           Y           Z
 ---------------------------------------------------------------------
      1          6           0       -6.018816    0.914088    0.282454
      2          6           0       -5.675348   -0.403986    0.600620
      3          6           0       -4.362377   -0.855097    0.435834
      4          6           0       -3.413922    0.042752   -0.051599
      5          6           0       -3.725080    1.361941   -0.377497
      6          6           0       -5.044304    1.791299   -0.204730
      7          1           0       -7.041192    1.256073    0.413564
      8          1           0       -6.430088   -1.087447    0.979163
      9          1           0       -4.069080   -1.870249    0.674292
     10          1           0       -2.950814    2.019993   -0.752861
     11          1           0       -5.308174    2.815484   -0.452645
     12          7           0       -2.020629   -0.423304   -0.230275
     13          8           0       -1.203532    0.387336   -0.661381
     14          8           0       -1.772045   -1.590415    0.064166
     15          6           0        3.995507   -0.388720    0.313555
     16          6           0        3.183923   -1.237631   -0.665560
     17          6           0        1.849659   -1.701587   -0.080515
     18          1           0        4.176698   -0.968634    1.228877
     19          1           0        3.400281    0.485925    0.610367
     20          1           0        3.781037   -2.109689   -0.961506
     21          1           0        3.004808   -0.655695   -1.578733
     22          1           0        1.231510   -0.842034    0.198165
     23          1           0        2.012150   -2.304290    0.818899
     24          1           0        1.285817   -2.306831   -0.797190
     25          6           0        5.331991    0.082637   -0.256850
     26          6           0        6.143575    0.931548    0.722265
     27          6           0        7.477840    1.395504    0.137221
     28          1           0        5.927217   -0.792009   -0.553661
     29          1           0        5.150800    0.662552   -1.172171
     30          1           0        6.322690    0.349613    1.635439
     31          1           0        5.546461    1.803607    1.018211
     32          1           0        7.315349    1.998207   -0.762194
     33          1           0        8.095988    0.535952   -0.141460
     34          1           0        8.041681    2.000747    0.853895
 ---------------------------------------------------------------------

 SCF Done:  E(RHF) =  -669.536171289     A.U. after   15 cycles
 E2 =    -0.2091584341D+01 EUMP2 =    -0.67162775563055D+03

 The electronic state is 1-A.
 Alpha  occ. eigenvalues --  -20.61013 -20.61002 -15.86021 -11.31335 -11.27893
 Alpha  occ. eigenvalues --  -11.27888 -11.27626 -11.26895 -11.26885 -11.20841
 Alpha  occ. eigenvalues --  -11.20454 -11.20422 -11.20142 -11.19982 -11.18779
 Alpha  occ. eigenvalues --   -1.60052  -1.39609  -1.19498  -1.08904  -1.07298
 Alpha  occ. eigenvalues --   -1.04891  -1.02263  -0.95750  -0.94671  -0.86292
 Alpha  occ. eigenvalues --   -0.85682  -0.82580  -0.78391  -0.77637  -0.77038
 Alpha  occ. eigenvalues --   -0.72226  -0.71365  -0.70605  -0.65152  -0.64894
 Alpha  occ. eigenvalues --   -0.63941  -0.62238  -0.59667  -0.58172  -0.56278
 Alpha  occ. eigenvalues --   -0.55405  -0.53980  -0.53223  -0.52982  -0.51363
 Alpha  occ. eigenvalues --   -0.51128  -0.49244  -0.48969  -0.48343  -0.46656
 Alpha  occ. eigenvalues --   -0.45427  -0.45024  -0.44573  -0.44425  -0.42496
 Alpha  occ. eigenvalues --   -0.37476  -0.36491
 Alpha virt. eigenvalues --    0.04879   0.11165   0.16384   0.21305   0.23899
 Alpha virt. eigenvalues --    0.25667   0.27223   0.27727   0.28190   0.28545
 Alpha virt. eigenvalues --    0.29445   0.30879   0.32397   0.32669   0.32776

 Mulliken charges:
               1
     1  C   -0.170509
     2  C   -0.218590
     3  C   -0.170803
     4  C    0.159362
     5  C   -0.170767
     6  C   -0.218569
     7  H    0.226132
     8  H    0.223991
     9  H    0.276061
    10  H    0.275745
    11  H    0.223929
    12  N    0.487894
    13  O   -0.459693
    14  O   -0.456898
    15  C   -0.297383
    16  C   -0.300742
    17  C   -0.473215
    18  H    0.146179
    19  H    0.150025
    20  H    0.144049
    21  H    0.150664
    22  H    0.174727
    23  H    0.142991
    24  H    0.163325
    25  C   -0.297106
    26  C   -0.298692
    27  C   -0.475011
    28  H    0.147256
    29  H    0.148416
    30  H    0.150461
    31  H    0.150847
    32  H    0.154180
    33  H    0.154104
    34  H    0.157638
 Sum of Mulliken charges =  -0.00000

 Dipole moment (field-independent basis, Debye):
    X=             -5.4153    Y=              1.6719    Z=              0.6114  Tot=              5.7004
 Quadrupole moment (field-independent basis, Debye-Ang):
   XX=            -63.9075   YY=            -90.2993   ZZ=            -95.1796
   XY=             -5.1994   XZ=             -2.0996   YZ=             -2.0347

 Normal termination of Gaussian 16 at Thu May  6 19:22:22 2021.
