 Gaussian 16, Revision A.03,
 Gaussian 16:  EM64L-G16RevA.03 25-Dec-2016

 -------------
 #p 6-31g* mp2
 -------------

 ------------------------------------------------------
 Input file generated by CHIRIPA (05-May-2021 14:53:11)
 ------------------------------------------------------
 Symbolic Z-matrix:
 Charge =  0 Multiplicity = 1

                         Standard orientation:
 ---------------------------------------------------------------------
 Center     Atomic      Atomic             Coordinates (Angstroms)
 Number     Number       Type             X           Y           Z
 ---------------------------------------------------------------------
      1          6           0       -3.649546   -0.667003    0.183601
      2          6           0       -4.201026    0.614429   -0.442326
      3          6           0       -5.637538    0.912052   -0.011459
      4          1           0       -4.298281   -1.510127   -0.090683
      5          1           0       -3.694700   -0.581042    1.278117
      6          1           0       -4.153563    0.526632   -1.535329
      7          1           0       -3.550796    1.454569   -0.166679
      8          1           0       -5.697824    1.026278    1.075702
      9          1           0       -6.304016    0.093068   -0.300725
     10          1           0       -6.011877    1.832356   -0.470557
     11          6           0       -2.214413   -0.977990   -0.237598
     12          6           0       -1.662933   -2.259423    0.388329
     13          6           0       -0.226421   -2.557045   -0.042539
     14          1           0       -2.169259   -1.063951   -1.332115
     15          1           0       -1.565679   -0.134867    0.036685
     16          1           0       -2.313164   -3.099563    0.112681
     17          1           0       -1.710397   -2.171625    1.481331
     18          1           0        0.440057   -1.738062    0.246727
     19          1           0       -0.166135   -2.671272   -1.129700
     20          1           0        0.147918   -3.477349    0.416560
     21          6           0        0.840254    2.693930    0.254195
     22          6           0        1.250113    2.266748   -1.013106
     23          6           0        2.053806    1.131529   -1.154182
     24          6           0        2.430824    0.444258   -0.001442
     25          6           0        2.038711    0.844831    1.274911
     26          6           0        1.235165    1.982863    1.392152
     27          1           0        0.215983    3.576888    0.354528
     28          1           0        0.944940    2.817013   -1.898613
     29          1           0        2.385435    0.778723   -2.123185
     30          1           0        2.358947    0.275653    2.139148
     31          1           0        0.918365    2.312302    2.377623
     32          7           0        3.281581   -0.759036   -0.138177
     33          8           0        3.600204   -1.347093    0.892991
     34          8           0        3.613671   -1.091338   -1.273927
 ---------------------------------------------------------------------

 SCF Done:  E(RHF) =  -669.535417680     A.U. after   15 cycles
 E2 =    -0.2093244262D+01 EUMP2 =    -0.67162866194157D+03

 The electronic state is 1-A.
 Alpha  occ. eigenvalues --  -20.60789 -20.60783 -15.85835 -11.31235 -11.27820
 Alpha  occ. eigenvalues --  -11.27802 -11.27586 -11.26865 -11.26842 -11.21906
 Alpha  occ. eigenvalues --  -11.21547 -11.21505 -11.21391 -11.21364 -11.20755
 Alpha  occ. eigenvalues --   -1.59858  -1.39410  -1.19434  -1.08822  -1.08527
 Alpha  occ. eigenvalues --   -1.04835  -1.03592  -0.96023  -0.95642  -0.87039
 Alpha  occ. eigenvalues --   -0.86230  -0.82470  -0.79677  -0.78333  -0.77509
 Alpha  occ. eigenvalues --   -0.72058  -0.71196  -0.70530  -0.65168  -0.65080
 Alpha  occ. eigenvalues --   -0.64834  -0.62176  -0.61002  -0.59406  -0.57637
 Alpha  occ. eigenvalues --   -0.55361  -0.55304  -0.53210  -0.52924  -0.52687
 Alpha  occ. eigenvalues --   -0.52439  -0.49983  -0.48821  -0.48810  -0.47977
 Alpha  occ. eigenvalues --   -0.46730  -0.45854  -0.45779  -0.44788  -0.43833
 Alpha  occ. eigenvalues --   -0.37375  -0.36431
 Alpha virt. eigenvalues --    0.05020   0.11177   0.16488   0.21340   0.22696
 Alpha virt. eigenvalues --    0.24185   0.26391   0.27220   0.27292   0.27745
 Alpha virt. eigenvalues --    0.28325   0.30782   0.31207   0.31690   0.32105

 Mulliken charges:
               1
     1  C   -0.297907
     2  C   -0.298389
     3  C   -0.475554
     4  H    0.150895
     5  H    0.148268
     6  H    0.151954
     7  H    0.146558
     8  H    0.154709
     9  H    0.156888
    10  H    0.159086
    11  C   -0.300452
    12  C   -0.299655
    13  C   -0.477175
    14  H    0.148709
    15  H    0.150057
    16  H    0.152149
    17  H    0.149968
    18  H    0.151697
    19  H    0.156808
    20  H    0.166549
    21  C   -0.171446
    22  C   -0.217404
    23  C   -0.170600
    24  C    0.156564
    25  C   -0.173623
    26  C   -0.217921
    27  H    0.226112
    28  H    0.224133
    29  H    0.276066
    30  H    0.276078
    31  H    0.223872
    32  N    0.492657
    33  O   -0.460087
    34  O   -0.459565
 Sum of Mulliken charges =  -0.00000

 Dipole moment (field-independent basis, Debye):
    X=             -2.9008    Y=              4.2002    Z=              0.4491  Tot=              5.1243
 Quadrupole moment (field-independent basis, Debye-Ang):
   XX=           -111.2664   YY=            -91.1529   ZZ=            -89.2027
   XY=              9.6153   XZ=              1.6436   YZ=             -0.0847

 Normal termination of Gaussian 16 at Wed May  5 15:26:59 2021.
