 Gaussian 16, Revision A.03,
 Gaussian 16:  EM64L-G16RevA.03 25-Dec-2016

 -------------
 #p 6-31g* mp2
 -------------

 ------------------------------------------------------
 Input file generated by CHIRIPA (05-May-2021 14:55:25)
 ------------------------------------------------------
 Symbolic Z-matrix:
 Charge =  0 Multiplicity = 1

                         Standard orientation:
 ---------------------------------------------------------------------
 Center     Atomic      Atomic             Coordinates (Angstroms)
 Number     Number       Type             X           Y           Z
 ---------------------------------------------------------------------
      1          6           0        2.477405    2.036857   -0.284684
      2          6           0        3.778010    1.997732   -0.797925
      3          6           0        4.555766    0.842621   -0.673976
      4          6           0        3.998824   -0.260031   -0.028017
      5          6           0        2.706190   -0.252009    0.493829
      6          6           0        1.946582    0.913841    0.358421
      7          1           0        1.880274    2.938346   -0.385421
      8          1           0        4.192850    2.868379   -1.297851
      9          1           0        5.565467    0.785014   -1.062053
     10          1           0        2.320013   -1.135736    0.987096
     11          1           0        0.936810    0.941363    0.757981
     12          7           0        4.812594   -1.488580    0.109267
     13          8           0        4.298831   -2.446660    0.682651
     14          8           0        5.948780   -1.470174   -0.359112
     15          6           0       -5.294005   -0.539188   -0.230655
     16          6           0       -6.818558   -0.480002   -0.129566
     17          6           0       -7.498802   -1.713121   -0.724951
     18          1           0       -5.006670   -0.644664   -1.285765
     19          1           0       -4.934192   -1.441463    0.282987
     20          1           0       -7.175281    0.422617   -0.642055
     21          1           0       -7.102292   -0.374461    0.925408
     22          1           0       -7.171248   -2.620999   -0.208164
     23          1           0       -7.244653   -1.819392   -1.784533
     24          1           0       -8.588295   -1.649913   -0.642075
     25          6           0       -4.599640    0.686520    0.360301
     26          6           0       -3.075086    0.627335    0.259214
     27          6           0       -2.394843    1.860453    0.854597
     28          1           0       -4.959453    1.588795   -0.153340
     29          1           0       -4.886975    0.791996    1.415412
     30          1           0       -2.791353    0.521793   -0.795761
     31          1           0       -2.718364   -0.275285    0.771702
     32          1           0       -2.648992    1.966724    1.914180
     33          1           0       -2.722396    2.768331    0.337812
     34          1           0       -1.305349    1.797245    0.771722
 ---------------------------------------------------------------------

 SCF Done:  E(RHF) =  -669.535476397     A.U. after   15 cycles
 E2 =    -0.2090704492D+01 EUMP2 =    -0.67162618088966D+03

 The electronic state is 1-A.
 Alpha  occ. eigenvalues --  -20.60740 -20.60735 -15.85793 -11.31156 -11.27727
 Alpha  occ. eigenvalues --  -11.27721 -11.27465 -11.26742 -11.26720 -11.22407
 Alpha  occ. eigenvalues --  -11.22162 -11.21994 -11.21967 -11.21825 -11.21356
 Alpha  occ. eigenvalues --   -1.59815  -1.39369  -1.19329  -1.09004  -1.08725
 Alpha  occ. eigenvalues --   -1.04733  -1.04145  -0.96608  -0.95559  -0.87629
 Alpha  occ. eigenvalues --   -0.86133  -0.82392  -0.80211  -0.78774  -0.77442
 Alpha  occ. eigenvalues --   -0.72012  -0.71138  -0.70436  -0.65626  -0.64982
 Alpha  occ. eigenvalues --   -0.64776  -0.62122  -0.61529  -0.60008  -0.58203
 Alpha  occ. eigenvalues --   -0.55874  -0.55233  -0.53418  -0.53087  -0.53058
 Alpha  occ. eigenvalues --   -0.52679  -0.50527  -0.48774  -0.48767  -0.48520
 Alpha  occ. eigenvalues --   -0.47226  -0.46326  -0.46222  -0.44775  -0.44394
 Alpha  occ. eigenvalues --   -0.37310  -0.36335
 Alpha virt. eigenvalues --    0.05097   0.11309   0.16589   0.19478   0.22516
 Alpha virt. eigenvalues --    0.23744   0.25820   0.26129   0.26979   0.28149
 Alpha virt. eigenvalues --    0.28417   0.30334   0.30835   0.31540   0.31862

 Mulliken charges:
               1
     1  C   -0.172990
     2  C   -0.218641
     3  C   -0.171257
     4  C    0.158988
     5  C   -0.172258
     6  C   -0.225688
     7  H    0.225628
     8  H    0.223331
     9  H    0.275501
    10  H    0.276138
    11  H    0.233819
    12  N    0.487939
    13  O   -0.460451
    14  O   -0.460561
    15  C   -0.298937
    16  C   -0.300134
    17  C   -0.476078
    18  H    0.150578
    19  H    0.150805
    20  H    0.152192
    21  H    0.152538
    22  H    0.156110
    23  H    0.155762
    24  H    0.161360
    25  C   -0.298925
    26  C   -0.300153
    27  C   -0.479603
    28  H    0.150485
    29  H    0.151025
    30  H    0.153684
    31  H    0.152415
    32  H    0.159674
    33  H    0.158577
    34  H    0.149130
 Sum of Mulliken charges =  -0.00000

 Dipole moment (field-independent basis, Debye):
    X=             -3.0818    Y=              4.3190    Z=             -0.4985  Tot=              5.3292
 Quadrupole moment (field-independent basis, Debye-Ang):
   XX=           -114.6632   YY=            -96.9896   ZZ=            -93.5784
   XY=             19.6192   XZ=             -4.2125   YZ=             -2.0430

 Normal termination of Gaussian 16 at Thu May  6 19:22:39 2021.
