 Gaussian 16, Revision A.03,
 Gaussian 16:  EM64L-G16RevA.03 25-Dec-2016

 -------------
 #p 6-31g* mp2
 -------------

 ------------------------------------------------------
 Input file generated by CHIRIPA (05-May-2021 14:57:26)
 ------------------------------------------------------
 Symbolic Z-matrix:
 Charge =  0 Multiplicity = 1

                         Standard orientation:
 ---------------------------------------------------------------------
 Center     Atomic      Atomic             Coordinates (Angstroms)
 Number     Number       Type             X           Y           Z
 ---------------------------------------------------------------------
      1          6           0       -6.061785   -0.508353   -0.841266
      2          6           0       -5.802296    0.668976   -0.131982
      3          6           0       -4.531511    0.913814    0.396893
      4          6           0       -3.539149   -0.044544    0.196751
      5          6           0       -3.766623   -1.227180   -0.505330
      6          6           0       -5.044913   -1.451011   -1.025351
      7          1           0       -7.051876   -0.690390   -1.248669
      8          1           0       -6.590090    1.402829    0.012529
      9          1           0       -4.303216    1.816761    0.950052
     10          1           0       -2.961066   -1.940045   -0.633079
     11          1           0       -5.243563   -2.366231   -1.575766
     12          7           0       -2.189853    0.203535    0.751961
     13          8           0       -1.332673   -0.656548    0.561869
     14          8           0       -2.015005    1.253366    1.366713
     15          6           0        4.719268   -2.220979    0.254106
     16          6           0        5.514305   -1.211055   -0.297700
     17          6           0        4.994147    0.070560   -0.501292
     18          6           0        3.668939    0.308406   -0.139987
     19          6           0        2.851623   -0.676847    0.411884
     20          6           0        3.392803   -1.951127    0.606516
     21          1           0        5.131504   -3.213719    0.408781
     22          1           0        6.544789   -1.417756   -0.572328
     23          1           0        5.587402    0.870903   -0.926635
     24          1           0        1.827912   -0.440573    0.675717
     25          1           0        2.773036   -2.733509    1.035250
     26          7           0        3.107144    1.661312   -0.350777
     27          8           0        1.936655    1.845338   -0.024083
     28          8           0        3.847934    2.512075   -0.838698
 ---------------------------------------------------------------------

 SCF Done:  E(RHF) =  -868.338621484     A.U. after   16 cycles
 E2 =    -0.2599209802D+01 EUMP2 =    -0.87093783128595D+03

 The electronic state is 1-A.
 Alpha  occ. eigenvalues --  -20.60773 -20.60724 -20.59643 -20.59573 -15.85779
 Alpha  occ. eigenvalues --  -15.84660 -11.31133 -11.30075 -11.27723 -11.27671
 Alpha  occ. eigenvalues --  -11.27445 -11.26773 -11.26729 -11.26694 -11.26539
 Alpha  occ. eigenvalues --  -11.26482 -11.25812 -11.25673  -1.59784  -1.58697
 Alpha  occ. eigenvalues --   -1.39348  -1.38239  -1.19300  -1.18292  -1.08698
 Alpha  occ. eigenvalues --   -1.07702  -1.04705  -1.03689  -0.95537  -0.94505
 Alpha  occ. eigenvalues --   -0.86104  -0.85094  -0.82377  -0.81322  -0.77420
 Alpha  occ. eigenvalues --   -0.76333  -0.72011  -0.71091  -0.70869  -0.70415
 Alpha  occ. eigenvalues --   -0.70032  -0.69403  -0.64960  -0.64711  -0.63943
 Alpha  occ. eigenvalues --   -0.63703  -0.62054  -0.60993  -0.55210  -0.54249
 Alpha  occ. eigenvalues --   -0.53030  -0.52801  -0.52054  -0.51774  -0.48773
 Alpha  occ. eigenvalues --   -0.48717  -0.47672  -0.47607  -0.44752  -0.43635
 Alpha  occ. eigenvalues --   -0.37279  -0.36337  -0.36305  -0.35305
 Alpha virt. eigenvalues --    0.05125   0.06169   0.11350   0.12337   0.16614
 Alpha virt. eigenvalues --    0.17615   0.21458   0.22456   0.27374   0.28241
 Alpha virt. eigenvalues --    0.28447   0.29444   0.31018   0.31953   0.32580

 Mulliken charges:
               1
     1  C   -0.170699
     2  C   -0.218535
     3  C   -0.169940
     4  C    0.159033
     5  C   -0.170676
     6  C   -0.218465
     7  H    0.225459
     8  H    0.224014
     9  H    0.277625
    10  H    0.272962
    11  H    0.222560
    12  N    0.491359
    13  O   -0.470865
    14  O   -0.450029
    15  C   -0.171484
    16  C   -0.219998
    17  C   -0.171805
    18  C    0.155364
    19  C   -0.177839
    20  C   -0.221919
    21  H    0.221156
    22  H    0.218986
    23  H    0.272283
    24  H    0.299905
    25  H    0.223366
    26  N    0.486275
    27  O   -0.450216
    28  O   -0.467877
 Sum of Mulliken charges =  -0.00000

 Dipole moment (field-independent basis, Debye):
    X=             -3.2546    Y=             -5.4730    Z=             -1.0867  Tot=              6.4597
 Quadrupole moment (field-independent basis, Debye-Ang):
   XX=            -54.8454   YY=           -104.4735   ZZ=           -105.9312
   XY=            -13.9731   XZ=              6.2464   YZ=              2.2545

 Normal termination of Gaussian 16 at Fri May  7 03:33:10 2021.
