 Gaussian 16, Revision A.03,
 Gaussian 16:  EM64L-G16RevA.03 25-Dec-2016

 -------------
 #p 6-31g* mp2
 -------------

 ------------------------------------------------------
 Input file generated by CHIRIPA (05-May-2021 14:51:12)
 ------------------------------------------------------
 Symbolic Z-matrix:
 Charge =  0 Multiplicity = 1

                         Standard orientation:
 ---------------------------------------------------------------------
 Center     Atomic      Atomic             Coordinates (Angstroms)
 Number     Number       Type             X           Y           Z
 ---------------------------------------------------------------------
      1          6           0        2.935783   -0.379647   -0.805985
      2          6           0        3.140528   -1.737772   -0.134002
      3          6           0        2.982767   -2.907814   -1.105551
      4          1           0        1.935643   -0.349173   -1.259566
      5          1           0        3.655734   -0.273465   -1.629265
      6          1           0        2.421325   -1.840785    0.688647
      7          1           0        4.140224   -1.764946    0.318197
      8          1           0        3.709980   -2.832607   -1.920477
      9          1           0        1.981315   -2.908878   -1.547923
     10          1           0        3.133220   -3.869007   -0.604221
     11          6           0        3.090289    0.799902    0.152410
     12          6           0        2.885544    2.158027   -0.519573
     13          6           0        3.043305    3.328069    0.451976
     14          1           0        2.370338    0.693720    0.975691
     15          1           0        4.090429    0.769428    0.605991
     16          1           0        1.885848    2.185201   -0.971772
     17          1           0        3.604747    2.261040   -1.342222
     18          1           0        4.044757    3.329133    0.894348
     19          1           0        2.316091    3.252862    1.266903
     20          1           0        2.892852    4.289262   -0.049354
     21          6           0       -3.707280   -0.351220    0.041219
     22          6           0       -4.376173    0.883193   -0.564413
     23          6           0       -5.764406    0.584946   -1.131558
     24          1           0       -3.630948   -1.133017   -0.726838
     25          1           0       -4.349913   -0.755241    0.835690
     26          1           0       -3.731821    1.285575   -1.356571
     27          1           0       -4.450748    1.662212    0.205123
     28          1           0       -6.427267    0.204633   -0.347608
     29          1           0       -5.704255   -0.174143   -1.918176
     30          1           0       -6.224323    1.481194   -1.559432
     31          6           0       -2.318791   -0.069035    0.612356
     32          6           0       -1.649898   -1.303448    1.217987
     33          6           0       -0.261667   -1.005201    1.785133
     34          1           0       -1.676159    0.334985   -0.182116
     35          1           0       -2.395123    0.712762    1.380413
     36          1           0       -1.575323   -2.082467    0.448452
     37          1           0       -2.294252   -1.705831    2.010145
     38          1           0       -0.321817   -0.246112    2.571751
     39          1           0        0.401195   -0.624888    1.001184
     40          1           0        0.198251   -1.901449    2.213007
 ---------------------------------------------------------------------

 SCF Done:  E(RHF) =  -470.732102504     A.U. after   11 cycles
 E2 =    -0.1584225992D+01 EUMP2 =    -0.47231632849657D+03

 The electronic state is 1-A.
 Alpha  occ. eigenvalues --  -11.21682 -11.21644 -11.21576 -11.21478 -11.21476
 Alpha  occ. eigenvalues --  -11.21411 -11.21373 -11.21294 -11.21140 -11.21102
 Alpha  occ. eigenvalues --  -11.21043 -11.21032  -1.08509  -1.08393  -1.03608
 Alpha  occ. eigenvalues --   -1.03479  -0.96066  -0.95940  -0.87092  -0.86953
 Alpha  occ. eigenvalues --   -0.79696  -0.79541  -0.78331  -0.78181  -0.65327
 Alpha  occ. eigenvalues --   -0.64929  -0.61119  -0.60769  -0.59436  -0.59294
 Alpha  occ. eigenvalues --   -0.57704  -0.57522  -0.55430  -0.55156  -0.52781
 Alpha  occ. eigenvalues --   -0.52636  -0.52474  -0.52344  -0.50080  -0.49828
 Alpha  occ. eigenvalues --   -0.48010  -0.47859  -0.46790  -0.46543  -0.45949
 Alpha  occ. eigenvalues --   -0.45800  -0.45717  -0.45384  -0.43829  -0.43738
 Alpha virt. eigenvalues --    0.20577   0.23163   0.23979   0.25066   0.25855
 Alpha virt. eigenvalues --    0.26012   0.27046   0.27713   0.28180   0.29641
 Alpha virt. eigenvalues --    0.30702   0.31199   0.31830   0.31848   0.32318

 Mulliken charges:
               1
     1  C   -0.300096
     2  C   -0.306112
     3  C   -0.475146
     4  H    0.147625
     5  H    0.150475
     6  H    0.160187
     7  H    0.151509
     8  H    0.154903
     9  H    0.154173
    10  H    0.159945
    11  C   -0.303751
    12  C   -0.299177
    13  C   -0.475711
    14  H    0.154886
    15  H    0.149948
    16  H    0.151170
    17  H    0.151851
    18  H    0.155136
    19  H    0.155498
    20  H    0.160074
    21  C   -0.298353
    22  C   -0.299720
    23  C   -0.475756
    24  H    0.149794
    25  H    0.149809
    26  H    0.151952
    27  H    0.152047
    28  H    0.155267
    29  H    0.155275
    30  H    0.160429
    31  C   -0.298671
    32  C   -0.299694
    33  C   -0.484594
    34  H    0.148913
    35  H    0.149876
    36  H    0.152113
    37  H    0.152353
    38  H    0.155187
    39  H    0.165106
    40  H    0.161276
 Sum of Mulliken charges =  -0.00000

 Dipole moment (field-independent basis, Debye):
    X=             -0.0354    Y=             -0.0023    Z=              0.0451  Tot=              0.0573
 Quadrupole moment (field-independent basis, Debye-Ang):
   XX=            -84.6927   YY=            -85.7068   ZZ=            -84.4523
   XY=             -0.1615   XZ=             -1.0221   YZ=             -0.4207

 Normal termination of Gaussian 16 at Thu May  6 00:45:00 2021.
