 Gaussian 16, Revision A.03,
 Gaussian 16:  EM64L-G16RevA.03 25-Dec-2016

 -------------
 #p 6-31g* mp2
 -------------

 ------------------------------------------------------
 Input file generated by CHIRIPA (05-May-2021 14:53:17)
 ------------------------------------------------------
 Symbolic Z-matrix:
 Charge =  0 Multiplicity = 1

                         Standard orientation:
 ---------------------------------------------------------------------
 Center     Atomic      Atomic             Coordinates (Angstroms)
 Number     Number       Type             X           Y           Z
 ---------------------------------------------------------------------
      1          6           0        3.207621    0.963641   -0.305798
      2          6           0        2.405642    1.605532    0.826805
      3          6           0        1.786837    2.945422    0.427342
      4          1           0        4.000187    1.655156   -0.622958
      5          1           0        2.551134    0.820703   -1.175274
      6          1           0        3.063100    1.745948    1.694358
      7          1           0        1.615012    0.912330    1.141435
      8          1           0        1.108955    2.818465   -0.422928
      9          1           0        2.565270    3.656819    0.133137
     10          1           0        1.218051    3.386645    1.251759
     11          6           0        3.832433   -0.376453    0.078242
     12          6           0        4.634412   -1.018345   -1.054362
     13          6           0        5.253217   -2.358234   -0.654898
     14          1           0        4.488920   -0.233515    0.947718
     15          1           0        3.039866   -1.067968    0.395401
     16          1           0        5.425041   -0.325143   -1.368991
     17          1           0        3.976954   -1.158761   -1.921915
     18          1           0        4.474784   -3.069632   -0.360694
     19          1           0        5.931098   -2.231277    0.195372
     20          1           0        5.822003   -2.799458   -1.479316
     21          6           0       -1.790197   -0.706129    2.373044
     22          6           0       -1.350181    0.405486    1.646946
     23          6           0       -1.875006    0.679356    0.380415
     24          6           0       -2.842813   -0.183279   -0.131935
     25          6           0       -3.301622   -1.298741    0.567015
     26          6           0       -2.762798   -1.553201    1.831715
     27          1           0       -1.377064   -0.911339    3.356205
     28          1           0       -0.594958    1.065060    2.064853
     29          1           0       -1.552368    1.532932   -0.203307
     30          1           0       -4.055652   -1.938037    0.124120
     31          1           0       -3.106409   -2.417230    2.393348
     32          7           0       -3.405831    0.096381   -1.471785
     33          8           0       -4.257468   -0.678967   -1.900958
     34          8           0       -2.984828    1.085631   -2.067418
 ---------------------------------------------------------------------

 SCF Done:  E(RHF) =  -669.535426885     A.U. after   15 cycles
 E2 =    -0.2092017813D+01 EUMP2 =    -0.67162744469760D+03

 The electronic state is 1-A.
 Alpha  occ. eigenvalues --  -20.60784 -20.60779 -15.85837 -11.31204 -11.27781
 Alpha  occ. eigenvalues --  -11.27765 -11.27515 -11.26791 -11.26746 -11.22303
 Alpha  occ. eigenvalues --  -11.21862 -11.21849 -11.21835 -11.21739 -11.21302
 Alpha  occ. eigenvalues --   -1.59859  -1.39413  -1.19380  -1.08890  -1.08771
 Alpha  occ. eigenvalues --   -1.04786  -1.04019  -0.96462  -0.95606  -0.87475
 Alpha  occ. eigenvalues --   -0.86180  -0.82440  -0.80098  -0.78678  -0.77484
 Alpha  occ. eigenvalues --   -0.72055  -0.71183  -0.70485  -0.65562  -0.65025
 Alpha  occ. eigenvalues --   -0.64777  -0.62237  -0.61313  -0.59846  -0.58067
 Alpha  occ. eigenvalues --   -0.55744  -0.55261  -0.53177  -0.53116  -0.52924
 Alpha  occ. eigenvalues --   -0.52832  -0.50386  -0.48818  -0.48810  -0.48398
 Alpha  occ. eigenvalues --   -0.47107  -0.46218  -0.46112  -0.44818  -0.44254
 Alpha  occ. eigenvalues --   -0.37358  -0.36364
 Alpha virt. eigenvalues --    0.05033   0.11189   0.16416   0.19653   0.22763
 Alpha virt. eigenvalues --    0.23737   0.25876   0.26050   0.26722   0.28063
 Alpha virt. eigenvalues --    0.28992   0.30079   0.31327   0.31537   0.32264

 Mulliken charges:
               1
     1  C   -0.298333
     2  C   -0.306261
     3  C   -0.481111
     4  H    0.151890
     5  H    0.153740
     6  H    0.152889
     7  H    0.147882
     8  H    0.158356
     9  H    0.162188
    10  H    0.155230
    11  C   -0.298851
    12  C   -0.300362
    13  C   -0.475955
    14  H    0.148794
    15  H    0.149348
    16  H    0.152826
    17  H    0.154549
    18  H    0.154984
    19  H    0.154677
    20  H    0.161870
    21  C   -0.172291
    22  C   -0.220928
    23  C   -0.174329
    24  C    0.158775
    25  C   -0.170584
    26  C   -0.218633
    27  H    0.226051
    28  H    0.229246
    29  H    0.277980
    30  H    0.275677
    31  H    0.223509
    32  N    0.488019
    33  O   -0.460393
    34  O   -0.460451
 Sum of Mulliken charges =  -0.00000

 Dipole moment (field-independent basis, Debye):
    X=              2.0880    Y=             -0.9953    Z=              4.6450  Tot=              5.1891
 Quadrupole moment (field-independent basis, Debye-Ang):
   XX=           -104.0228   YY=            -92.0110   ZZ=            -96.5701
   XY=              6.2546   XZ=            -14.0986   YZ=             -0.9761

 Normal termination of Gaussian 16 at Wed May  5 23:36:20 2021.
