 Gaussian 16, Revision A.03,
 Gaussian 16:  EM64L-G16RevA.03 25-Dec-2016

 -------------
 #p 6-31g* mp2
 -------------

 ------------------------------------------------------
 Input file generated by CHIRIPA (05-May-2021 14:51:13)
 ------------------------------------------------------
 Symbolic Z-matrix:
 Charge =  0 Multiplicity = 1

                         Standard orientation:
 ---------------------------------------------------------------------
 Center     Atomic      Atomic             Coordinates (Angstroms)
 Number     Number       Type             X           Y           Z
 ---------------------------------------------------------------------
      1          6           0       -4.131270   -0.723394   -0.073004
      2          6           0       -5.563303   -1.237633    0.078073
      3          6           0       -5.634764   -2.759889    0.202263
      4          1           0       -3.673462   -1.186775   -0.957671
      5          1           0       -3.538626   -1.049795    0.792808
      6          1           0       -6.153417   -0.909188   -0.787089
      7          1           0       -6.017818   -0.772827    0.962374
      8          1           0       -5.069995   -3.102099    1.075493
      9          1           0       -5.206365   -3.239235   -0.683910
     10          1           0       -6.667562   -3.105914    0.309285
     11          6           0       -4.043450    0.796580   -0.198284
     12          6           0       -2.611417    1.310818   -0.349362
     13          6           0       -2.539956    2.833074   -0.473552
     14          1           0       -4.636094    1.122980   -1.064097
     15          1           0       -4.501258    1.259961    0.686382
     16          1           0       -2.156902    0.846012   -1.233662
     17          1           0       -2.021303    0.982373    0.515800
     18          1           0       -2.968355    3.312420    0.412621
     19          1           0       -3.104724    3.175285   -1.346781
     20          1           0       -1.507157    3.179099   -0.580574
     21          6           0        3.682464    0.576330    0.344972
     22          6           0        2.173771    0.328488    0.365050
     23          6           0        1.377284    1.563965    0.785761
     24          1           0        4.007491    0.901649    1.342704
     25          1           0        3.901589    1.406156   -0.341155
     26          1           0        1.957694   -0.501532    1.049880
     27          1           0        1.852330    0.003537   -0.632797
     28          1           0        1.563585    2.395063    0.097889
     29          1           0        1.669548    1.887125    1.790128
     30          1           0        0.301172    1.364499    0.793273
     31          6           0        4.492255   -0.649515   -0.073682
     32          6           0        6.000949   -0.401674   -0.093761
     33          6           0        6.797436   -1.637150   -0.514473
     34          1           0        4.273131   -1.479342    0.612443
     35          1           0        4.167229   -0.974835   -1.071416
     36          1           0        6.322391   -0.076722    0.904086
     37          1           0        6.217026    0.428347   -0.778592
     38          1           0        6.505171   -1.960310   -1.518838
     39          1           0        6.611134   -2.468249    0.173399
     40          1           0        7.873548   -1.437684   -0.521984
 ---------------------------------------------------------------------

 SCF Done:  E(RHF) =  -470.733157111     A.U. after   11 cycles
 E2 =    -0.1582674349D+01 EUMP2 =    -0.47231583146059D+03

 The electronic state is 1-A.
 Alpha  occ. eigenvalues --  -11.21612 -11.21604 -11.21592 -11.21577 -11.21409
 Alpha  occ. eigenvalues --  -11.21389 -11.21349 -11.21330 -11.21073 -11.21064
 Alpha  occ. eigenvalues --  -11.21038 -11.21007  -1.08440  -1.08409  -1.03556
 Alpha  occ. eigenvalues --   -1.03488  -0.96012  -0.95924  -0.86996  -0.86974
 Alpha  occ. eigenvalues --   -0.79629  -0.79548  -0.78254  -0.78225  -0.65073
 Alpha  occ. eigenvalues --   -0.65044  -0.60959  -0.60910  -0.59574  -0.59142
 Alpha  occ. eigenvalues --   -0.57728  -0.57409  -0.55262  -0.55245  -0.52760
 Alpha  occ. eigenvalues --   -0.52570  -0.52389  -0.52372  -0.49916  -0.49898
 Alpha  occ. eigenvalues --   -0.48014  -0.47800  -0.46623  -0.46607  -0.45797
 Alpha  occ. eigenvalues --   -0.45765  -0.45707  -0.45693  -0.43788  -0.43720
 Alpha virt. eigenvalues --    0.21784   0.23038   0.23413   0.25053   0.26333
 Alpha virt. eigenvalues --    0.26609   0.26993   0.27230   0.27858   0.28921
 Alpha virt. eigenvalues --    0.30154   0.30983   0.31480   0.31743   0.32375

 Mulliken charges:
               1
     1  C   -0.298394
     2  C   -0.299651
     3  C   -0.475709
     4  H    0.149676
     5  H    0.149480
     6  H    0.151953
     7  H    0.151966
     8  H    0.155184
     9  H    0.155191
    10  H    0.160266
    11  C   -0.297538
    12  C   -0.303313
    13  C   -0.477821
    14  H    0.149599
    15  H    0.149722
    16  H    0.152123
    17  H    0.153876
    18  H    0.155123
    19  H    0.155080
    20  H    0.163215
    21  C   -0.298441
    22  C   -0.298820
    23  C   -0.484897
    24  H    0.149560
    25  H    0.149437
    26  H    0.151577
    27  H    0.152011
    28  H    0.154578
    29  H    0.154682
    30  H    0.170383
    31  C   -0.298204
    32  C   -0.299623
    33  C   -0.475689
    34  H    0.149475
    35  H    0.149594
    36  H    0.151912
    37  H    0.151901
    38  H    0.155153
    39  H    0.155164
    40  H    0.160217
 Sum of Mulliken charges =  -0.00000

 Dipole moment (field-independent basis, Debye):
    X=             -0.0199    Y=              0.0014    Z=             -0.0029  Tot=              0.0201
 Quadrupole moment (field-independent basis, Debye-Ang):
   XX=            -85.4342   YY=            -86.5505   ZZ=            -82.8458
   XY=              0.3022   XZ=              0.3561   YZ=             -0.3416

 Normal termination of Gaussian 16 at Wed May  5 21:35:24 2021.
