 Gaussian 16, Revision A.03,
 Gaussian 16:  EM64L-G16RevA.03 25-Dec-2016

 -------------
 #p 6-31g* mp2
 -------------

 ------------------------------------------------------
 Input file generated by CHIRIPA (05-May-2021 14:55:23)
 ------------------------------------------------------
 Symbolic Z-matrix:
 Charge =  0 Multiplicity = 1

                         Standard orientation:
 ---------------------------------------------------------------------
 Center     Atomic      Atomic             Coordinates (Angstroms)
 Number     Number       Type             X           Y           Z
 ---------------------------------------------------------------------
      1          6           0       -1.318860   -1.238428   -0.280670
      2          6           0       -2.400287   -2.111029   -0.120654
      3          6           0       -3.698706   -1.613412    0.024375
      4          6           0       -3.880263   -0.231407    0.004658
      5          6           0       -2.823238    0.663647   -0.153031
      6          6           0       -1.533409    0.143688   -0.296320
      7          1           0       -0.313553   -1.633666   -0.392657
      8          1           0       -2.236644   -3.184858   -0.108119
      9          1           0       -4.553935   -2.266309    0.149788
     10          1           0       -3.017750    1.729251   -0.161508
     11          1           0       -0.695448    0.823735   -0.420430
     12          7           0       -5.250295    0.307223    0.157273
     13          8           0       -5.383751    1.528859    0.136509
     14          8           0       -6.164728   -0.502434    0.294767
     15          6           0        4.044628    0.695856   -0.291291
     16          6           0        3.562584    1.985850    0.373189
     17          6           0        2.295140    2.545866   -0.273154
     18          1           0        4.228592    0.886678   -1.357448
     19          1           0        3.244082   -0.055188   -0.241763
     20          1           0        4.364299    2.733790    0.323650
     21          1           0        3.379930    1.791983    1.437928
     22          1           0        1.477884    1.820056   -0.210740
     23          1           0        2.467846    2.767215   -1.331350
     24          1           0        1.968129    3.467994    0.217360
     25          6           0        5.310804    0.123805    0.343758
     26          6           0        5.792848   -1.166188   -0.320723
     27          6           0        7.060293   -1.726204    0.325621
     28          1           0        6.111350    0.874849    0.294230
     29          1           0        5.126840   -0.067017    1.409915
     30          1           0        5.975501   -0.972321   -1.385462
     31          1           0        4.991132   -1.914128   -0.271183
     32          1           0        6.887586   -1.947553    1.383816
     33          1           0        7.877548   -1.000395    0.263206
     34          1           0        7.387302   -2.648333   -0.164893
 ---------------------------------------------------------------------

 SCF Done:  E(RHF) =  -669.535502979     A.U. after   15 cycles
 E2 =    -0.2090849262D+01 EUMP2 =    -0.67162635224090D+03

 The electronic state is 1-A.
 Alpha  occ. eigenvalues --  -20.60735 -20.60730 -15.85788 -11.31153 -11.27724
 Alpha  occ. eigenvalues --  -11.27713 -11.27469 -11.26744 -11.26711 -11.22457
 Alpha  occ. eigenvalues --  -11.22245 -11.22236 -11.22147 -11.22059 -11.21597
 Alpha  occ. eigenvalues --   -1.59811  -1.39364  -1.19326  -1.09201  -1.08723
 Alpha  occ. eigenvalues --   -1.04729  -1.04298  -0.96762  -0.95557  -0.87781
 Alpha  occ. eigenvalues --   -0.86130  -0.82389  -0.80366  -0.79002  -0.77436
 Alpha  occ. eigenvalues --   -0.72007  -0.71134  -0.70438  -0.65841  -0.64978
 Alpha  occ. eigenvalues --   -0.64753  -0.62128  -0.61656  -0.60122  -0.58358
 Alpha  occ. eigenvalues --   -0.56079  -0.55230  -0.53443  -0.53246  -0.53059
 Alpha  occ. eigenvalues --   -0.52770  -0.50692  -0.48784  -0.48762  -0.48657
 Alpha  occ. eigenvalues --   -0.47391  -0.46548  -0.46461  -0.44770  -0.44546
 Alpha  occ. eigenvalues --   -0.37311  -0.36330
 Alpha virt. eigenvalues --    0.05099   0.11313   0.16589   0.19395   0.22435
 Alpha virt. eigenvalues --    0.23708   0.25125   0.25946   0.26610   0.28270
 Alpha virt. eigenvalues --    0.28706   0.29926   0.30978   0.31319   0.31765

 Mulliken charges:
               1
     1  C   -0.173705
     2  C   -0.218545
     3  C   -0.171266
     4  C    0.159013
     5  C   -0.173241
     6  C   -0.226993
     7  H    0.225220
     8  H    0.223242
     9  H    0.275469
    10  H    0.276461
    11  H    0.236517
    12  N    0.487988
    13  O   -0.460345
    14  O   -0.460635
    15  C   -0.296966
    16  C   -0.299948
    17  C   -0.480896
    18  H    0.151548
    19  H    0.141760
    20  H    0.156295
    21  H    0.154083
    22  H    0.145903
    23  H    0.159093
    24  H    0.165441
    25  C   -0.298947
    26  C   -0.299643
    27  C   -0.476103
    28  H    0.152047
    29  H    0.150715
    30  H    0.152962
    31  H    0.149423
    32  H    0.155852
    33  H    0.156716
    34  H    0.161486
 Sum of Mulliken charges =  -0.00000

 Dipole moment (field-independent basis, Debye):
    X=              5.0612    Y=             -1.8263    Z=             -0.5236  Tot=              5.4060
 Quadrupole moment (field-independent basis, Debye-Ang):
   XX=           -131.6787   YY=            -89.2693   ZZ=            -95.3315
   XY=              9.2623   XZ=              1.3158   YZ=             -0.4422

 Normal termination of Gaussian 16 at Wed May  5 20:42:37 2021.
