 Gaussian 16, Revision A.03,
 Gaussian 16:  EM64L-G16RevA.03 25-Dec-2016

 -------------
 #p 6-31g* mp2
 -------------

 ------------------------------------------------------
 Input file generated by CHIRIPA (05-May-2021 14:53:13)
 ------------------------------------------------------
 Symbolic Z-matrix:
 Charge =  0 Multiplicity = 1

                         Standard orientation:
 ---------------------------------------------------------------------
 Center     Atomic      Atomic             Coordinates (Angstroms)
 Number     Number       Type             X           Y           Z
 ---------------------------------------------------------------------
      1          6           0       -4.059480    0.146528    0.390626
      2          6           0       -4.626157   -0.964805   -0.493568
      3          6           0       -5.671421   -1.817684    0.226025
      4          1           0       -3.614111   -0.300363    1.290004
      5          1           0       -4.882966    0.787353    0.735023
      6          1           0       -3.801683   -1.602530   -0.837320
      7          1           0       -5.070059   -0.515230   -1.391037
      8          1           0       -6.513019   -1.199456    0.554824
      9          1           0       -5.237437   -2.292934    1.111687
     10          1           0       -6.063229   -2.605949   -0.424347
     11          6           0       -3.013285    1.007756   -0.314705
     12          6           0       -2.446608    2.119089    0.569490
     13          6           0       -1.401344    2.971968   -0.150104
     14          1           0       -2.189799    0.366931   -0.659101
     15          1           0       -3.458654    1.454648   -1.214082
     16          1           0       -2.002707    1.669514    1.466959
     17          1           0       -3.271082    2.756815    0.913242
     18          1           0       -1.835328    3.447219   -1.035765
     19          1           0       -0.559746    2.353741   -0.478902
     20          1           0       -1.009536    3.760234    0.500269
     21          6           0        3.929788    1.785908   -0.001643
     22          6           0        4.657118    0.613943    0.230763
     23          6           0        4.020922   -0.630899    0.217621
     24          6           0        2.649979   -0.667138   -0.032365
     25          6           0        1.897896    0.482808   -0.267495
     26          6           0        2.554922    1.716721   -0.249593
     27          1           0        4.432092    2.748685    0.010415
     28          1           0        5.724961    0.664649    0.423596
     29          1           0        4.559795   -1.553823    0.394384
     30          1           0        0.834519    0.400400   -0.456849
     31          1           0        1.987533    2.625247   -0.430413
     32          7           0        1.965440   -1.979211   -0.048798
     33          8           0        0.756708   -1.984240   -0.271460
     34          8           0        2.650593   -2.977743    0.161295
 ---------------------------------------------------------------------

 SCF Done:  E(RHF) =  -669.535331945     A.U. after   15 cycles
 E2 =    -0.2092025596D+01 EUMP2 =    -0.67162735754107D+03

 The electronic state is 1-A.
 Alpha  occ. eigenvalues --  -20.60809 -20.60803 -15.85857 -11.31184 -11.27746
 Alpha  occ. eigenvalues --  -11.27731 -11.27476 -11.26759 -11.26712 -11.21932
 Alpha  occ. eigenvalues --  -11.21847 -11.21412 -11.21244 -11.21173 -11.20706
 Alpha  occ. eigenvalues --   -1.59880  -1.39435  -1.19350  -1.08751  -1.08420
 Alpha  occ. eigenvalues --   -1.04754  -1.03586  -0.96072  -0.95595  -0.87102
 Alpha  occ. eigenvalues --   -0.86147  -0.82434  -0.79676  -0.78159  -0.77480
 Alpha  occ. eigenvalues --   -0.72079  -0.71200  -0.70477  -0.65093  -0.64981
 Alpha  occ. eigenvalues --   -0.64746  -0.62210  -0.60900  -0.59485  -0.57634
 Alpha  occ. eigenvalues --   -0.55437  -0.55173  -0.53078  -0.52916  -0.52715
 Alpha  occ. eigenvalues --   -0.52491  -0.50026  -0.48832  -0.48827  -0.47974
 Alpha  occ. eigenvalues --   -0.46673  -0.45716  -0.45570  -0.44849  -0.43803
 Alpha  occ. eigenvalues --   -0.37329  -0.36346
 Alpha virt. eigenvalues --    0.05047   0.11304   0.16545   0.19486   0.22864
 Alpha virt. eigenvalues --    0.24083   0.25769   0.26208   0.27309   0.28256
 Alpha virt. eigenvalues --    0.29667   0.30234   0.31350   0.31530   0.32244

 Mulliken charges:
               1
     1  C   -0.298140
     2  C   -0.301853
     3  C   -0.475970
     4  H    0.153388
     5  H    0.147587
     6  H    0.160926
     7  H    0.149645
     8  H    0.152772
     9  H    0.157341
    10  H    0.160840
    11  C   -0.303368
    12  C   -0.300438
    13  C   -0.480236
    14  H    0.156858
    15  H    0.149040
    16  H    0.154853
    17  H    0.154321
    18  H    0.159641
    19  H    0.144317
    20  H    0.159819
    21  C   -0.170686
    22  C   -0.218775
    23  C   -0.170672
    24  C    0.159632
    25  C   -0.178597
    26  C   -0.221986
    27  H    0.225718
    28  H    0.223422
    29  H    0.275416
    30  H    0.281173
    31  H    0.227868
    32  N    0.488641
    33  O   -0.462509
    34  O   -0.459989
 Sum of Mulliken charges =  -0.00000

 Dipole moment (field-independent basis, Debye):
    X=              2.3152    Y=              4.5494    Z=              0.0845  Tot=              5.1053
 Quadrupole moment (field-independent basis, Debye-Ang):
   XX=            -78.1150   YY=           -100.4990   ZZ=            -95.4851
   XY=              7.6728   XZ=              1.6016   YZ=             -0.6126

 Normal termination of Gaussian 16 at Wed May  5 21:48:26 2021.
