 Gaussian 16, Revision A.03,
 Gaussian 16:  EM64L-G16RevA.03 25-Dec-2016

 -------------
 #p 6-31g* mp2
 -------------

 ------------------------------------------------------
 Input file generated by CHIRIPA (05-May-2021 14:51:09)
 ------------------------------------------------------
 Symbolic Z-matrix:
 Charge =  0 Multiplicity = 1

                         Standard orientation:
 ---------------------------------------------------------------------
 Center     Atomic      Atomic             Coordinates (Angstroms)
 Number     Number       Type             X           Y           Z
 ---------------------------------------------------------------------
      1          6           0        3.711436   -0.335082   -0.342986
      2          6           0        5.180457   -0.588285   -0.683353
      3          6           0        5.497879   -2.072938   -0.864573
      4          1           0        3.455022   -0.881063    0.575220
      5          1           0        3.080493   -0.751188   -1.140584
      6          1           0        5.808494   -0.170603    0.113972
      7          1           0        5.433454   -0.041484   -1.600750
      8          1           0        4.895974   -2.499635   -1.673425
      9          1           0        5.273145   -2.629488    0.051040
     10          1           0        6.553300   -2.231109   -1.107323
     11          6           0        3.378564    1.144441   -0.158773
     12          6           0        1.909542    1.397644    0.181594
     13          6           0        1.592120    2.882298    0.362815
     14          1           0        4.009506    1.560548    0.638825
     15          1           0        3.634977    1.690422   -1.076979
     16          1           0        1.656545    0.850843    1.098991
     17          1           0        1.281505    0.979962   -0.615731
     18          1           0        1.816855    3.438847   -0.552799
     19          1           0        2.194025    3.308995    1.171666
     20          1           0        0.536699    3.040469    0.605564
     21          6           0       -2.975800   -0.142040    0.687301
     22          6           0       -2.262303   -1.239047    1.478174
     23          6           0       -1.126055   -0.697990    2.346500
     24          1           0       -2.244792    0.379166    0.054122
     25          1           0       -3.372505    0.606127    1.387491
     26          1           0       -1.868258   -1.985640    0.776786
     27          1           0       -2.995129   -1.757829    2.109401
     28          1           0       -1.506867    0.031495    3.068606
     29          1           0       -0.373594   -0.197612    1.728419
     30          1           0       -0.629748   -1.499056    2.903125
     31          6           0       -4.114199   -0.667320   -0.185543
     32          6           0       -4.827696    0.429689   -0.976415
     33          6           0       -5.963944   -0.111370   -1.844741
     34          1           0       -3.717494   -1.415487   -0.885732
     35          1           0       -4.845208   -1.188526    0.447637
     36          1           0       -4.094870    0.948470   -1.607642
     37          1           0       -5.221740    1.176281   -0.275027
     38          1           0       -6.716405   -0.611748   -1.226660
     39          1           0       -5.583132   -0.840854   -2.566847
     40          1           0       -6.460251    0.689698   -2.401366
 ---------------------------------------------------------------------

 SCF Done:  E(RHF) =  -470.733285726     A.U. after   11 cycles
 E2 =    -0.1582674579D+01 EUMP2 =    -0.47231596030513D+03

 The electronic state is 1-A.
 Alpha  occ. eigenvalues --  -11.21635 -11.21615 -11.21595 -11.21568 -11.21427
 Alpha  occ. eigenvalues --  -11.21390 -11.21367 -11.21330 -11.21089 -11.21082
 Alpha  occ. eigenvalues --  -11.21067 -11.20989  -1.08457  -1.08409  -1.03564
 Alpha  occ. eigenvalues --   -1.03496  -0.96003  -0.95951  -0.87023  -0.86966
 Alpha  occ. eigenvalues --   -0.79680  -0.79522  -0.78297  -0.78199  -0.65099
 Alpha  occ. eigenvalues --   -0.65031  -0.61012  -0.60860  -0.59395  -0.59301
 Alpha  occ. eigenvalues --   -0.57667  -0.57513  -0.55316  -0.55213  -0.52695
 Alpha  occ. eigenvalues --   -0.52649  -0.52438  -0.52371  -0.50018  -0.49854
 Alpha  occ. eigenvalues --   -0.48064  -0.47778  -0.46746  -0.46511  -0.45886
 Alpha  occ. eigenvalues --   -0.45749  -0.45712  -0.45545  -0.43803  -0.43764
 Alpha virt. eigenvalues --    0.21583   0.23069   0.23554   0.24853   0.25990
 Alpha virt. eigenvalues --    0.26271   0.27126   0.27588   0.28111   0.28901
 Alpha virt. eigenvalues --    0.30589   0.31171   0.31743   0.31791   0.31997

 Mulliken charges:
               1
     1  C   -0.298522
     2  C   -0.299661
     3  C   -0.475725
     4  H    0.150008
     5  H    0.149225
     6  H    0.152044
     7  H    0.151945
     8  H    0.155109
     9  H    0.155294
    10  H    0.160311
    11  C   -0.297422
    12  C   -0.305965
    13  C   -0.476110
    14  H    0.149771
    15  H    0.149670
    16  H    0.157966
    17  H    0.150947
    18  H    0.155238
    19  H    0.155477
    20  H    0.161122
    21  C   -0.298764
    22  C   -0.298877
    23  C   -0.484440
    24  H    0.149894
    25  H    0.149359
    26  H    0.151851
    27  H    0.151673
    28  H    0.154594
    29  H    0.164663
    30  H    0.159480
    31  C   -0.298276
    32  C   -0.299643
    33  C   -0.475690
    34  H    0.149463
    35  H    0.149680
    36  H    0.151847
    37  H    0.151918
    38  H    0.155192
    39  H    0.155132
    40  H    0.160220
 Sum of Mulliken charges =  -0.00000

 Dipole moment (field-independent basis, Debye):
    X=              0.0308    Y=              0.0142    Z=              0.0001  Tot=              0.0339
 Quadrupole moment (field-independent basis, Debye-Ang):
   XX=            -85.1862   YY=            -85.8994   ZZ=            -83.7100
   XY=              0.0919   XZ=             -0.7524   YZ=             -0.2611

 Normal termination of Gaussian 16 at Thu May  6 05:18:58 2021.
