 Gaussian 16, Revision A.03,
 Gaussian 16:  EM64L-G16RevA.03 25-Dec-2016

 -------------
 #p 6-31g* mp2
 -------------

 ------------------------------------------------------
 Input file generated by CHIRIPA (05-May-2021 14:53:14)
 ------------------------------------------------------
 Symbolic Z-matrix:
 Charge =  0 Multiplicity = 1

                         Standard orientation:
 ---------------------------------------------------------------------
 Center     Atomic      Atomic             Coordinates (Angstroms)
 Number     Number       Type             X           Y           Z
 ---------------------------------------------------------------------
      1          6           0        3.752094    0.422081   -0.519018
      2          6           0        3.569914    1.924325   -0.299795
      3          6           0        2.308782    2.470834   -0.969622
      4          1           0        3.790032    0.217339   -1.597715
      5          1           0        2.870918   -0.107523   -0.131149
      6          1           0        4.451789    2.450830   -0.686713
      7          1           0        3.532598    2.125538    0.778508
      8          1           0        1.416913    1.971945   -0.576837
      9          1           0        2.341327    2.299086   -2.050384
     10          1           0        2.198182    3.546439   -0.800212
     11          6           0        5.008483   -0.139018    0.144595
     12          6           0        5.190662   -1.641261   -0.074629
     13          6           0        6.451794   -2.187770    0.595199
     14          1           0        5.889659    0.390587   -0.243274
     15          1           0        4.970545    0.065724    1.223291
     16          1           0        5.227979   -1.842474   -1.152932
     17          1           0        4.308788   -2.167767    0.312289
     18          1           0        6.419250   -2.016022    1.675960
     19          1           0        7.343664   -1.688881    0.202414
     20          1           0        6.562395   -3.263375    0.425788
     21          6           0       -5.574477   -1.029859   -0.796136
     22          6           0       -4.421840   -0.995768   -1.587834
     23          6           0       -3.223736   -0.488595   -1.076104
     24          6           0       -3.214016   -0.021699    0.237366
     25          6           0       -4.345713   -0.042304    1.051080
     26          6           0       -5.532808   -0.553857    0.518477
     27          1           0       -6.500917   -1.425544   -1.201768
     28          1           0       -4.451260   -1.364757   -2.609121
     29          1           0       -2.316663   -0.450416   -1.667017
     30          1           0       -4.285398    0.332691    2.065555
     31          1           0       -6.426416   -0.579096    1.135625
     32          7           0       -1.951464    0.517541    0.790161
     33          8           0       -1.969063    0.922825    1.950365
     34          8           0       -0.968183    0.524704    0.052772
 ---------------------------------------------------------------------

 SCF Done:  E(RHF) =  -669.536429697     A.U. after   15 cycles
 E2 =    -0.2090797841D+01 EUMP2 =    -0.67162722753789D+03

 The electronic state is 1-A.
 Alpha  occ. eigenvalues --  -20.61004 -20.60994 -15.86033 -11.31321 -11.27881
 Alpha  occ. eigenvalues --  -11.27875 -11.27615 -11.26882 -11.26872 -11.20914
 Alpha  occ. eigenvalues --  -11.20529 -11.20509 -11.20397 -11.20267 -11.19516
 Alpha  occ. eigenvalues --   -1.60059  -1.39616  -1.19486  -1.08897  -1.07465
 Alpha  occ. eigenvalues --   -1.04878  -1.02534  -0.95745  -0.94973  -0.86280
 Alpha  occ. eigenvalues --   -0.85991  -0.82579  -0.78637  -0.77635  -0.77244
 Alpha  occ. eigenvalues --   -0.72258  -0.71369  -0.70595  -0.65144  -0.64881
 Alpha  occ. eigenvalues --   -0.64092  -0.62225  -0.59919  -0.58398  -0.56583
 Alpha  occ. eigenvalues --   -0.55385  -0.54241  -0.53212  -0.52969  -0.51692
 Alpha  occ. eigenvalues --   -0.51396  -0.49151  -0.49006  -0.48761  -0.46927
 Alpha  occ. eigenvalues --   -0.45664  -0.45027  -0.44798  -0.44650  -0.42802
 Alpha  occ. eigenvalues --   -0.37465  -0.36478
 Alpha virt. eigenvalues --    0.04888   0.11178   0.16387   0.21307   0.23795
 Alpha virt. eigenvalues --    0.25359   0.27237   0.27580   0.28139   0.28471
 Alpha virt. eigenvalues --    0.29090   0.30879   0.32261   0.32520   0.32656

 Mulliken charges:
               1
     1  C   -0.299806
     2  C   -0.297465
     3  C   -0.488863
     4  H    0.144857
     5  H    0.158957
     6  H    0.145388
     7  H    0.152678
     8  H    0.186463
     9  H    0.146132
    10  H    0.154015
    11  C   -0.297723
    12  C   -0.299002
    13  C   -0.475153
    14  H    0.146613
    15  H    0.149871
    16  H    0.149647
    17  H    0.152440
    18  H    0.155016
    19  H    0.153852
    20  H    0.157697
    21  C   -0.170489
    22  C   -0.218577
    23  C   -0.170723
    24  C    0.157459
    25  C   -0.170406
    26  C   -0.218637
    27  H    0.226105
    28  H    0.224011
    29  H    0.276205
    30  H    0.275886
    31  H    0.223891
    32  N    0.492402
    33  O   -0.458747
    34  O   -0.463994
 Sum of Mulliken charges =  -0.00000

 Dipole moment (field-independent basis, Debye):
    X=             -4.8366    Y=             -1.9497    Z=             -1.8515  Tot=              5.5337
 Quadrupole moment (field-independent basis, Debye-Ang):
   XX=            -67.2968   YY=            -96.1364   ZZ=            -91.6702
   XY=              6.3219   XZ=              2.5111   YZ=              0.9030

 Normal termination of Gaussian 16 at Thu May  6 17:07:05 2021.
