 Gaussian 16, Revision A.03,
 Gaussian 16:  EM64L-G16RevA.03 25-Dec-2016

 -------------
 #p 6-31g* mp2
 -------------

 ------------------------------------------------------
 Input file generated by CHIRIPA (05-May-2021 14:55:20)
 ------------------------------------------------------
 Symbolic Z-matrix:
 Charge =  0 Multiplicity = 1

                         Standard orientation:
 ---------------------------------------------------------------------
 Center     Atomic      Atomic             Coordinates (Angstroms)
 Number     Number       Type             X           Y           Z
 ---------------------------------------------------------------------
      1          6           0        1.620587    2.416210   -0.050194
      2          6           0        1.636789    1.726192    1.166413
      3          6           0        2.008648    0.379338    1.213884
      4          6           0        2.359942   -0.249250    0.020252
      5          6           0        2.353716    0.411061   -1.207446
      6          6           0        1.978471    1.757604   -1.231158
      7          1           0        1.330403    3.462358   -0.077842
      8          1           0        1.359339    2.235122    2.085139
      9          1           0        2.029941   -0.178825    2.142010
     10          1           0        2.635433   -0.123161   -2.106701
     11          1           0        1.966806    2.290968   -2.177431
     12          7           0        2.755405   -1.674939    0.057931
     13          8           0        3.060555   -2.206020   -1.007655
     14          8           0        2.752730   -2.234319    1.152337
     15          6           0       -2.422258    0.570928    0.094911
     16          6           0       -2.987853    1.977200   -0.106301
     17          6           0       -1.945474    3.072020    0.123069
     18          1           0       -2.018497    0.487229    1.113202
     19          1           0       -1.576056    0.422128   -0.590068
     20          1           0       -3.833611    2.122809    0.577882
     21          1           0       -3.390486    2.057499   -1.124168
     22          1           0       -1.105105    2.954856   -0.568779
     23          1           0       -1.550747    3.020538    1.142943
     24          1           0       -2.371165    4.069226   -0.026022
     25          6           0       -3.452341   -0.534372   -0.130857
     26          6           0       -2.886746   -1.940645    0.070355
     27          6           0       -3.929124   -3.035464   -0.159015
     28          1           0       -4.298542   -0.385573    0.554122
     29          1           0       -3.856101   -0.450673   -1.149148
     30          1           0       -2.484112   -2.020944    1.088222
     31          1           0       -2.040987   -2.086254   -0.613828
     32          1           0       -4.323850   -2.983982   -1.178889
     33          1           0       -4.769493   -2.918300    0.532833
     34          1           0       -3.503434   -4.032670   -0.009925
 ---------------------------------------------------------------------

 SCF Done:  E(RHF) =  -669.534703223     A.U. after   15 cycles
 E2 =    -0.2093244484D+01 EUMP2 =    -0.67162794770753D+03

 The electronic state is 1-A.
 Alpha  occ. eigenvalues --  -20.60767 -20.60761 -15.85823 -11.31184 -11.27796
 Alpha  occ. eigenvalues --  -11.27773 -11.27491 -11.26783 -11.26750 -11.22033
 Alpha  occ. eigenvalues --  -11.21738 -11.21606 -11.21553 -11.21463 -11.20968
 Alpha  occ. eigenvalues --   -1.59843  -1.39397  -1.19375  -1.08782  -1.08614
 Alpha  occ. eigenvalues --   -1.04780  -1.03754  -0.96241  -0.95591  -0.87261
 Alpha  occ. eigenvalues --   -0.86176  -0.82434  -0.79842  -0.78398  -0.77476
 Alpha  occ. eigenvalues --   -0.72042  -0.71167  -0.70494  -0.65263  -0.65027
 Alpha  occ. eigenvalues --   -0.64784  -0.62131  -0.61163  -0.59613  -0.57832
 Alpha  occ. eigenvalues --   -0.55627  -0.55205  -0.53217  -0.52923  -0.52873
 Alpha  occ. eigenvalues --   -0.52569  -0.50185  -0.48799  -0.48796  -0.48125
 Alpha  occ. eigenvalues --   -0.46860  -0.45940  -0.45845  -0.44804  -0.43991
 Alpha  occ. eigenvalues --   -0.37248  -0.36378
 Alpha virt. eigenvalues --    0.05047   0.11170   0.16480   0.20828   0.22712
 Alpha virt. eigenvalues --    0.24192   0.25944   0.26743   0.27312   0.27526
 Alpha virt. eigenvalues --    0.28983   0.30159   0.31298   0.31673   0.32141

 Mulliken charges:
               1
     1  C   -0.167271
     2  C   -0.217286
     3  C   -0.170474
     4  C    0.158380
     5  C   -0.170842
     6  C   -0.221495
     7  H    0.228623
     8  H    0.223238
     9  H    0.275519
    10  H    0.275595
    11  H    0.223433
    12  N    0.488175
    13  O   -0.460820
    14  O   -0.460420
    15  C   -0.298514
    16  C   -0.299177
    17  C   -0.477595
    18  H    0.147801
    19  H    0.152319
    20  H    0.153011
    21  H    0.152688
    22  H    0.153428
    23  H    0.149290
    24  H    0.159174
    25  C   -0.298738
    26  C   -0.299970
    27  C   -0.476085
    28  H    0.149017
    29  H    0.149312
    30  H    0.153008
    31  H    0.154312
    32  H    0.154627
    33  H    0.154162
    34  H    0.163574
 Sum of Mulliken charges =  -0.00000

 Dipole moment (field-independent basis, Debye):
    X=             -1.3806    Y=              4.9472    Z=             -0.1346  Tot=              5.1380
 Quadrupole moment (field-independent basis, Debye-Ang):
   XX=           -102.5230   YY=            -98.8517   ZZ=            -88.9406
   XY=             12.0134   XZ=             -1.4369   YZ=             -0.0532

 Normal termination of Gaussian 16 at Thu May  6 01:21:48 2021.
