 Gaussian 16, Revision A.03,
 Gaussian 16:  EM64L-G16RevA.03 25-Dec-2016

 -------------
 #p 6-31g* mp2
 -------------

 ------------------------------------------------------
 Input file generated by CHIRIPA (05-May-2021 14:57:27)
 ------------------------------------------------------
 Symbolic Z-matrix:
 Charge =  0 Multiplicity = 1

                         Standard orientation:
 ---------------------------------------------------------------------
 Center     Atomic      Atomic             Coordinates (Angstroms)
 Number     Number       Type             X           Y           Z
 ---------------------------------------------------------------------
      1          6           0        3.944948    1.752293    0.585310
      2          6           0        2.742636    2.114003   -0.031238
      3          6           0        1.893872    1.137016   -0.560052
      4          6           0        2.280349   -0.198186   -0.454416
      5          6           0        3.471753   -0.590223    0.153986
      6          6           0        4.305035    0.403711    0.675794
      7          1           0        4.598275    2.517822    0.993384
      8          1           0        2.460425    3.160550   -0.102942
      9          1           0        0.957356    1.389109   -1.042551
     10          1           0        3.726066   -1.641681    0.210374
     11          1           0        5.238166    0.119874    1.154070
     12          7           0        1.389995   -1.241449   -1.010540
     13          8           0        1.753285   -2.410835   -0.904733
     14          8           0        0.345706   -0.870019   -1.541705
     15          6           0       -3.319282    2.165244   -0.634533
     16          6           0       -3.562706    0.942419   -1.268538
     17          6           0       -3.073220   -0.249006   -0.724978
     18          6           0       -2.340836   -0.180546    0.459175
     19          6           0       -2.081585    1.022235    1.114459
     20          6           0       -2.580801    2.201187    0.552849
     21          1           0       -3.703306    3.085928   -1.063793
     22          1           0       -4.135907    0.911487   -2.190779
     23          1           0       -3.246916   -1.209398   -1.194973
     24          1           0       -1.506892    1.021250    2.032687
     25          1           0       -2.390209    3.149411    1.047410
     26          7           0       -1.817489   -1.435252    1.044172
     27          8           0       -1.175041   -1.348076    2.088345
     28          8           0       -2.059647   -2.482110    0.447441
 ---------------------------------------------------------------------

 SCF Done:  E(RHF) =  -868.337394436     A.U. after   16 cycles
 E2 =    -0.2602436682D+01 EUMP2 =    -0.87093983111822D+03

 The electronic state is 1-A.
 Alpha  occ. eigenvalues --  -20.60559 -20.60461 -20.59955 -20.59848 -15.85551
 Alpha  occ. eigenvalues --  -15.84949 -11.30973 -11.30460 -11.27591 -11.27520
 Alpha  occ. eigenvalues --  -11.27345 -11.27179 -11.26986 -11.26952 -11.26645
 Alpha  occ. eigenvalues --  -11.26567 -11.26278 -11.26116  -1.59568  -1.58959
 Alpha  occ. eigenvalues --   -1.39129  -1.38514  -1.19159  -1.18686  -1.08550
 Alpha  occ. eigenvalues --   -1.08067  -1.04582  -1.04138  -0.95375  -0.94873
 Alpha  occ. eigenvalues --   -0.85979  -0.85529  -0.82219  -0.81719  -0.77248
 Alpha  occ. eigenvalues --   -0.76718  -0.71818  -0.71192  -0.71117  -0.70284
 Alpha  occ. eigenvalues --   -0.69998  -0.69842  -0.64825  -0.64600  -0.64363
 Alpha  occ. eigenvalues --   -0.64177  -0.61933  -0.61488  -0.55096  -0.54682
 Alpha  occ. eigenvalues --   -0.52898  -0.52711  -0.52416  -0.52252  -0.48549
 Alpha  occ. eigenvalues --   -0.48504  -0.47972  -0.47910  -0.44569  -0.43851
 Alpha  occ. eigenvalues --   -0.37149  -0.36647  -0.36213  -0.35702
 Alpha virt. eigenvalues --    0.05271   0.05875   0.11371   0.11993   0.16711
 Alpha virt. eigenvalues --    0.17325   0.21525   0.21911   0.27398   0.27803
 Alpha virt. eigenvalues --    0.28420   0.28855   0.30970   0.31414   0.32620

 Mulliken charges:
               1
     1  C   -0.170731
     2  C   -0.219621
     3  C   -0.173203
     4  C    0.161095
     5  C   -0.167677
     6  C   -0.218389
     7  H    0.224238
     8  H    0.219403
     9  H    0.274360
    10  H    0.278013
    11  H    0.223682
    12  N    0.489164
    13  O   -0.449410
    14  O   -0.469953
    15  C   -0.173270
    16  C   -0.219868
    17  C   -0.157186
    18  C    0.168758
    19  C   -0.177148
    20  C   -0.223524
    21  H    0.221518
    22  H    0.222176
    23  H    0.279917
    24  H    0.271722
    25  H    0.217222
    26  N    0.487970
    27  O   -0.470359
    28  O   -0.448899
 Sum of Mulliken charges =  -0.00000

 Dipole moment (field-independent basis, Debye):
    X=              1.3861    Y=              7.5613    Z=             -0.2657  Tot=              7.6919
 Quadrupole moment (field-independent basis, Debye-Ang):
   XX=            -79.8406   YY=           -104.9366   ZZ=           -106.7168
   XY=             -3.2785   XZ=             10.5008   YZ=              1.5631

 Normal termination of Gaussian 16 at Thu May  6 16:31:16 2021.
