 Gaussian 16, Revision A.03,
 Gaussian 16:  EM64L-G16RevA.03 25-Dec-2016

 -------------
 #p 6-31g* mp2
 -------------

 ------------------------------------------------------
 Input file generated by CHIRIPA (05-May-2021 14:53:12)
 ------------------------------------------------------
 Symbolic Z-matrix:
 Charge =  0 Multiplicity = 1

                         Standard orientation:
 ---------------------------------------------------------------------
 Center     Atomic      Atomic             Coordinates (Angstroms)
 Number     Number       Type             X           Y           Z
 ---------------------------------------------------------------------
      1          6           0        3.328462    0.438608   -0.445409
      2          6           0        4.097380   -0.487557    0.497442
      3          6           0        5.166404   -1.309577   -0.223158
      4          1           0        2.859658   -0.161693   -1.237120
      5          1           0        4.037651    1.113990   -0.943713
      6          1           0        3.386795   -1.160065    0.994854
      7          1           0        4.564250    0.114999    1.287110
      8          1           0        5.897533   -0.652636   -0.705318
      9          1           0        4.713388   -1.934944   -0.999234
     10          1           0        5.703842   -1.964656    0.469584
     11          6           0        2.256272    1.266980    0.260236
     12          6           0        1.487354    2.193145   -0.682616
     13          6           0        0.418330    3.015166    0.037984
     14          1           0        1.547083    0.591599    0.758539
     15          1           0        2.725076    1.867281    1.051947
     16          1           0        1.020484    1.590590   -1.472283
     17          1           0        2.197939    2.865653   -1.180028
     18          1           0        0.871346    3.640532    0.814061
     19          1           0       -0.312799    2.358224    0.520144
     20          1           0       -0.119108    3.670245   -0.654757
     21          6           0       -3.415154    1.534632    0.088137
     22          6           0       -3.434443    0.729555   -1.055542
     23          6           0       -2.754497   -0.491845   -1.075588
     24          6           0       -2.062275   -0.879018    0.070806
     25          6           0       -2.024247   -0.099056    1.225579
     26          6           0       -2.711359    1.118490    1.223047
     27          1           0       -3.946136    2.481948    0.094940
     28          1           0       -3.980188    1.050198   -1.938375
     29          1           0       -2.752831   -1.134657   -1.947486
     30          1           0       -1.471462   -0.445430    2.090375
     31          1           0       -2.694639    1.741674    2.112657
     32          7           0       -1.338653   -2.170020    0.061535
     33          8           0       -0.736200   -2.488544    1.084390
     34          8           0       -1.387633   -2.838938   -0.968410
 ---------------------------------------------------------------------

 SCF Done:  E(RHF) =  -669.535078605     A.U. after   15 cycles
 E2 =    -0.2093381735D+01 EUMP2 =    -0.67162846034021D+03

 The electronic state is 1-A.
 Alpha  occ. eigenvalues --  -20.60905 -20.60899 -15.85954 -11.31332 -11.27883
 Alpha  occ. eigenvalues --  -11.27879 -11.27602 -11.26895 -11.26871 -11.21548
 Alpha  occ. eigenvalues --  -11.21216 -11.21139 -11.21065 -11.21041 -11.20600
 Alpha  occ. eigenvalues --   -1.59977  -1.39530  -1.19501  -1.08886  -1.08186
 Alpha  occ. eigenvalues --   -1.04907  -1.03288  -0.95759  -0.95717  -0.86789
 Alpha  occ. eigenvalues --   -0.86286  -0.82551  -0.79375  -0.77987  -0.77598
 Alpha  occ. eigenvalues --   -0.72169  -0.71301  -0.70583  -0.65144  -0.64891
 Alpha  occ. eigenvalues --   -0.64819  -0.62240  -0.60708  -0.59146  -0.57374
 Alpha  occ. eigenvalues --   -0.55379  -0.55164  -0.53231  -0.52981  -0.52450
 Alpha  occ. eigenvalues --   -0.52137  -0.49670  -0.48930  -0.48925  -0.47683
 Alpha  occ. eigenvalues --   -0.46398  -0.45536  -0.45442  -0.44913  -0.43552
 Alpha  occ. eigenvalues --   -0.37437  -0.36419
 Alpha virt. eigenvalues --    0.04914   0.11059   0.16384   0.21199   0.23005
 Alpha virt. eigenvalues --    0.24552   0.26471   0.27184   0.27657   0.28323
 Alpha virt. eigenvalues --    0.28509   0.30845   0.31701   0.32023   0.32188

 Mulliken charges:
               1
     1  C   -0.298268
     2  C   -0.301620
     3  C   -0.475884
     4  H    0.152436
     5  H    0.147575
     6  H    0.160257
     7  H    0.148964
     8  H    0.152425
     9  H    0.158185
    10  H    0.160432
    11  C   -0.299772
    12  C   -0.297979
    13  C   -0.482956
    14  H    0.150259
    15  H    0.147839
    16  H    0.151788
    17  H    0.151190
    18  H    0.151892
    19  H    0.161361
    20  H    0.154804
    21  C   -0.166975
    22  C   -0.218062
    23  C   -0.171078
    24  C    0.159684
    25  C   -0.171744
    26  C   -0.221525
    27  H    0.226800
    28  H    0.224192
    29  H    0.276036
    30  H    0.276528
    31  H    0.225669
    32  N    0.487980
    33  O   -0.460640
    34  O   -0.459796
 Sum of Mulliken charges =  -0.00000

 Dipole moment (field-independent basis, Debye):
    X=             -2.6864    Y=              4.3981    Z=              0.0370  Tot=              5.1537
 Quadrupole moment (field-independent basis, Debye-Ang):
   XX=            -84.5121   YY=           -103.6516   ZZ=            -90.4946
   XY=             -6.4216   XZ=              1.8096   YZ=              1.0885

 Normal termination of Gaussian 16 at Thu May  6 12:01:37 2021.
