 Gaussian 16, Revision A.03,
 Gaussian 16:  EM64L-G16RevA.03 25-Dec-2016

 -------------
 #p 6-31g* mp2
 -------------

 ------------------------------------------------------
 Input file generated by CHIRIPA (05-May-2021 14:53:12)
 ------------------------------------------------------
 Symbolic Z-matrix:
 Charge =  0 Multiplicity = 1

                         Standard orientation:
 ---------------------------------------------------------------------
 Center     Atomic      Atomic             Coordinates (Angstroms)
 Number     Number       Type             X           Y           Z
 ---------------------------------------------------------------------
      1          6           0       -3.482042    0.020480   -0.455324
      2          6           0       -2.438703   -1.001406   -0.002357
      3          6           0       -1.054327   -0.734836   -0.594166
      4          1           0       -3.542688    0.011502   -1.552223
      5          1           0       -3.147506    1.027208   -0.169005
      6          1           0       -2.775769   -2.006037   -0.288221
      7          1           0       -2.380671   -0.990130    1.093600
      8          1           0       -0.693019    0.255362   -0.298253
      9          1           0       -1.090362   -0.766318   -1.687926
     10          1           0       -0.323982   -1.477105   -0.257278
     11          6           0       -4.871075   -0.232685    0.127961
     12          6           0       -5.914413    0.789200   -0.325006
     13          6           0       -7.298789    0.522631    0.266802
     14          1           0       -5.205611   -1.239413   -0.158358
     15          1           0       -4.810428   -0.223707    1.224860
     16          1           0       -5.972446    0.777924   -1.420963
     17          1           0       -5.577348    1.793832   -0.039142
     18          1           0       -7.262755    0.554112    1.360563
     19          1           0       -7.660098   -0.467567   -0.029110
     20          1           0       -8.029135    1.264900   -0.070085
     21          6           0        2.943632   -2.417666    0.233586
     22          6           0        2.152628   -1.576961    1.023554
     23          6           0        2.320834   -0.189982    0.973100
     24          6           0        3.293805    0.324638    0.117656
     25          6           0        4.097448   -0.486801   -0.681729
     26          6           0        3.911810   -1.870867   -0.615038
     27          1           0        2.806195   -3.493973    0.279086
     28          1           0        1.399956   -1.998822    1.683526
     29          1           0        1.722183    0.483962    1.573796
     30          1           0        4.839610   -0.036866   -1.329936
     31          1           0        4.527551   -2.521348   -1.229677
     32          7           0        3.481105    1.791428    0.055649
     33          8           0        4.345164    2.219984   -0.706175
     34          8           0        2.760303    2.484767    0.770046
 ---------------------------------------------------------------------

 SCF Done:  E(RHF) =  -669.534331683     A.U. after   15 cycles
 E2 =    -0.2092449548D+01 EUMP2 =    -0.67162678123158D+03

 The electronic state is 1-A.
 Alpha  occ. eigenvalues --  -20.60772 -20.60766 -15.85825 -11.31188 -11.27748
 Alpha  occ. eigenvalues --  -11.27743 -11.27502 -11.26772 -11.26756 -11.21907
 Alpha  occ. eigenvalues --  -11.21682 -11.21559 -11.21497 -11.21264 -11.21144
 Alpha  occ. eigenvalues --   -1.59846  -1.39400  -1.19366  -1.08766  -1.08600
 Alpha  occ. eigenvalues --   -1.04780  -1.03709  -0.96154  -0.95594  -0.87174
 Alpha  occ. eigenvalues --   -0.86173  -0.82431  -0.79781  -0.78407  -0.77475
 Alpha  occ. eigenvalues --   -0.72044  -0.71168  -0.70474  -0.65235  -0.65019
 Alpha  occ. eigenvalues --   -0.64795  -0.62140  -0.61107  -0.59561  -0.57780
 Alpha  occ. eigenvalues --   -0.55450  -0.55266  -0.53476  -0.52901  -0.52594
 Alpha  occ. eigenvalues --   -0.52405  -0.50081  -0.48802  -0.48798  -0.48092
 Alpha  occ. eigenvalues --   -0.46816  -0.45950  -0.45869  -0.44806  -0.43976
 Alpha  occ. eigenvalues --   -0.37335  -0.36259
 Alpha virt. eigenvalues --    0.05063   0.11146   0.16525   0.20879   0.22804
 Alpha virt. eigenvalues --    0.24135   0.26363   0.26946   0.27160   0.28069
 Alpha virt. eigenvalues --    0.28974   0.30029   0.31297   0.31757   0.31860

 Mulliken charges:
               1
     1  C   -0.298774
     2  C   -0.299785
     3  C   -0.480255
     4  H    0.150799
     5  H    0.152515
     6  H    0.150505
     7  H    0.147206
     8  H    0.157399
     9  H    0.157056
    10  H    0.158784
    11  C   -0.298268
    12  C   -0.299993
    13  C   -0.475795
    14  H    0.148685
    15  H    0.149048
    16  H    0.152388
    17  H    0.153496
    18  H    0.155116
    19  H    0.154680
    20  H    0.161067
    21  C   -0.171637
    22  C   -0.219318
    23  C   -0.165141
    24  C    0.157966
    25  C   -0.170979
    26  C   -0.218069
    27  H    0.225636
    28  H    0.224271
    29  H    0.275306
    30  H    0.275569
    31  H    0.223436
    32  N    0.488216
    33  O   -0.460243
    34  O   -0.460889
 Sum of Mulliken charges =  -0.00000

 Dipole moment (field-independent basis, Debye):
    X=             -0.6415    Y=             -5.1296    Z=              0.1871  Tot=              5.1729
 Quadrupole moment (field-independent basis, Debye-Ang):
   XX=            -97.8401   YY=            -98.4192   ZZ=            -92.3576
   XY=            -18.0487   XZ=             -1.5949   YZ=              0.4393

 Normal termination of Gaussian 16 at Wed May  5 21:44:10 2021.
