 Gaussian 16, Revision A.03,
 Gaussian 16:  EM64L-G16RevA.03 25-Dec-2016

 -------------
 #p 6-31g* mp2
 -------------

 ------------------------------------------------------
 Input file generated by CHIRIPA (05-May-2021 14:57:23)
 ------------------------------------------------------
 Symbolic Z-matrix:
 Charge =  0 Multiplicity = 1

                         Standard orientation:
 ---------------------------------------------------------------------
 Center     Atomic      Atomic             Coordinates (Angstroms)
 Number     Number       Type             X           Y           Z
 ---------------------------------------------------------------------
      1          6           0        2.948509   -2.534553    0.296218
      2          6           0        1.958441   -1.804449   -0.369540
      3          6           0        2.089165   -0.423101   -0.540821
      4          6           0        3.228052    0.198731   -0.031357
      5          6           0        4.231763   -0.501133    0.636507
      6          6           0        4.080016   -1.881715    0.796235
      7          1           0        2.838794   -3.607319    0.424786
      8          1           0        1.078631   -2.308805   -0.758904
      9          1           0        1.337937    0.166435   -1.052211
     10          1           0        5.097557    0.029513    1.013647
     11          1           0        4.850515   -2.446175    1.313693
     12          7           0        3.377572    1.660697   -0.206569
     13          8           0        4.390426    2.184995    0.251552
     14          8           0        2.479081    2.254605   -0.798705
     15          6           0       -3.292693    2.540463    0.344129
     16          6           0       -2.159215    1.952038   -0.226398
     17          6           0       -2.098758    0.568834   -0.420415
     18          6           0       -3.194777   -0.199303   -0.030549
     19          6           0       -4.338145    0.357392    0.540495
     20          6           0       -4.376630    1.742669    0.725083
     21          1           0       -3.331124    3.615774    0.491184
     22          1           0       -1.315929    2.569143   -0.523206
     23          1           0       -1.233658    0.087204   -0.859793
     24          1           0       -5.163116   -0.283817    0.826318
     25          1           0       -5.258204    2.196913    1.168404
     26          7           0       -3.142404   -1.664736   -0.230955
     27          8           0       -4.121219   -2.319476    0.121002
     28          8           0       -2.123531   -2.130854   -0.736195
 ---------------------------------------------------------------------

 SCF Done:  E(RHF) =  -868.340132047     A.U. after   16 cycles
 E2 =    -0.2599568779D+01 EUMP2 =    -0.87093970082575D+03

 The electronic state is 1-A.
 Alpha  occ. eigenvalues --  -20.61342 -20.61290 -20.61076 -20.61033 -15.86354
 Alpha  occ. eigenvalues --  -15.86095 -11.31436 -11.31224 -11.28000 -11.27926
 Alpha  occ. eigenvalues --  -11.27773 -11.27708 -11.27555 -11.27307 -11.26891
 Alpha  occ. eigenvalues --  -11.26786 -11.26687 -11.26510  -1.60377  -1.60126
 Alpha  occ. eigenvalues --   -1.39946  -1.39691  -1.19550  -1.19326  -1.08982
 Alpha  occ. eigenvalues --   -1.08745  -1.04908  -1.04680  -0.95883  -0.95644
 Alpha  occ. eigenvalues --   -0.86314  -0.86077  -0.82728  -0.82479  -0.77861
 Alpha  occ. eigenvalues --   -0.77542  -0.72591  -0.72325  -0.71680  -0.71437
 Alpha  occ. eigenvalues --   -0.70700  -0.70398  -0.65205  -0.64987  -0.64869
 Alpha  occ. eigenvalues --   -0.64616  -0.62384  -0.61910  -0.55393  -0.55138
 Alpha  occ. eigenvalues --   -0.53249  -0.53057  -0.52965  -0.52705  -0.49356
 Alpha  occ. eigenvalues --   -0.49291  -0.49096  -0.49038  -0.45411  -0.45151
 Alpha  occ. eigenvalues --   -0.37488  -0.37260  -0.36504  -0.36257
 Alpha virt. eigenvalues --    0.04660   0.04933   0.11151   0.11388   0.16263
 Alpha virt. eigenvalues --    0.16493   0.19156   0.22388   0.24868   0.27565
 Alpha virt. eigenvalues --    0.28314   0.29676   0.30993   0.31562   0.32583

 Mulliken charges:
               1
     1  C   -0.171517
     2  C   -0.223280
     3  C   -0.178045
     4  C    0.160448
     5  C   -0.172119
     6  C   -0.217847
     7  H    0.229638
     8  H    0.246010
     9  H    0.266118
    10  H    0.274614
    11  H    0.223757
    12  N    0.489031
    13  O   -0.458263
    14  O   -0.469309
    15  C   -0.170459
    16  C   -0.221689
    17  C   -0.173915
    18  C    0.159239
    19  C   -0.171025
    20  C   -0.218271
    21  H    0.229294
    22  H    0.238152
    23  H    0.268412
    24  H    0.275278
    25  H    0.224518
    26  N    0.491268
    27  O   -0.456675
    28  O   -0.473364
 Sum of Mulliken charges =  -0.00000

 Dipole moment (field-independent basis, Debye):
    X=             -0.8177    Y=             -0.0213    Z=              1.4270  Tot=              1.6448
 Quadrupole moment (field-independent basis, Debye-Ang):
   XX=            -98.7085   YY=           -109.2429   ZZ=           -104.4662
   XY=            -34.0487   XZ=              0.0685   YZ=             -0.2502

 Normal termination of Gaussian 16 at Thu May  6 22:44:47 2021.
