 Gaussian 16, Revision A.03,
 Gaussian 16:  EM64L-G16RevA.03 25-Dec-2016

 -------------
 #p 6-31g* mp2
 -------------

 ------------------------------------------------------
 Input file generated by CHIRIPA (05-May-2021 14:53:16)
 ------------------------------------------------------
 Symbolic Z-matrix:
 Charge =  0 Multiplicity = 1

                         Standard orientation:
 ---------------------------------------------------------------------
 Center     Atomic      Atomic             Coordinates (Angstroms)
 Number     Number       Type             X           Y           Z
 ---------------------------------------------------------------------
      1          6           0       -4.063297    0.029575    0.108117
      2          6           0       -4.840896    0.364056   -1.165244
      3          6           0       -5.926359    1.416175   -0.935874
      4          1           0       -4.764397   -0.326119    0.875505
      5          1           0       -3.607369    0.948082    0.502920
      6          1           0       -5.294076   -0.555051   -1.558290
      7          1           0       -4.137838    0.718814   -1.929752
      8          1           0       -5.487303    2.348310   -0.565801
      9          1           0       -6.650110    1.067208   -0.192229
     10          1           0       -6.469793    1.640214   -1.859100
     11          6           0       -2.974655   -1.020721   -0.105110
     12          6           0       -2.197056   -1.355202    1.168250
     13          6           0       -1.111593   -2.407320    0.938881
     14          1           0       -3.430583   -1.939228   -0.499914
     15          1           0       -2.273555   -0.665027   -0.872499
     16          1           0       -2.900114   -1.709959    1.932759
     17          1           0       -1.743876   -0.436095    1.561297
     18          1           0       -0.387842   -2.058354    0.195235
     19          1           0       -1.550649   -3.339456    0.568808
     20          1           0       -0.568159   -2.631360    1.862106
     21          6           0        1.598898    2.324847    1.133779
     22          6           0        2.588340    2.562832    0.174151
     23          6           0        3.232348    1.496876   -0.461100
     24          6           0        2.860407    0.199839   -0.110898
     25          6           0        1.878455   -0.069638    0.841175
     26          6           0        1.247732    1.011686    1.463648
     27          1           0        1.103777    3.158877    1.622294
     28          1           0        2.863101    3.581605   -0.084022
     29          1           0        4.001742    1.652557   -1.207567
     30          1           0        1.626065   -1.096211    1.077538
     31          1           0        0.479675    0.823872    2.208535
     32          7           0        3.535157   -0.936776   -0.776645
     33          8           0        3.189321   -2.070175   -0.450388
     34          8           0        4.397086   -0.672735   -1.612107
 ---------------------------------------------------------------------

 SCF Done:  E(RHF) =  -669.535053403     A.U. after   15 cycles
 E2 =    -0.2092499485D+01 EUMP2 =    -0.67162755288731D+03

 The electronic state is 1-A.
 Alpha  occ. eigenvalues --  -20.60769 -20.60763 -15.85818 -11.31175 -11.27765
 Alpha  occ. eigenvalues --  -11.27692 -11.27509 -11.26778 -11.26754 -11.22183
 Alpha  occ. eigenvalues --  -11.21908 -11.21795 -11.21736 -11.21522 -11.21368
 Alpha  occ. eigenvalues --   -1.59842  -1.39395  -1.19361  -1.08843  -1.08757
 Alpha  occ. eigenvalues --   -1.04770  -1.03947  -0.96391  -0.95587  -0.87409
 Alpha  occ. eigenvalues --   -0.86157  -0.82420  -0.80019  -0.78647  -0.77470
 Alpha  occ. eigenvalues --   -0.72036  -0.71166  -0.70480  -0.65495  -0.65006
 Alpha  occ. eigenvalues --   -0.64775  -0.62269  -0.61211  -0.59756  -0.57995
 Alpha  occ. eigenvalues --   -0.55716  -0.55210  -0.53137  -0.53090  -0.52859
 Alpha  occ. eigenvalues --   -0.52768  -0.50266  -0.48799  -0.48791  -0.48319
 Alpha  occ. eigenvalues --   -0.47035  -0.46185  -0.46104  -0.44797  -0.44197
 Alpha  occ. eigenvalues --   -0.37347  -0.36347
 Alpha virt. eigenvalues --    0.05026   0.11197   0.16447   0.20024   0.22786
 Alpha virt. eigenvalues --    0.23901   0.25560   0.26620   0.26750   0.28279
 Alpha virt. eigenvalues --    0.29293   0.30161   0.31082   0.31415   0.32050

 Mulliken charges:
               1
     1  C   -0.297928
     2  C   -0.300123
     3  C   -0.475742
     4  H    0.150110
     5  H    0.145956
     6  H    0.153701
     7  H    0.152930
     8  H    0.153712
     9  H    0.155558
    10  H    0.161602
    11  C   -0.298860
    12  C   -0.301127
    13  C   -0.484191
    14  H    0.152794
    15  H    0.152781
    16  H    0.154037
    17  H    0.142237
    18  H    0.162410
    19  H    0.163004
    20  H    0.156430
    21  C   -0.171184
    22  C   -0.218726
    23  C   -0.170610
    24  C    0.157715
    25  C   -0.174957
    26  C   -0.222301
    27  H    0.225574
    28  H    0.223399
    29  H    0.275565
    30  H    0.282911
    31  H    0.226111
    32  N    0.488242
    33  O   -0.460620
    34  O   -0.460407
 Sum of Mulliken charges =  -0.00000

 Dipole moment (field-independent basis, Debye):
    X=             -2.4582    Y=              3.9171    Z=              2.2516  Tot=              5.1436
 Quadrupole moment (field-independent basis, Debye-Ang):
   XX=           -107.3680   YY=            -91.1753   ZZ=            -94.5263
   XY=             14.4474   XZ=              5.3609   YZ=             -2.0103

 Normal termination of Gaussian 16 at Thu May  6 01:10:28 2021.
