 Gaussian 16, Revision A.03,
 Gaussian 16:  EM64L-G16RevA.03 25-Dec-2016

 -------------
 #p 6-31g* mp2
 -------------

 ------------------------------------------------------
 Input file generated by CHIRIPA (05-May-2021 14:53:17)
 ------------------------------------------------------
 Symbolic Z-matrix:
 Charge =  0 Multiplicity = 1

                         Standard orientation:
 ---------------------------------------------------------------------
 Center     Atomic      Atomic             Coordinates (Angstroms)
 Number     Number       Type             X           Y           Z
 ---------------------------------------------------------------------
      1          6           0        2.628533   -0.530309   -0.436139
      2          6           0        1.888620   -1.866743   -0.502916
      3          6           0        0.555653   -1.768003   -1.245374
      4          1           0        1.986740    0.212644    0.056879
      5          1           0        2.802848   -0.164221   -1.457407
      6          1           0        1.716976   -2.230877    0.518142
      7          1           0        2.532324   -2.606651   -0.995661
      8          1           0        0.712064   -1.428407   -2.274360
      9          1           0       -0.107916   -1.050497   -0.751955
     10          1           0        0.043540   -2.734600   -1.281263
     11          6           0        3.962888   -0.612882    0.303054
     12          6           0        4.702801    0.723552    0.369831
     13          6           0        6.035768    0.624812    1.112289
     14          1           0        3.788573   -0.978970    1.324322
     15          1           0        4.604681   -1.355835   -0.189964
     16          1           0        4.059098    1.463460    0.862576
     17          1           0        4.874445    1.087686   -0.651227
     18          1           0        6.699338   -0.092694    0.618870
     19          1           0        5.879357    0.285216    2.141275
     20          1           0        6.547882    1.591410    1.148178
     21          6           0       -3.961175   -1.196289    1.372920
     22          6           0       -3.701098   -1.429716    0.018523
     23          6           0       -2.934149   -0.526268   -0.723176
     24          6           0       -2.440742    0.605384   -0.075717
     25          6           0       -2.682550    0.865825    1.272241
     26          6           0       -3.451969   -0.051282    1.994361
     27          1           0       -4.557920   -1.903414    1.941485
     28          1           0       -4.095267   -2.318098   -0.466714
     29          1           0       -2.717530   -0.682386   -1.772996
     30          1           0       -2.276050    1.760322    1.728365
     31          1           0       -3.652347    0.132579    3.046069
     32          7           0       -1.627500    1.569053   -0.850557
     33          8           0       -1.204267    2.558513   -0.256856
     34          8           0       -1.428711    1.316671   -2.036905
 ---------------------------------------------------------------------

 SCF Done:  E(RHF) =  -669.534616642     A.U. after   15 cycles
 E2 =    -0.2093218795D+01 EUMP2 =    -0.67162783543688D+03

 The electronic state is 1-A.
 Alpha  occ. eigenvalues --  -20.60829 -20.60807 -15.85852 -11.31190 -11.27801
 Alpha  occ. eigenvalues --  -11.27764 -11.27537 -11.26791 -11.26772 -11.21261
 Alpha  occ. eigenvalues --  -11.21139 -11.20973 -11.20851 -11.20712 -11.20699
 Alpha  occ. eigenvalues --   -1.59887  -1.39440  -1.19398  -1.08793  -1.08002
 Alpha  occ. eigenvalues --   -1.04792  -1.03143  -0.95651  -0.95573  -0.86641
 Alpha  occ. eigenvalues --   -0.86177  -0.82453  -0.79215  -0.77800  -0.77490
 Alpha  occ. eigenvalues --   -0.72079  -0.71233  -0.70500  -0.65045  -0.64790
 Alpha  occ. eigenvalues --   -0.64636  -0.62137  -0.60555  -0.58971  -0.57205
 Alpha  occ. eigenvalues --   -0.55305  -0.54945  -0.53160  -0.52884  -0.52302
 Alpha  occ. eigenvalues --   -0.51983  -0.49524  -0.48838  -0.48837  -0.47528
 Alpha  occ. eigenvalues --   -0.46240  -0.45368  -0.45262  -0.44750  -0.43397
 Alpha  occ. eigenvalues --   -0.37345  -0.36354
 Alpha virt. eigenvalues --    0.05001   0.11228   0.16496   0.21358   0.23244
 Alpha virt. eigenvalues --    0.24620   0.27014   0.27108   0.27766   0.28094
 Alpha virt. eigenvalues --    0.28644   0.30857   0.31684   0.31957   0.32227

 Mulliken charges:
               1
     1  C   -0.298755
     2  C   -0.299885
     3  C   -0.476231
     4  H    0.152889
     5  H    0.154514
     6  H    0.148127
     7  H    0.150220
     8  H    0.163511
     9  H    0.153442
    10  H    0.151327
    11  C   -0.298133
    12  C   -0.299841
    13  C   -0.475527
    14  H    0.146662
    15  H    0.148002
    16  H    0.154630
    17  H    0.153809
    18  H    0.154000
    19  H    0.153385
    20  H    0.160182
    21  C   -0.170532
    22  C   -0.217812
    23  C   -0.169255
    24  C    0.154140
    25  C   -0.171788
    26  C   -0.218810
    27  H    0.225770
    28  H    0.223708
    29  H    0.277185
    30  H    0.275573
    31  H    0.223423
    32  N    0.490785
    33  O   -0.460542
    34  O   -0.458174
 Sum of Mulliken charges =  -0.00000

 Dipole moment (field-independent basis, Debye):
    X=             -2.9412    Y=             -3.2905    Z=              2.6432  Tot=              5.1444
 Quadrupole moment (field-independent basis, Debye-Ang):
   XX=            -82.3688   YY=            -98.0402   ZZ=            -91.4122
   XY=              7.1702   XZ=             -7.2230   YZ=              4.7048

 Normal termination of Gaussian 16 at Thu May  6 13:58:10 2021.
