 Gaussian 16, Revision A.03,
 Gaussian 16:  EM64L-G16RevA.03 25-Dec-2016

 -------------
 #p 6-31g* mp2
 -------------

 ------------------------------------------------------
 Input file generated by CHIRIPA (05-May-2021 14:53:18)
 ------------------------------------------------------
 Symbolic Z-matrix:
 Charge =  0 Multiplicity = 1

                         Standard orientation:
 ---------------------------------------------------------------------
 Center     Atomic      Atomic             Coordinates (Angstroms)
 Number     Number       Type             X           Y           Z
 ---------------------------------------------------------------------
      1          6           0        3.311576   -0.785684    0.640283
      2          6           0        1.889904   -0.225993    0.700115
      3          6           0        0.968944   -1.046882    1.603314
      4          1           0        3.275349   -1.823897    0.282867
      5          1           0        3.727992   -0.819334    1.656580
      6          1           0        1.476797   -0.192116   -0.316159
      7          1           0        1.929537    0.811070    1.057247
      8          1           0        1.355002   -1.070639    2.627519
      9          1           0        0.899690   -2.079526    1.246310
     10          1           0       -0.042268   -0.629133    1.631518
     11          6           0        4.244143    0.024185   -0.258694
     12          6           0        5.665815   -0.535506   -0.318525
     13          6           0        6.586775    0.285383   -1.221725
     14          1           0        3.827728    0.057834   -1.274991
     15          1           0        4.280370    1.062398    0.098722
     16          1           0        5.626183   -1.572570   -0.675658
     17          1           0        6.078922   -0.569383    0.697748
     18          1           0        6.656030    1.318026   -0.864721
     19          1           0        6.200718    0.309140   -2.245930
     20          1           0        7.597987   -0.132366   -1.249929
     21          6           0       -1.460726    2.199614    0.575837
     22          6           0       -2.014906    1.341334    1.531223
     23          6           0       -2.842289    0.284104    1.141029
     24          6           0       -3.095571    0.113568   -0.219138
     25          6           0       -2.558314    0.951751   -1.194891
     26          6           0       -1.733718    2.002431   -0.781777
     27          1           0       -0.819078    3.018351    0.887851
     28          1           0       -1.804627    1.492071    2.586261
     29          1           0       -3.284451   -0.395296    1.859588
     30          1           0       -2.786161    0.776227   -2.239254
     31          1           0       -1.304712    2.667415   -1.525951
     32          7           0       -3.970009   -1.002208   -0.644351
     33          8           0       -4.177760   -1.131121   -1.848866
     34          8           0       -4.431084   -1.726709    0.234935
 ---------------------------------------------------------------------

 SCF Done:  E(RHF) =  -669.534869284     A.U. after   15 cycles
 E2 =    -0.2092981744D+01 EUMP2 =    -0.67162785102853D+03

 The electronic state is 1-A.
 Alpha  occ. eigenvalues --  -20.60817 -20.60812 -15.85872 -11.31273 -11.27837
 Alpha  occ. eigenvalues --  -11.27830 -11.27584 -11.26864 -11.26847 -11.21898
 Alpha  occ. eigenvalues --  -11.21843 -11.21685 -11.21611 -11.21310 -11.21142
 Alpha  occ. eigenvalues --   -1.59892  -1.39444  -1.19457  -1.08841  -1.08688
 Alpha  occ. eigenvalues --   -1.04872  -1.03765  -0.96208  -0.95664  -0.87231
 Alpha  occ. eigenvalues --   -0.86249  -0.82499  -0.79840  -0.78515  -0.77539
 Alpha  occ. eigenvalues --   -0.72090  -0.71216  -0.70544  -0.65326  -0.65103
 Alpha  occ. eigenvalues --   -0.64855  -0.62203  -0.61168  -0.59645  -0.57886
 Alpha  occ. eigenvalues --   -0.55495  -0.55347  -0.53567  -0.52944  -0.52747
 Alpha  occ. eigenvalues --   -0.52322  -0.50152  -0.48852  -0.48842  -0.48158
 Alpha  occ. eigenvalues --   -0.46882  -0.46056  -0.45984  -0.44843  -0.44045
 Alpha  occ. eigenvalues --   -0.37409  -0.36371
 Alpha virt. eigenvalues --    0.04974   0.11153   0.16413   0.21123   0.22667
 Alpha virt. eigenvalues --    0.24175   0.26291   0.26990   0.27095   0.28061
 Alpha virt. eigenvalues --    0.28274   0.30727   0.31249   0.31757   0.32295

 Mulliken charges:
               1
     1  C   -0.298494
     2  C   -0.296536
     3  C   -0.484903
     4  H    0.152039
     5  H    0.149190
     6  H    0.152956
     7  H    0.143208
     8  H    0.151335
     9  H    0.158090
    10  H    0.167084
    11  C   -0.297950
    12  C   -0.299782
    13  C   -0.475765
    14  H    0.149178
    15  H    0.146892
    16  H    0.153397
    17  H    0.152106
    18  H    0.154186
    19  H    0.155263
    20  H    0.161251
    21  C   -0.167312
    22  C   -0.221163
    23  C   -0.171901
    24  C    0.160736
    25  C   -0.171320
    26  C   -0.218143
    27  H    0.226397
    28  H    0.225346
    29  H    0.276669
    30  H    0.275958
    31  H    0.224173
    32  N    0.488076
    33  O   -0.460263
    34  O   -0.459996
 Sum of Mulliken charges =  -0.00000

 Dipole moment (field-independent basis, Debye):
    X=              2.9916    Y=              3.9450    Z=              1.4542  Tot=              5.1602
 Quadrupole moment (field-independent basis, Debye-Ang):
   XX=           -115.1026   YY=            -93.9441   ZZ=            -90.7221
   XY=            -12.0943   XZ=             -5.4554   YZ=             -1.3492

 Normal termination of Gaussian 16 at Wed May  5 17:16:25 2021.
