 Gaussian 16, Revision A.03,
 Gaussian 16:  EM64L-G16RevA.03 25-Dec-2016

 -------------
 #p 6-31g* mp2
 -------------

 ------------------------------------------------------
 Input file generated by CHIRIPA (05-May-2021 14:57:24)
 ------------------------------------------------------
 Symbolic Z-matrix:
 Charge =  0 Multiplicity = 1

                         Standard orientation:
 ---------------------------------------------------------------------
 Center     Atomic      Atomic             Coordinates (Angstroms)
 Number     Number       Type             X           Y           Z
 ---------------------------------------------------------------------
      1          6           0        5.579731    1.641446    0.892505
      2          6           0        4.462204    2.111723    0.195013
      3          6           0        3.554216    1.216215   -0.377851
      4          6           0        3.795657   -0.149100   -0.233245
      5          6           0        4.899797   -0.648586    0.455724
      6          6           0        5.794582    0.265219    1.020409
      7          1           0        6.279949    2.344205    1.334343
      8          1           0        4.292815    3.179977    0.094094
      9          1           0        2.680877    1.552990   -0.923084
     10          1           0        5.041969   -1.719180    0.539590
     11          1           0        6.661609   -0.102865    1.561539
     12          7           0        2.841400   -1.106819   -0.835381
     13          8           0        3.076636   -2.304847   -0.693855
     14          8           0        1.876285   -0.641316   -1.437461
     15          6           0       -1.611697   -0.928549    0.330248
     16          6           0       -1.939987   -0.068753   -0.723078
     17          6           0       -3.234046    0.446888   -0.841712
     18          6           0       -4.179272    0.080179    0.115034
     19          6           0       -3.882931   -0.774307    1.175848
     20          6           0       -2.582505   -1.277965    1.274685
     21          1           0       -0.603968   -1.324458    0.414716
     22          1           0       -1.188080    0.204326   -1.458000
     23          1           0       -3.515322    1.114411   -1.647140
     24          1           0       -4.653923   -1.028421    1.893075
     25          1           0       -2.330395   -1.945495    2.093763
     26          7           0       -5.552603    0.619724   -0.000079
     27          8           0       -6.367236    0.281368    0.855799
     28          8           0       -5.788385    1.370757   -0.944003
 ---------------------------------------------------------------------

 SCF Done:  E(RHF) =  -868.340549191     A.U. after   16 cycles
 E2 =    -0.2598565829D+01 EUMP2 =    -0.87093911501980D+03

 The electronic state is 1-A.
 Alpha  occ. eigenvalues --  -20.62084 -20.62029 -20.60160 -20.60154 -15.87079
 Alpha  occ. eigenvalues --  -15.85206 -11.32097 -11.30380 -11.28636 -11.28609
 Alpha  occ. eigenvalues --  -11.28283 -11.27549 -11.27538 -11.26956 -11.26889
 Alpha  occ. eigenvalues --  -11.26456 -11.25895 -11.25706  -1.61121  -1.59240
 Alpha  occ. eigenvalues --   -1.40683  -1.38799  -1.20235  -1.18510  -1.09690
 Alpha  occ. eigenvalues --   -1.07904  -1.05583  -1.03884  -0.96582  -0.94781
 Alpha  occ. eigenvalues --   -0.86996  -0.85260  -0.83427  -0.81630  -0.78517
 Alpha  occ. eigenvalues --   -0.76732  -0.73306  -0.72434  -0.71426  -0.71331
 Alpha  occ. eigenvalues --   -0.70563  -0.69524  -0.65889  -0.65574  -0.64136
 Alpha  occ. eigenvalues --   -0.63831  -0.62934  -0.61230  -0.56084  -0.54272
 Alpha  occ. eigenvalues --   -0.53927  -0.53665  -0.52233  -0.51940  -0.50074
 Alpha  occ. eigenvalues --   -0.50016  -0.48195  -0.48163  -0.46149  -0.44249
 Alpha  occ. eigenvalues --   -0.38189  -0.37169  -0.36438  -0.35510
 Alpha virt. eigenvalues --    0.03956   0.05789   0.10490   0.12161   0.15511
 Alpha virt. eigenvalues --    0.17355   0.20606   0.22461   0.26559   0.27227
 Alpha virt. eigenvalues --    0.28416   0.29174   0.30466   0.31467   0.32232

 Mulliken charges:
               1
     1  C   -0.169456
     2  C   -0.218242
     3  C   -0.170336
     4  C    0.156656
     5  C   -0.170587
     6  C   -0.218452
     7  H    0.228996
     8  H    0.226571
     9  H    0.273689
    10  H    0.276665
    11  H    0.226313
    12  N    0.489450
    13  O   -0.455358
    14  O   -0.471906
    15  C   -0.173027
    16  C   -0.223364
    17  C   -0.173277
    18  C    0.157678
    19  C   -0.172573
    20  C   -0.219675
    21  H    0.235649
    22  H    0.236736
    23  H    0.272455
    24  H    0.272323
    25  H    0.220592
    26  N    0.488216
    27  O   -0.463013
    28  O   -0.462722
 Sum of Mulliken charges =  -0.00000

 Dipole moment (field-independent basis, Debye):
    X=              8.8556    Y=              1.4750    Z=              2.5172  Tot=              9.3238
 Quadrupole moment (field-independent basis, Debye-Ang):
   XX=           -118.8933   YY=           -102.5244   ZZ=           -102.8214
   XY=             19.5446   XZ=              6.6150   YZ=             -5.0500

 Normal termination of Gaussian 16 at Thu May  6 03:28:17 2021.
