 Gaussian 16, Revision A.03,
 Gaussian 16:  EM64L-G16RevA.03 25-Dec-2016

 -------------
 #p 6-31g* mp2
 -------------

 ------------------------------------------------------
 Input file generated by CHIRIPA (05-May-2021 14:53:13)
 ------------------------------------------------------
 Symbolic Z-matrix:
 Charge =  0 Multiplicity = 1

                         Standard orientation:
 ---------------------------------------------------------------------
 Center     Atomic      Atomic             Coordinates (Angstroms)
 Number     Number       Type             X           Y           Z
 ---------------------------------------------------------------------
      1          6           0       -4.690407    0.172599   -0.328686
      2          6           0       -6.204180    0.090348   -0.129410
      3          6           0       -6.963374    1.155703   -0.920886
      4          1           0       -4.341469    1.170829   -0.030818
      5          1           0       -4.462198    0.068039   -1.398444
      6          1           0       -6.429368    0.193647    0.939812
      7          1           0       -6.549527   -0.907866   -0.427606
      8          1           0       -6.767971    1.051308   -1.993043
      9          1           0       -6.647130    2.159079   -0.617856
     10          1           0       -8.043773    1.078625   -0.763859
     11          6           0       -3.917646   -0.885988    0.456146
     12          6           0       -2.403873   -0.803736    0.256870
     13          6           0       -1.644678   -1.869092    1.048347
     14          1           0       -4.145854   -0.781428    1.525905
     15          1           0       -4.266583   -1.884218    0.158279
     16          1           0       -2.058526    0.194477    0.555066
     17          1           0       -2.178684   -0.907035   -0.812352
     18          1           0       -1.960922   -2.872468    0.745316
     19          1           0       -1.840081   -1.764697    2.120504
     20          1           0       -0.564279   -1.792014    0.891320
     21          6           0        4.372959   -1.963390   -0.613805
     22          6           0        3.035844   -1.879379   -0.211827
     23          6           0        2.465503   -0.642419    0.103118
     24          6           0        3.264835    0.495421    0.004738
     25          6           0        4.600006    0.444288   -0.392744
     26          6           0        5.149404   -0.803335   -0.702823
     27          1           0        4.807879   -2.928432   -0.856572
     28          1           0        2.430467   -2.778633   -0.141797
     29          1           0        1.432975   -0.548641    0.416982
     30          1           0        5.178392    1.358205   -0.453109
     31          1           0        6.188100   -0.865567   -1.014726
     32          7           0        2.672126    1.810579    0.335581
     33          8           0        3.397518    2.798246    0.240934
     34          8           0        1.493394    1.828830    0.683278
 ---------------------------------------------------------------------

 SCF Done:  E(RHF) =  -669.535557072     A.U. after   15 cycles
 E2 =    -0.2091047189D+01 EUMP2 =    -0.67162660426117D+03

 The electronic state is 1-A.
 Alpha  occ. eigenvalues --  -20.60768 -20.60762 -15.85818 -11.31168 -11.27741
 Alpha  occ. eigenvalues --  -11.27722 -11.27486 -11.26758 -11.26742 -11.21596
 Alpha  occ. eigenvalues --  -11.21475 -11.21468 -11.21345 -11.21219 -11.20912
 Alpha  occ. eigenvalues --   -1.59840  -1.39394  -1.19343  -1.08742  -1.08368
 Alpha  occ. eigenvalues --   -1.04748  -1.03530  -0.96013  -0.95578  -0.87031
 Alpha  occ. eigenvalues --   -0.86144  -0.82412  -0.79576  -0.78152  -0.77461
 Alpha  occ. eigenvalues --   -0.72039  -0.71161  -0.70465  -0.65001  -0.64984
 Alpha  occ. eigenvalues --   -0.64758  -0.62150  -0.60909  -0.59390  -0.57612
 Alpha  occ. eigenvalues --   -0.55283  -0.55248  -0.53075  -0.52957  -0.52649
 Alpha  occ. eigenvalues --   -0.52395  -0.49923  -0.48795  -0.48793  -0.47900
 Alpha  occ. eigenvalues --   -0.46576  -0.45705  -0.45605  -0.44802  -0.43787
 Alpha  occ. eigenvalues --   -0.37326  -0.36348
 Alpha virt. eigenvalues --    0.05075   0.11305   0.16569   0.19796   0.22993
 Alpha virt. eigenvalues --    0.23821   0.26091   0.26762   0.27537   0.27954
 Alpha virt. eigenvalues --    0.29007   0.30707   0.31426   0.31647   0.32214

 Mulliken charges:
               1
     1  C   -0.299045
     2  C   -0.299741
     3  C   -0.475839
     4  H    0.154046
     5  H    0.149259
     6  H    0.152205
     7  H    0.150651
     8  H    0.154932
     9  H    0.156814
    10  H    0.159736
    11  C   -0.298741
    12  C   -0.303099
    13  C   -0.476353
    14  H    0.150573
    15  H    0.147701
    16  H    0.165535
    17  H    0.150513
    18  H    0.154548
    19  H    0.160312
    20  H    0.146287
    21  C   -0.170727
    22  C   -0.221395
    23  C   -0.181407
    24  C    0.160487
    25  C   -0.170251
    26  C   -0.218997
    27  H    0.225584
    28  H    0.223805
    29  H    0.287193
    30  H    0.275517
    31  H    0.223432
    32  N    0.487523
    33  O   -0.460395
    34  O   -0.460662
 Sum of Mulliken charges =  -0.00000

 Dipole moment (field-independent basis, Debye):
    X=              1.9988    Y=             -4.5414    Z=             -1.1457  Tot=              5.0923
 Quadrupole moment (field-independent basis, Debye-Ang):
   XX=            -77.6690   YY=            -99.1323   ZZ=            -95.0306
   XY=            -11.7467   XZ=             -5.3554   YZ=             -0.1779

 Normal termination of Gaussian 16 at Thu May  6 17:04:28 2021.
