 Gaussian 16, Revision A.03,
 Gaussian 16:  EM64L-G16RevA.03 25-Dec-2016

 -------------
 #p 6-31g* mp2
 -------------

 ------------------------------------------------------
 Input file generated by CHIRIPA (05-May-2021 14:53:15)
 ------------------------------------------------------
 Symbolic Z-matrix:
 Charge =  0 Multiplicity = 1

                         Standard orientation:
 ---------------------------------------------------------------------
 Center     Atomic      Atomic             Coordinates (Angstroms)
 Number     Number       Type             X           Y           Z
 ---------------------------------------------------------------------
      1          6           0        3.468596   -0.225683   -0.363236
      2          6           0        4.786429    0.039346    0.365502
      3          6           0        5.683150    1.030961   -0.376377
      4          1           0        3.684319   -0.606958   -1.370728
      5          1           0        2.933819    0.724901   -0.496643
      6          1           0        5.317920   -0.911646    0.498722
      7          1           0        4.567543    0.419853    1.371444
      8          1           0        5.175934    1.993710   -0.496578
      9          1           0        5.930575    0.654646   -1.374259
     10          1           0        6.619789    1.205858    0.162119
     11          6           0        2.561350   -1.214994    0.366077
     12          6           0        1.243517   -1.480023   -0.362661
     13          6           0        0.346797   -2.471639    0.379218
     14          1           0        3.096128   -2.165578    0.499484
     15          1           0        2.345628   -0.833720    1.373568
     16          1           0        1.462404   -1.860530   -1.368604
     17          1           0        0.712026   -0.529031   -0.495881
     18          1           0        0.099371   -2.095324    1.377100
     19          1           0        0.854012   -3.434387    0.499419
     20          1           0       -0.589842   -2.646536   -0.159279
     21          6           0       -1.242991    2.810435    0.275188
     22          6           0       -1.552794    2.335162   -1.003350
     23          6           0       -2.169201    1.091232   -1.168352
     24          6           0       -2.462996    0.345468   -0.027822
     25          6           0       -2.166850    0.791655    1.259231
     26          6           0       -1.550466    2.038526    1.400414
     27          1           0       -0.764160    3.777893    0.394114
     28          1           0       -1.315165    2.932481   -1.879014
     29          1           0       -2.420085    0.699168   -2.146494
     30          1           0       -2.415961    0.173500    2.113191
     31          1           0       -1.311027    2.405100    2.394566
     32          7           0       -3.115546   -0.972982   -0.189893
     33          8           0       -3.364055   -1.610822    0.830912
     34          8           0       -3.366151   -1.343578   -1.334660
 ---------------------------------------------------------------------

 SCF Done:  E(RHF) =  -669.535788139     A.U. after   15 cycles
 E2 =    -0.2093146525D+01 EUMP2 =    -0.67162893466396D+03

 The electronic state is 1-A.
 Alpha  occ. eigenvalues --  -20.60841 -20.60834 -15.85876 -11.31259 -11.27835
 Alpha  occ. eigenvalues --  -11.27828 -11.27585 -11.26860 -11.26848 -11.21742
 Alpha  occ. eigenvalues --  -11.21474 -11.21388 -11.21316 -11.21268 -11.20644
 Alpha  occ. eigenvalues --   -1.59913  -1.39463  -1.19443  -1.08833  -1.08428
 Alpha  occ. eigenvalues --   -1.04845  -1.03482  -0.95925  -0.95665  -0.86934
 Alpha  occ. eigenvalues --   -0.86238  -0.82495  -0.79552  -0.78239  -0.77540
 Alpha  occ. eigenvalues --   -0.72102  -0.71261  -0.70544  -0.65095  -0.65067
 Alpha  occ. eigenvalues --   -0.64843  -0.62189  -0.60894  -0.59294  -0.57528
 Alpha  occ. eigenvalues --   -0.55350  -0.55233  -0.53162  -0.52933  -0.52574
 Alpha  occ. eigenvalues --   -0.52344  -0.49877  -0.48867  -0.48857  -0.47854
 Alpha  occ. eigenvalues --   -0.46603  -0.45770  -0.45701  -0.44853  -0.43717
 Alpha  occ. eigenvalues --   -0.37407  -0.36438
 Alpha virt. eigenvalues --    0.04971   0.11169   0.16468   0.21308   0.22756
 Alpha virt. eigenvalues --    0.24136   0.26539   0.27098   0.27469   0.27719
 Alpha virt. eigenvalues --    0.28449   0.30879   0.31320   0.31592   0.32008

 Mulliken charges:
               1
     1  C   -0.297516
     2  C   -0.299359
     3  C   -0.475266
     4  H    0.150156
     5  H    0.145924
     6  H    0.153283
     7  H    0.150302
     8  H    0.152415
     9  H    0.155880
    10  H    0.160398
    11  C   -0.297027
    12  C   -0.304194
    13  C   -0.480953
    14  H    0.150449
    15  H    0.146881
    16  H    0.152201
    17  H    0.151786
    18  H    0.153009
    19  H    0.156004
    20  H    0.171238
    21  C   -0.171247
    22  C   -0.218350
    23  C   -0.171944
    24  C    0.161057
    25  C   -0.171420
    26  C   -0.218669
    27  H    0.225966
    28  H    0.224101
    29  H    0.276223
    30  H    0.276053
    31  H    0.223729
    32  N    0.488090
    33  O   -0.458648
    34  O   -0.460549
 Sum of Mulliken charges =  -0.00000

 Dipole moment (field-independent basis, Debye):
    X=              2.1843    Y=              4.5988    Z=              0.5616  Tot=              5.1220
 Quadrupole moment (field-independent basis, Debye-Ang):
   XX=           -107.4825   YY=            -91.7539   ZZ=            -89.7830
   XY=            -11.6280   XZ=             -1.4130   YZ=              0.0723

 Normal termination of Gaussian 16 at Thu May  6 17:11:28 2021.
