 Gaussian 16, Revision A.03,
 Gaussian 16:  EM64L-G16RevA.03 25-Dec-2016

 -------------
 #p 6-31g* mp2
 -------------

 ------------------------------------------------------
 Input file generated by CHIRIPA (05-May-2021 14:51:09)
 ------------------------------------------------------
 Symbolic Z-matrix:
 Charge =  0 Multiplicity = 1

                         Standard orientation:
 ---------------------------------------------------------------------
 Center     Atomic      Atomic             Coordinates (Angstroms)
 Number     Number       Type             X           Y           Z
 ---------------------------------------------------------------------
      1          6           0        3.778964   -0.385479   -0.386574
      2          6           0        4.774980    0.511687    0.348974
      3          6           0        5.944583    0.945540   -0.535105
      4          1           0        4.304332   -1.273483   -0.763910
      5          1           0        3.395816    0.148684   -1.267065
      6          1           0        5.155094   -0.023487    1.228587
      7          1           0        4.247142    1.397565    0.724768
      8          1           0        5.583463    1.502148   -1.405955
      9          1           0        6.496574    0.073022   -0.899274
     10          1           0        6.644326    1.586125    0.010670
     11          6           0        2.604087   -0.827460    0.484084
     12          6           0        1.608071   -1.724625   -0.251464
     13          6           0        0.438468   -2.158478    0.632614
     14          1           0        2.987235   -1.361622    1.364574
     15          1           0        2.078719    0.060544    0.861420
     16          1           0        2.135910   -2.610504   -0.627258
     17          1           0        1.227957   -1.189452   -1.131077
     18          1           0       -0.113523   -1.285961    0.996783
     19          1           0        0.799588   -2.715087    1.503465
     20          1           0       -0.261275   -2.799064    0.086840
     21          6           0       -3.128944    1.320393   -0.313005
     22          6           0       -2.241036    2.212615    0.555066
     23          6           0       -2.125629    3.637796    0.013463
     24          1           0       -2.724925    1.294460   -1.334298
     25          1           0       -4.129585    1.768803   -0.384010
     26          1           0       -1.242766    1.761945    0.625548
     27          1           0       -2.647109    2.236274    1.574459
     28          1           0       -3.111702    4.110378   -0.040646
     29          1           0       -1.699379    3.633354   -0.994949
     30          1           0       -1.486441    4.258352    0.649236
     31          6           0       -3.254107   -0.107455    0.215494
     32          6           0       -4.142015   -0.999676   -0.652575
     33          6           0       -4.257422   -2.424857   -0.110972
     34          1           0       -2.253466   -0.555864    0.286499
     35          1           0       -3.658127   -0.081521    1.236788
     36          1           0       -3.735942   -1.023336   -1.671968
     37          1           0       -5.140285   -0.549006   -0.723057
     38          1           0       -4.683672   -2.420415    0.897438
     39          1           0       -3.271349   -2.897439   -0.056863
     40          1           0       -4.896611   -3.045413   -0.746746
 ---------------------------------------------------------------------

 SCF Done:  E(RHF) =  -470.733168944     A.U. after   11 cycles
 E2 =    -0.1583139650D+01 EUMP2 =    -0.47231630859436D+03

 The electronic state is 1-A.
 Alpha  occ. eigenvalues --  -11.21675 -11.21637 -11.21631 -11.21562 -11.21457
 Alpha  occ. eigenvalues --  -11.21395 -11.21377 -11.21278 -11.21145 -11.21100
 Alpha  occ. eigenvalues --  -11.21093 -11.21031  -1.08485  -1.08410  -1.03587
 Alpha  occ. eigenvalues --   -1.03518  -0.96041  -0.95961  -0.87062  -0.86976
 Alpha  occ. eigenvalues --   -0.79667  -0.79570  -0.78311  -0.78204  -0.65189
 Alpha  occ. eigenvalues --   -0.64985  -0.61009  -0.60903  -0.59422  -0.59310
 Alpha  occ. eigenvalues --   -0.57674  -0.57552  -0.55439  -0.55156  -0.52740
 Alpha  occ. eigenvalues --   -0.52664  -0.52500  -0.52349  -0.50091  -0.49824
 Alpha  occ. eigenvalues --   -0.47970  -0.47898  -0.46775  -0.46603  -0.45917
 Alpha  occ. eigenvalues --   -0.45784  -0.45740  -0.45430  -0.43826  -0.43766
 Alpha virt. eigenvalues --    0.20482   0.22982   0.23646   0.24146   0.25919
 Alpha virt. eigenvalues --    0.26672   0.27034   0.27168   0.27667   0.29465
 Alpha virt. eigenvalues --    0.30209   0.31631   0.31717   0.31859   0.32131

 Mulliken charges:
               1
     1  C   -0.298309
     2  C   -0.299726
     3  C   -0.475744
     4  H    0.149815
     5  H    0.149506
     6  H    0.152037
     7  H    0.152086
     8  H    0.155231
     9  H    0.155216
    10  H    0.160399
    11  C   -0.298791
    12  C   -0.299961
    13  C   -0.482458
    14  H    0.149936
    15  H    0.149762
    16  H    0.152475
    17  H    0.151626
    18  H    0.160225
    19  H    0.156309
    20  H    0.161070
    21  C   -0.297680
    22  C   -0.300263
    23  C   -0.475663
    24  H    0.149167
    25  H    0.149528
    26  H    0.150733
    27  H    0.152283
    28  H    0.155554
    29  H    0.155046
    30  H    0.160161
    31  C   -0.307659
    32  C   -0.298898
    33  C   -0.477457
    34  H    0.160265
    35  H    0.149089
    36  H    0.151420
    37  H    0.151652
    38  H    0.155252
    39  H    0.156845
    40  H    0.159922
 Sum of Mulliken charges =  -0.00000

 Dipole moment (field-independent basis, Debye):
    X=              0.0347    Y=             -0.0157    Z=              0.0160  Tot=              0.0413
 Quadrupole moment (field-independent basis, Debye-Ang):
   XX=            -84.7301   YY=            -85.3138   ZZ=            -84.7326
   XY=             -1.2564   XZ=              0.1905   YZ=              0.3691

 Normal termination of Gaussian 16 at Thu May  6 02:08:03 2021.
