 Gaussian 16, Revision A.03,
 Gaussian 16:  EM64L-G16RevA.03 25-Dec-2016

 -------------
 #p 6-31g* mp2
 -------------

 ------------------------------------------------------
 Input file generated by CHIRIPA (05-May-2021 14:51:11)
 ------------------------------------------------------
 Symbolic Z-matrix:
 Charge =  0 Multiplicity = 1

                         Standard orientation:
 ---------------------------------------------------------------------
 Center     Atomic      Atomic             Coordinates (Angstroms)
 Number     Number       Type             X           Y           Z
 ---------------------------------------------------------------------
      1          6           0       -3.061778    0.164248   -0.099027
      2          6           0       -4.487173    0.099076   -0.648561
      3          6           0       -4.917060    1.397330   -1.332322
      4          1           0       -2.987963    0.997366    0.613302
      5          1           0       -2.369496    0.393505   -0.920965
      6          1           0       -5.176402   -0.131356    0.173923
      7          1           0       -4.557653   -0.734102   -1.359520
      8          1           0       -4.252862    1.629152   -2.171192
      9          1           0       -4.875127    2.235322   -0.629036
     10          1           0       -5.939113    1.328716   -1.717755
     11          6           0       -2.617563   -1.126167    0.587435
     12          6           0       -1.192169   -1.060995    1.136969
     13          6           0       -0.762282   -2.359248    1.820730
     14          1           0       -3.309845   -1.355424    1.409373
     15          1           0       -2.691378   -1.959284   -0.124893
     16          1           0       -1.121689   -0.227817    1.847928
     17          1           0       -0.502940   -0.830562    0.314485
     18          1           0       -0.804214   -3.197240    1.117444
     19          1           0       -1.426479   -2.591070    2.659600
     20          1           0        0.259772   -2.290635    2.206163
     21          6           0        3.058429    1.142527    0.068694
     22          6           0        1.909768    2.134481    0.254672
     23          6           0        2.363189    3.453202    0.881711
     24          1           0        3.525544    0.945283    1.043294
     25          1           0        3.832290    1.602298   -0.561499
     26          1           0        1.137678    1.672463    0.883188
     27          1           0        1.445210    2.329239   -0.720454
     28          1           0        3.117190    3.939078    0.254010
     29          1           0        2.807909    3.278569    1.866764
     30          1           0        1.526281    4.147537    1.005584
     31          6           0        2.620912   -0.180608   -0.557102
     32          6           0        3.769574   -1.172563   -0.743081
     33          6           0        3.316153   -2.491284   -1.370120
     34          1           0        1.847052   -0.640380    0.073091
     35          1           0        2.153797    0.016635   -1.531702
     36          1           0        4.234131   -1.367321    0.232046
     37          1           0        4.541664   -0.710543   -1.371595
     38          1           0        2.871432   -2.316651   -2.355172
     39          1           0        2.562152   -2.977158   -0.742418
     40          1           0        4.153061   -3.185618   -1.493992
 ---------------------------------------------------------------------

 SCF Done:  E(RHF) =  -470.733217177     A.U. after   11 cycles
 E2 =    -0.1583479584D+01 EUMP2 =    -0.47231669676073D+03

 The electronic state is 1-A.
 Alpha  occ. eigenvalues --  -11.21599 -11.21598 -11.21598 -11.21555 -11.21406
 Alpha  occ. eigenvalues --  -11.21383 -11.21345 -11.21324 -11.21136 -11.21074
 Alpha  occ. eigenvalues --  -11.21069 -11.21048  -1.08456  -1.08400  -1.03551
 Alpha  occ. eigenvalues --   -1.03512  -0.96005  -0.95962  -0.87014  -0.86983
 Alpha  occ. eigenvalues --   -0.79629  -0.79575  -0.78380  -0.78101  -0.65146
 Alpha  occ. eigenvalues --   -0.64984  -0.60998  -0.60864  -0.59375  -0.59332
 Alpha  occ. eigenvalues --   -0.57664  -0.57531  -0.55306  -0.55234  -0.52704
 Alpha  occ. eigenvalues --   -0.52655  -0.52425  -0.52395  -0.49986  -0.49866
 Alpha  occ. eigenvalues --   -0.47983  -0.47901  -0.46778  -0.46564  -0.46081
 Alpha  occ. eigenvalues --   -0.45757  -0.45713  -0.45207  -0.43799  -0.43763
 Alpha virt. eigenvalues --    0.20926   0.23164   0.23696   0.24270   0.25893
 Alpha virt. eigenvalues --    0.26320   0.26725   0.27716   0.28115   0.29637
 Alpha virt. eigenvalues --    0.30619   0.31432   0.31663   0.31952   0.32193

 Mulliken charges:
               1
     1  C   -0.298445
     2  C   -0.299671
     3  C   -0.475680
     4  H    0.149586
     5  H    0.150138
     6  H    0.151878
     7  H    0.151948
     8  H    0.155175
     9  H    0.155181
    10  H    0.160229
    11  C   -0.297685
    12  C   -0.307335
    13  C   -0.476981
    14  H    0.149325
    15  H    0.149765
    16  H    0.151888
    17  H    0.159487
    18  H    0.155609
    19  H    0.155802
    20  H    0.159627
    21  C   -0.297609
    22  C   -0.302474
    23  C   -0.475681
    24  H    0.149259
    25  H    0.149371
    26  H    0.155583
    27  H    0.151434
    28  H    0.155057
    29  H    0.154955
    30  H    0.160178
    31  C   -0.306796
    32  C   -0.298858
    33  C   -0.476262
    34  H    0.159071
    35  H    0.148503
    36  H    0.151764
    37  H    0.151906
    38  H    0.154800
    39  H    0.155589
    40  H    0.160369
 Sum of Mulliken charges =  -0.00000

 Dipole moment (field-independent basis, Debye):
    X=             -0.0178    Y=             -0.0078    Z=              0.0008  Tot=              0.0194
 Quadrupole moment (field-independent basis, Debye-Ang):
   XX=            -84.9599   YY=            -86.3322   ZZ=            -83.6023
   XY=              0.1476   XZ=             -0.7815   YZ=             -0.0302

 Normal termination of Gaussian 16 at Wed May  5 15:15:18 2021.
