 Gaussian 16, Revision A.03,
 Gaussian 16:  EM64L-G16RevA.03 25-Dec-2016

 -------------
 #p 6-31g* mp2
 -------------

 ------------------------------------------------------
 Input file generated by CHIRIPA (05-May-2021 14:53:12)
 ------------------------------------------------------
 Symbolic Z-matrix:
 Charge =  0 Multiplicity = 1

                         Standard orientation:
 ---------------------------------------------------------------------
 Center     Atomic      Atomic             Coordinates (Angstroms)
 Number     Number       Type             X           Y           Z
 ---------------------------------------------------------------------
      1          6           0       -3.276336   -0.608692    0.220153
      2          6           0       -3.870943   -1.628202   -0.751972
      3          6           0       -3.903035   -3.044518   -0.176809
      4          1           0       -2.257755   -0.919585    0.489936
      5          1           0       -3.861581   -0.614603    1.150126
      6          1           0       -3.285589   -1.619381   -1.680357
      7          1           0       -4.888157   -1.314744   -1.019621
      8          1           0       -4.503634   -3.075275    0.738033
      9          1           0       -2.891960   -3.381642    0.073543
     10          1           0       -4.331832   -3.757128   -0.888272
     11          6           0       -3.237465    0.811828   -0.340506
     12          6           0       -2.642858    1.831338    0.631619
     13          6           0       -2.610766    3.247654    0.056456
     14          1           0       -2.652220    0.817739   -1.270479
     15          1           0       -4.256046    1.122721   -0.610289
     16          1           0       -1.625644    1.517881    0.899268
     17          1           0       -3.228212    1.822517    1.560004
     18          1           0       -3.621840    3.584778   -0.193896
     19          1           0       -2.010167    3.278411   -0.858386
     20          1           0       -2.181969    3.960264    0.767919
     21          6           0        2.136805   -0.302892    2.526887
     22          6           0        1.163432    0.277503    1.707004
     23          6           0        1.378538    0.406501    0.331636
     24          6           0        2.583863   -0.057739   -0.192732
     25          6           0        3.573011   -0.640524    0.597988
     26          6           0        3.336373   -0.759248    1.970743
     27          1           0        1.961342   -0.399110    3.594290
     28          1           0        0.230891    0.632800    2.136163
     29          1           0        0.642061    0.851832   -0.326163
     30          1           0        4.492706   -0.985384    0.141205
     31          1           0        4.094097   -1.210409    2.605056
     32          7           0        2.822984    0.073387   -1.647389
     33          8           0        3.893241   -0.343475   -2.084895
     34          8           0        1.935621    0.590544   -2.322500
 ---------------------------------------------------------------------

 SCF Done:  E(RHF) =  -669.535443317     A.U. after   15 cycles
 E2 =    -0.2092132985D+01 EUMP2 =    -0.67162757630239D+03

 The electronic state is 1-A.
 Alpha  occ. eigenvalues --  -20.60787 -20.60781 -15.85839 -11.31195 -11.27765
 Alpha  occ. eigenvalues --  -11.27755 -11.27497 -11.26777 -11.26742 -11.22391
 Alpha  occ. eigenvalues --  -11.21867 -11.21834 -11.21779 -11.21560 -11.21268
 Alpha  occ. eigenvalues --   -1.59861  -1.39415  -1.19366  -1.08902  -1.08760
 Alpha  occ. eigenvalues --   -1.04773  -1.03966  -0.96377  -0.95599  -0.87397
 Alpha  occ. eigenvalues --   -0.86165  -0.82443  -0.80065  -0.78709  -0.77476
 Alpha  occ. eigenvalues --   -0.72058  -0.71184  -0.70480  -0.65575  -0.65007
 Alpha  occ. eigenvalues --   -0.64773  -0.62202  -0.61281  -0.59757  -0.57996
 Alpha  occ. eigenvalues --   -0.55652  -0.55266  -0.53104  -0.53081  -0.52872
 Alpha  occ. eigenvalues --   -0.52778  -0.50321  -0.48818  -0.48814  -0.48349
 Alpha  occ. eigenvalues --   -0.47103  -0.46235  -0.46133  -0.44823  -0.44214
 Alpha  occ. eigenvalues --   -0.37344  -0.36367
 Alpha virt. eigenvalues --    0.05036   0.11283   0.16480   0.19090   0.22723
 Alpha virt. eigenvalues --    0.23830   0.25038   0.26215   0.27637   0.28223
 Alpha virt. eigenvalues --    0.29634   0.29968   0.31316   0.31496   0.32478

 Mulliken charges:
               1
     1  C   -0.299373
     2  C   -0.300602
     3  C   -0.476163
     4  H    0.146050
     5  H    0.148572
     6  H    0.156736
     7  H    0.153011
     8  H    0.154028
     9  H    0.155531
    10  H    0.162373
    11  C   -0.300666
    12  C   -0.306333
    13  C   -0.476909
    14  H    0.155813
    15  H    0.153349
    16  H    0.141805
    17  H    0.153373
    18  H    0.159029
    19  H    0.160821
    20  H    0.160124
    21  C   -0.170608
    22  C   -0.223752
    23  C   -0.174578
    24  C    0.158944
    25  C   -0.170749
    26  C   -0.218663
    27  H    0.226013
    28  H    0.229383
    29  H    0.277274
    30  H    0.275607
    31  H    0.223525
    32  N    0.488395
    33  O   -0.460283
    34  O   -0.461078
 Sum of Mulliken charges =  -0.00000

 Dipole moment (field-independent basis, Debye):
    X=             -0.9721    Y=             -0.4501    Z=              5.0270  Tot=              5.1398
 Quadrupole moment (field-independent basis, Debye-Ang):
   XX=            -93.7597   YY=            -95.3348   ZZ=            -97.1684
   XY=             -3.8369   XZ=             14.1384   YZ=             -0.2086

 Normal termination of Gaussian 16 at Wed May  5 20:07:24 2021.
