 Gaussian 16, Revision A.03,
 Gaussian 16:  EM64L-G16RevA.03 25-Dec-2016

 -------------
 #p 6-31g* mp2
 -------------

 ------------------------------------------------------
 Input file generated by CHIRIPA (05-May-2021 14:57:25)
 ------------------------------------------------------
 Symbolic Z-matrix:
 Charge =  0 Multiplicity = 1

                         Standard orientation:
 ---------------------------------------------------------------------
 Center     Atomic      Atomic             Coordinates (Angstroms)
 Number     Number       Type             X           Y           Z
 ---------------------------------------------------------------------
      1          6           0        2.338949    2.337350   -0.452087
      2          6           0        1.771739    1.093505   -0.748133
      3          6           0        2.514482   -0.080664   -0.592549
      4          6           0        3.827539    0.026297   -0.136775
      5          6           0        4.420780    1.250782    0.166529
      6          6           0        3.659332    2.411887    0.003496
      7          1           0        1.754703    3.244399   -0.575841
      8          1           0        0.746541    1.032595   -1.102118
      9          1           0        2.100174   -1.056656   -0.814375
     10          1           0        5.445157    1.279634    0.517580
     11          1           0        4.102435    3.376505    0.234182
     12          7           0        4.623749   -1.209829    0.031878
     13          8           0        5.778520   -1.088693    0.434951
     14          8           0        4.077972   -2.276434   -0.242198
     15          6           0       -6.034092    0.281209   -0.635027
     16          6           0       -5.121662   -0.342258   -1.492512
     17          6           0       -3.823719   -0.630298   -1.060162
     18          6           0       -3.470307   -0.279449    0.241873
     19          6           0       -4.356628    0.342510    1.119877
     20          6           0       -5.649342    0.621005    0.666136
     21          1           0       -7.040334    0.501258   -0.979196
     22          1           0       -5.417696   -0.607286   -2.503536
     23          1           0       -3.097268   -1.112276   -1.703111
     24          1           0       -4.032364    0.594711    2.122206
     25          1           0       -6.355842    1.105270    1.334259
     26          7           0       -2.099001   -0.579332    0.710906
     27          8           0       -1.812265   -0.260111    1.862650
     28          8           0       -1.336873   -1.127922   -0.082094
 ---------------------------------------------------------------------

 SCF Done:  E(RHF) =  -868.339224962     A.U. after   16 cycles
 E2 =    -0.2598831934D+01 EUMP2 =    -0.87093805689654D+03

 The electronic state is 1-A.
 Alpha  occ. eigenvalues --  -20.61603 -20.61554 -20.59825 -20.59804 -15.86608
 Alpha  occ. eigenvalues --  -15.84864 -11.31812 -11.30097 -11.28365 -11.28344
 Alpha  occ. eigenvalues --  -11.28055 -11.27328 -11.27315 -11.26737 -11.26537
 Alpha  occ. eigenvalues --  -11.26462 -11.25768 -11.25569  -1.60641  -1.58894
 Alpha  occ. eigenvalues --   -1.40200  -1.38450  -1.19966  -1.18274  -1.09388
 Alpha  occ. eigenvalues --   -1.07719  -1.05340  -1.03637  -0.96249  -0.94564
 Alpha  occ. eigenvalues --   -0.86745  -0.85069  -0.83085  -0.81382  -0.78155
 Alpha  occ. eigenvalues --   -0.76431  -0.72825  -0.71959  -0.71092  -0.71062
 Alpha  occ. eigenvalues --   -0.70212  -0.69422  -0.65617  -0.65333  -0.63932
 Alpha  occ. eigenvalues --   -0.63659  -0.62686  -0.60975  -0.55836  -0.54229
 Alpha  occ. eigenvalues --   -0.53683  -0.53424  -0.52004  -0.51737  -0.49593
 Alpha  occ. eigenvalues --   -0.49557  -0.47851  -0.47835  -0.45628  -0.43883
 Alpha  occ. eigenvalues --   -0.37936  -0.36938  -0.36300  -0.35218
 Alpha virt. eigenvalues --    0.04337   0.06080   0.10717   0.12407   0.15852
 Alpha virt. eigenvalues --    0.17580   0.20887   0.22457   0.26820   0.27639
 Alpha virt. eigenvalues --    0.28451   0.29297   0.30503   0.31781   0.32202

 Mulliken charges:
               1
     1  C   -0.171261
     2  C   -0.215773
     3  C   -0.166609
     4  C    0.157108
     5  C   -0.172229
     6  C   -0.219035
     7  H    0.220196
     8  H    0.225986
     9  H    0.283740
    10  H    0.272059
    11  H    0.218761
    12  N    0.488167
    13  O   -0.464733
    14  O   -0.459373
    15  C   -0.170193
    16  C   -0.218454
    17  C   -0.172042
    18  C    0.156954
    19  C   -0.170927
    20  C   -0.218545
    21  H    0.227697
    22  H    0.225325
    23  H    0.274998
    24  H    0.276762
    25  H    0.225383
    26  N    0.487961
    27  O   -0.454488
    28  O   -0.467435
 Sum of Mulliken charges =  -0.00000

 Dipole moment (field-independent basis, Debye):
    X=             -8.1202    Y=              5.2771    Z=             -2.1989  Tot=              9.9308
 Quadrupole moment (field-independent basis, Debye-Ang):
   XX=            -90.6001   YY=           -104.5067   ZZ=           -101.7726
   XY=             15.7065   XZ=              2.9834   YZ=              3.2372

 Normal termination of Gaussian 16 at Thu May  6 03:31:58 2021.
