 Gaussian 16, Revision A.03,
 Gaussian 16:  EM64L-G16RevA.03 25-Dec-2016

 -------------
 #p 6-31g* mp2
 -------------

 ------------------------------------------------------
 Input file generated by CHIRIPA (05-May-2021 14:53:12)
 ------------------------------------------------------
 Symbolic Z-matrix:
 Charge =  0 Multiplicity = 1

                         Standard orientation:
 ---------------------------------------------------------------------
 Center     Atomic      Atomic             Coordinates (Angstroms)
 Number     Number       Type             X           Y           Z
 ---------------------------------------------------------------------
      1          6           0       -2.586898    0.830511    0.039541
      2          6           0       -2.753248    2.344103   -0.099570
      3          6           0       -1.418224    3.089294   -0.085651
      4          1           0       -2.052609    0.611113    0.974070
      5          1           0       -1.951589    0.461829   -0.777681
      6          1           0       -3.389189    2.709621    0.716881
      7          1           0       -3.287372    2.559912   -1.033782
      8          1           0       -0.780572    2.752746   -0.909506
      9          1           0       -0.882968    2.903305    0.851104
     10          1           0       -1.560502    4.169795   -0.186325
     11          6           0       -3.912701    0.071678    0.027325
     12          6           0       -3.746351   -1.441914    0.166435
     13          6           0       -5.081375   -2.187105    0.152517
     14          1           0       -4.548010    0.440360    0.844547
     15          1           0       -4.446990    0.291076   -0.907204
     16          1           0       -3.212227   -1.657724    1.100648
     17          1           0       -3.110410   -1.807432   -0.650015
     18          1           0       -5.616631   -2.001116   -0.784238
     19          1           0       -5.719027   -1.850557    0.976371
     20          1           0       -4.939097   -3.267606    0.253191
     21          6           0        2.099173   -2.833310   -0.159274
     22          6           0        3.392427   -2.364208    0.093620
     23          6           0        3.647683   -0.991754    0.169540
     24          6           0        2.581417   -0.112574   -0.013247
     25          6           0        1.281960   -0.549023   -0.266644
     26          6           0        1.049916   -1.925821   -0.338285
     27          1           0        1.909900   -3.901152   -0.216587
     28          1           0        4.209223   -3.066666    0.233053
     29          1           0        4.639210   -0.601299    0.364057
     30          1           0        0.488071    0.175562   -0.401316
     31          1           0        0.044544   -2.287271   -0.534818
     32          7           0        2.839358    1.342681    0.064860
     33          8           0        1.882810    2.096690   -0.099823
     34          8           0        3.993198    1.701744    0.289284
 ---------------------------------------------------------------------

 SCF Done:  E(RHF) =  -669.535329857     A.U. after   15 cycles
 E2 =    -0.2093069507D+01 EUMP2 =    -0.67162839936421D+03

 The electronic state is 1-A.
 Alpha  occ. eigenvalues --  -20.60755 -20.60740 -15.85788 -11.31110 -11.27697
 Alpha  occ. eigenvalues --  -11.27621 -11.27434 -11.26708 -11.26668 -11.22199
 Alpha  occ. eigenvalues --  -11.21782 -11.21722 -11.21539 -11.21395 -11.20235
 Alpha  occ. eigenvalues --   -1.59825  -1.39380  -1.19288  -1.08713  -1.08694
 Alpha  occ. eigenvalues --   -1.04682  -1.03624  -0.96023  -0.95534  -0.87037
 Alpha  occ. eigenvalues --   -0.86085  -0.82370  -0.79727  -0.78590  -0.77360
 Alpha  occ. eigenvalues --   -0.72015  -0.71143  -0.70404  -0.65345  -0.64944
 Alpha  occ. eigenvalues --   -0.64690  -0.62039  -0.61011  -0.59492  -0.57636
 Alpha  occ. eigenvalues --   -0.55291  -0.55196  -0.53024  -0.52818  -0.52681
 Alpha  occ. eigenvalues --   -0.52394  -0.49979  -0.48806  -0.48770  -0.47915
 Alpha  occ. eigenvalues --   -0.46784  -0.45981  -0.45944  -0.44765  -0.43915
 Alpha  occ. eigenvalues --   -0.37280  -0.36285
 Alpha virt. eigenvalues --    0.05079   0.11350   0.16566   0.19821   0.22787
 Alpha virt. eigenvalues --    0.23494   0.24765   0.26600   0.27216   0.28300
 Alpha virt. eigenvalues --    0.29884   0.30848   0.31570   0.31644   0.32414

 Mulliken charges:
               1
     1  C   -0.303280
     2  C   -0.301428
     3  C   -0.476120
     4  H    0.150565
     5  H    0.139821
     6  H    0.151449
     7  H    0.150463
     8  H    0.164732
     9  H    0.162985
    10  H    0.159796
    11  C   -0.296783
    12  C   -0.301325
    13  C   -0.475489
    14  H    0.153019
    15  H    0.151748
    16  H    0.151571
    17  H    0.144389
    18  H    0.156980
    19  H    0.157938
    20  H    0.159131
    21  C   -0.170651
    22  C   -0.219146
    23  C   -0.170236
    24  C    0.157242
    25  C   -0.179385
    26  C   -0.224282
    27  H    0.225411
    28  H    0.223080
    29  H    0.275202
    30  H    0.289103
    31  H    0.226153
    32  N    0.491616
    33  O   -0.463861
    34  O   -0.460408
 Sum of Mulliken charges =  -0.00000

 Dipole moment (field-independent basis, Debye):
    X=             -0.9362    Y=             -4.9476    Z=             -0.2255  Tot=              5.0405
 Quadrupole moment (field-independent basis, Debye-Ang):
   XX=            -95.4030   YY=            -94.1005   ZZ=            -94.4356
   XY=            -14.8636   XZ=              0.1112   YZ=              0.0071

 Normal termination of Gaussian 16 at Thu May  6 10:26:36 2021.
