 Gaussian 16, Revision A.03,
 Gaussian 16:  EM64L-G16RevA.03 25-Dec-2016

 -------------
 #p 6-31g* mp2
 -------------

 ------------------------------------------------------
 Input file generated by CHIRIPA (05-May-2021 14:51:08)
 ------------------------------------------------------
 Symbolic Z-matrix:
 Charge =  0 Multiplicity = 1

                         Standard orientation:
 ---------------------------------------------------------------------
 Center     Atomic      Atomic             Coordinates (Angstroms)
 Number     Number       Type             X           Y           Z
 ---------------------------------------------------------------------
      1          6           0       -3.825610   -0.468738   -0.213700
      2          6           0       -2.958295   -1.221319    0.795939
      3          6           0       -1.515944   -1.398134    0.320381
      4          1           0       -3.816990   -1.009561   -1.169933
      5          1           0       -3.379149    0.516363   -0.407718
      6          1           0       -3.407009   -2.204163    0.989042
      7          1           0       -2.969135   -0.678743    1.749936
      8          1           0       -1.045810   -0.424936    0.145855
      9          1           0       -1.486171   -1.959024   -0.619362
     10          1           0       -0.913657   -1.938592    1.057277
     11          6           0       -5.270243   -0.284085    0.247458
     12          6           0       -6.137559    0.468496   -0.762181
     13          6           0       -7.579909    0.645312   -0.286624
     14          1           0       -5.716705   -1.269186    0.441476
     15          1           0       -5.278864    0.256739    1.203690
     16          1           0       -6.126718   -0.074080   -1.716178
     17          1           0       -5.688845    1.451341   -0.955284
     18          1           0       -7.609683    1.206201    0.653120
     19          1           0       -8.050044   -0.327887   -0.112097
     20          1           0       -8.182197    1.185769   -1.023520
     21          6           0        5.287336    0.325811    0.167908
     22          6           0        6.045085   -0.724224   -0.645252
     23          6           0        7.523096   -0.813632   -0.264091
     24          1           0        5.764182    1.305189    0.025143
     25          1           0        5.377540    0.087064    1.236673
     26          1           0        5.952319   -0.484344   -1.712242
     27          1           0        5.566264   -1.701182   -0.500686
     28          1           0        7.633109   -1.075958    0.793115
     29          1           0        8.021358    0.147794   -0.425326
     30          1           0        8.045680   -1.570314   -0.857553
     31          6           0        3.808518    0.427012   -0.201666
     32          6           0        3.050769    1.477047    0.611494
     33          6           0        1.572758    1.566454    0.230333
     34          1           0        3.718314    0.665758   -1.270431
     35          1           0        3.331672   -0.552365   -0.058901
     36          1           0        3.529590    2.454005    0.466928
     37          1           0        3.143536    1.237167    1.678485
     38          1           0        1.074497    0.605029    0.391567
     39          1           0        1.462745    1.828780   -0.826872
     40          1           0        1.050173    2.323137    0.823796
 ---------------------------------------------------------------------

 SCF Done:  E(RHF) =  -470.733243902     A.U. after   11 cycles
 E2 =    -0.1582213201D+01 EUMP2 =    -0.47231545710320D+03

 The electronic state is 1-A.
 Alpha  occ. eigenvalues --  -11.21586 -11.21583 -11.21582 -11.21581 -11.21384
 Alpha  occ. eigenvalues --  -11.21381 -11.21324 -11.21321 -11.21059 -11.21057
 Alpha  occ. eigenvalues --  -11.21032 -11.21027  -1.08413  -1.08404  -1.03528
 Alpha  occ. eigenvalues --   -1.03494  -0.95999  -0.95927  -0.87041  -0.86923
 Alpha  occ. eigenvalues --   -0.79636  -0.79518  -0.78235  -0.78205  -0.65066
 Alpha  occ. eigenvalues --   -0.65015  -0.61011  -0.60821  -0.59336  -0.59322
 Alpha  occ. eigenvalues --   -0.57636  -0.57520  -0.55442  -0.55084  -0.52687
 Alpha  occ. eigenvalues --   -0.52656  -0.52505  -0.52256  -0.50108  -0.49696
 Alpha  occ. eigenvalues --   -0.47998  -0.47780  -0.46719  -0.46465  -0.45807
 Alpha  occ. eigenvalues --   -0.45733  -0.45699  -0.45613  -0.43771  -0.43761
 Alpha virt. eigenvalues --    0.22590   0.22950   0.23709   0.24631   0.26067
 Alpha virt. eigenvalues --    0.26711   0.27008   0.27564   0.27720   0.28875
 Alpha virt. eigenvalues --    0.30595   0.31520   0.31712   0.31780   0.32139

 Mulliken charges:
               1
     1  C   -0.298618
     2  C   -0.299192
     3  C   -0.482390
     4  H    0.149584
     5  H    0.150179
     6  H    0.151696
     7  H    0.151934
     8  H    0.162809
     9  H    0.155232
    10  H    0.159108
    11  C   -0.298303
    12  C   -0.299658
    13  C   -0.475695
    14  H    0.149438
    15  H    0.149626
    16  H    0.151912
    17  H    0.152005
    18  H    0.155158
    19  H    0.155138
    20  H    0.160213
    21  C   -0.298294
    22  C   -0.299649
    23  C   -0.475692
    24  H    0.149554
    25  H    0.149454
    26  H    0.151916
    27  H    0.152021
    28  H    0.155145
    29  H    0.155130
    30  H    0.160209
    31  C   -0.298476
    32  C   -0.299320
    33  C   -0.482379
    34  H    0.149495
    35  H    0.150236
    36  H    0.151707
    37  H    0.151810
    38  H    0.162532
    39  H    0.154970
    40  H    0.159454
 Sum of Mulliken charges =  -0.00000

 Dipole moment (field-independent basis, Debye):
    X=             -0.0039    Y=             -0.0018    Z=             -0.0066  Tot=              0.0079
 Quadrupole moment (field-independent basis, Debye-Ang):
   XX=            -87.1204   YY=            -83.6300   ZZ=            -84.1733
   XY=              0.7557   XZ=              0.0023   YZ=             -0.1146

 Normal termination of Gaussian 16 at Thu May  6 03:40:47 2021.
