 Gaussian 16, Revision A.03,
 Gaussian 16:  EM64L-G16RevA.03 25-Dec-2016

 -------------
 #p 6-31g* mp2
 -------------

 ------------------------------------------------------
 Input file generated by CHIRIPA (05-May-2021 14:51:09)
 ------------------------------------------------------
 Symbolic Z-matrix:
 Charge =  0 Multiplicity = 1

                         Standard orientation:
 ---------------------------------------------------------------------
 Center     Atomic      Atomic             Coordinates (Angstroms)
 Number     Number       Type             X           Y           Z
 ---------------------------------------------------------------------
      1          6           0        3.691424   -0.097774    0.257683
      2          6           0        4.399255   -0.263330   -1.087513
      3          6           0        5.730797    0.485511   -1.150974
      4          1           0        3.521957    0.971133    0.446534
      5          1           0        4.352974   -0.455669    1.058719
      6          1           0        3.736025    0.093489   -1.885899
      7          1           0        4.566886   -1.331979   -1.273272
      8          1           0        6.413362    0.124153   -0.375006
      9          1           0        5.577780    1.557720   -0.991114
     10          1           0        6.219770    0.353539   -2.121205
     11          6           0        2.358861   -0.840597    0.336531
     12          6           0        1.651031   -0.675041    1.681727
     13          6           0        0.319489   -1.423882    1.745188
     14          1           0        1.697312   -0.482702   -0.464505
     15          1           0        2.528329   -1.909504    0.147680
     16          1           0        1.483400    0.393607    1.867486
     17          1           0        2.314261   -1.031860    2.480114
     18          1           0        0.472506   -2.496091    1.585328
     19          1           0       -0.363076   -1.062524    0.969220
     20          1           0       -0.169484   -1.291910    2.715420
     21          6           0       -3.032506   -0.177944   -0.702818
     22          6           0       -4.084829   -1.180019   -0.226955
     23          6           0       -4.087261   -2.469587   -1.048418
     24          1           0       -3.213161    0.059491   -1.760141
     25          1           0       -2.040267   -0.647386   -0.652998
     26          1           0       -5.074636   -0.708363   -0.276348
     27          1           0       -3.901763   -1.414950    0.829412
     28          1           0       -3.112867   -2.965326   -0.990109
     29          1           0       -4.292403   -2.254724   -2.102150
     30          1           0       -4.847040   -3.171713   -0.691187
     31          6           0       -3.017780    1.116315    0.108603
     32          6           0       -1.965457    2.118390   -0.367259
     33          6           0       -1.963025    3.407958    0.454204
     34          1           0       -4.010019    1.585757    0.058784
     35          1           0       -2.837125    0.878880    1.165927
     36          1           0       -2.148523    2.353321   -1.423626
     37          1           0       -0.975650    1.646734   -0.317866
     38          1           0       -1.757882    3.193095    1.507936
     39          1           0       -2.937420    3.903697    0.395894
     40          1           0       -1.203246    4.110085    0.096973
 ---------------------------------------------------------------------

 SCF Done:  E(RHF) =  -470.733333540     A.U. after   11 cycles
 E2 =    -0.1583308174D+01 EUMP2 =    -0.47231664171338D+03

 The electronic state is 1-A.
 Alpha  occ. eigenvalues --  -11.21663 -11.21647 -11.21620 -11.21581 -11.21449
 Alpha  occ. eigenvalues --  -11.21409 -11.21385 -11.21349 -11.21137 -11.21105
 Alpha  occ. eigenvalues --  -11.21084 -11.21043  -1.08481  -1.08434  -1.03573
 Alpha  occ. eigenvalues --   -1.03536  -0.96039  -0.95972  -0.87048  -0.86996
 Alpha  occ. eigenvalues --   -0.79647  -0.79591  -0.78308  -0.78233  -0.65261
 Alpha  occ. eigenvalues --   -0.64954  -0.60979  -0.60915  -0.59391  -0.59353
 Alpha  occ. eigenvalues --   -0.57661  -0.57574  -0.55469  -0.55127  -0.52717
 Alpha  occ. eigenvalues --   -0.52679  -0.52483  -0.52379  -0.50036  -0.49862
 Alpha  occ. eigenvalues --   -0.47983  -0.47910  -0.46744  -0.46602  -0.45961
 Alpha  occ. eigenvalues --   -0.45784  -0.45761  -0.45466  -0.43826  -0.43792
 Alpha virt. eigenvalues --    0.19429   0.22919   0.24027   0.24710   0.25742
 Alpha virt. eigenvalues --    0.26664   0.27085   0.27787   0.28134   0.29435
 Alpha virt. eigenvalues --    0.30920   0.31637   0.31741   0.31846   0.32236

 Mulliken charges:
               1
     1  C   -0.298319
     2  C   -0.299759
     3  C   -0.475747
     4  H    0.149832
     5  H    0.149679
     6  H    0.152177
     7  H    0.151979
     8  H    0.155191
     9  H    0.155261
    10  H    0.160361
    11  C   -0.299239
    12  C   -0.299397
    13  C   -0.484319
    14  H    0.149596
    15  H    0.149896
    16  H    0.152139
    17  H    0.152346
    18  H    0.155503
    19  H    0.162839
    20  H    0.160270
    21  C   -0.303489
    22  C   -0.299760
    23  C   -0.475891
    24  H    0.149951
    25  H    0.153393
    26  H    0.151843
    27  H    0.152899
    28  H    0.155751
    29  H    0.154928
    30  H    0.160217
    31  C   -0.299005
    32  C   -0.301053
    33  C   -0.475729
    34  H    0.149864
    35  H    0.150970
    36  H    0.152147
    37  H    0.151721
    38  H    0.155396
    39  H    0.155487
    40  H    0.160069
 Sum of Mulliken charges =  -0.00000

 Dipole moment (field-independent basis, Debye):
    X=              0.0006    Y=             -0.0059    Z=              0.0059  Tot=              0.0084
 Quadrupole moment (field-independent basis, Debye-Ang):
   XX=            -84.9830   YY=            -85.1159   ZZ=            -84.5460
   XY=             -1.3037   XZ=              0.7212   YZ=             -0.9644

 Normal termination of Gaussian 16 at Wed May  5 21:23:33 2021.
