 Gaussian 16, Revision A.03,
 Gaussian 16:  EM64L-G16RevA.03 25-Dec-2016

 -------------
 #p 6-31g* mp2
 -------------

 ------------------------------------------------------
 Input file generated by CHIRIPA (05-May-2021 14:55:21)
 ------------------------------------------------------
 Symbolic Z-matrix:
 Charge =  0 Multiplicity = 1

                         Standard orientation:
 ---------------------------------------------------------------------
 Center     Atomic      Atomic             Coordinates (Angstroms)
 Number     Number       Type             X           Y           Z
 ---------------------------------------------------------------------
      1          6           0       -4.789781    1.193294   -0.724199
      2          6           0       -4.130423    0.298548   -1.573432
      3          6           0       -3.025156   -0.427492   -1.119781
      4          6           0       -2.604262   -0.233254    0.194909
      5          6           0       -3.240190    0.650800    1.065159
      6          6           0       -4.343347    1.366259    0.590070
      7          1           0       -5.647559    1.753189   -1.084933
      8          1           0       -4.474919    0.162194   -2.594596
      9          1           0       -2.496167   -1.126707   -1.755931
     10          1           0       -2.873487    0.765373    2.077987
     11          1           0       -4.853470    2.060446    1.251828
     12          7           0       -1.435282   -0.996279    0.686517
     13          8           0       -1.084139   -0.807129    1.849082
     14          8           0       -0.892314   -1.769040   -0.100034
     15          6           0        3.513101    0.815277    0.200200
     16          6           0        4.191916    1.954439   -0.561052
     17          6           0        4.049275    3.303830    0.143640
     18          1           0        2.448174    1.052414    0.329209
     19          1           0        3.943330    0.750339    1.209200
     20          1           0        3.761502    2.016317   -1.568788
     21          1           0        5.255310    1.714475   -0.688432
     22          1           0        4.495551    3.265807    1.142635
     23          1           0        2.993254    3.569364    0.257278
     24          1           0        4.541775    4.103945   -0.417716
     25          6           0        3.647025   -0.540083   -0.491749
     26          6           0        2.968210   -1.679244    0.269504
     27          6           0        3.110851   -3.028635   -0.435189
     28          1           0        3.216796   -0.475144   -1.500749
     29          1           0        4.711951   -0.777219   -0.620758
     30          1           0        1.904816   -1.439280    0.396883
     31          1           0        3.398625   -1.741122    1.277239
     32          1           0        4.166871   -3.294168   -0.548827
     33          1           0        2.664575   -2.990612   -1.434185
     34          1           0        2.618351   -3.828750    0.126167
 ---------------------------------------------------------------------

 SCF Done:  E(RHF) =  -669.536558909     A.U. after   15 cycles
 E2 =    -0.2091424625D+01 EUMP2 =    -0.67162798353427D+03

 The electronic state is 1-A.
 Alpha  occ. eigenvalues --  -20.61070 -20.61061 -15.86076 -11.31370 -11.27925
 Alpha  occ. eigenvalues --  -11.27920 -11.27655 -11.26921 -11.26911 -11.20936
 Alpha  occ. eigenvalues --  -11.20563 -11.20459 -11.20234 -11.19894 -11.19635
 Alpha  occ. eigenvalues --   -1.60115  -1.39670  -1.19531  -1.08942  -1.07380
 Alpha  occ. eigenvalues --   -1.04920  -1.02438  -0.95787  -0.94948  -0.86322
 Alpha  occ. eigenvalues --   -0.85979  -0.82621  -0.78556  -0.77680  -0.77105
 Alpha  occ. eigenvalues --   -0.72283  -0.71428  -0.70637  -0.65185  -0.64922
 Alpha  occ. eigenvalues --   -0.64018  -0.62266  -0.59832  -0.58362  -0.56516
 Alpha  occ. eigenvalues --   -0.55425  -0.54257  -0.53255  -0.53010  -0.51659
 Alpha  occ. eigenvalues --   -0.51369  -0.49134  -0.49047  -0.48893  -0.46851
 Alpha  occ. eigenvalues --   -0.45603  -0.45103  -0.44670  -0.44419  -0.42711
 Alpha  occ. eigenvalues --   -0.37507  -0.36519
 Alpha virt. eigenvalues --    0.04815   0.11137   0.16322   0.21278   0.23814
 Alpha virt. eigenvalues --    0.25413   0.27202   0.27639   0.28164   0.28592
 Alpha virt. eigenvalues --    0.28970   0.30851   0.32361   0.32453   0.32747

 Mulliken charges:
               1
     1  C   -0.170404
     2  C   -0.218582
     3  C   -0.170763
     4  C    0.158804
     5  C   -0.170759
     6  C   -0.218608
     7  H    0.226315
     8  H    0.224114
     9  H    0.275952
    10  H    0.276136
    11  H    0.224152
    12  N    0.487691
    13  O   -0.458482
    14  O   -0.459217
    15  C   -0.296803
    16  C   -0.298694
    17  C   -0.474716
    18  H    0.150039
    19  H    0.149122
    20  H    0.149238
    21  H    0.150536
    22  H    0.154993
    23  H    0.153150
    24  H    0.157224
    25  C   -0.297659
    26  C   -0.308690
    27  C   -0.472104
    28  H    0.145875
    29  H    0.144408
    30  H    0.179076
    31  H    0.146855
    32  H    0.146351
    33  H    0.152709
    34  H    0.162741
 Sum of Mulliken charges =  -0.00000

 Dipole moment (field-independent basis, Debye):
    X=             -4.5172    Y=              2.6291    Z=             -1.6456  Tot=              5.4796
 Quadrupole moment (field-independent basis, Debye-Ang):
   XX=            -74.3096   YY=            -97.2081   ZZ=            -91.5126
   XY=             -6.6527   XZ=              4.1285   YZ=              2.6631

 Normal termination of Gaussian 16 at Wed May  5 18:58:43 2021.
