 Gaussian 16, Revision A.03,
 Gaussian 16:  EM64L-G16RevA.03 25-Dec-2016

 -------------
 #p 6-31g* mp2
 -------------

 ------------------------------------------------------
 Input file generated by CHIRIPA (05-May-2021 14:51:11)
 ------------------------------------------------------
 Symbolic Z-matrix:
 Charge =  0 Multiplicity = 1

                         Standard orientation:
 ---------------------------------------------------------------------
 Center     Atomic      Atomic             Coordinates (Angstroms)
 Number     Number       Type             X           Y           Z
 ---------------------------------------------------------------------
      1          6           0        4.494209    0.194537   -0.316912
      2          6           0        5.758871   -0.213129    0.439676
      3          6           0        7.040367    0.185231   -0.293037
      4          1           0        4.506526   -0.266394   -1.314075
      5          1           0        4.504382    1.281869   -0.475029
      6          1           0        5.745647   -1.299187    0.597534
      7          1           0        5.743450    0.248672    1.435226
      8          1           0        7.080309    1.269735   -0.437450
      9          1           0        7.082518   -0.286918   -1.279901
     10          1           0        7.932225   -0.115735    0.265415
     11          6           0        3.204906   -0.196883    0.402960
     12          6           0        1.940245    0.210783   -0.353628
     13          6           0        0.658748   -0.187576    0.379086
     14          1           0        3.194734   -1.284215    0.561078
     15          1           0        3.192590    0.264048    1.400124
     16          1           0        1.955666   -0.251018   -1.349177
     17          1           0        1.953469    1.296841   -0.511485
     18          1           0        0.616598    0.284572    1.365950
     19          1           0        0.618807   -1.272081    0.523498
     20          1           0       -0.233109    0.113389   -0.179367
     21          6           0       -4.107792   -0.676092    0.197931
     22          6           0       -3.395820   -1.862778   -0.452344
     23          6           0       -3.923491   -3.210776    0.039854
     24          1           0       -3.992698   -0.740416    1.288601
     25          1           0       -5.184966   -0.746347   -0.007387
     26          1           0       -2.320135   -1.789558   -0.247029
     27          1           0       -3.512460   -1.795517   -1.541604
     28          1           0       -4.991621   -3.309566   -0.179101
     29          1           0       -3.792521   -3.303572    1.122830
     30          1           0       -3.400658   -4.045228   -0.437843
     31          6           0       -3.591324    0.678438   -0.283980
     32          6           0       -4.303295    1.865124    0.366295
     33          6           0       -3.775624    3.213121   -0.125903
     34          1           0       -2.514151    0.748693   -0.078662
     35          1           0       -3.706417    0.742762   -1.374650
     36          1           0       -4.186657    1.797863    1.455556
     37          1           0       -5.378982    1.791904    0.160981
     38          1           0       -3.906596    3.305919   -1.208879
     39          1           0       -2.707495    3.311911    0.093052
     40          1           0       -4.298458    4.047574    0.351794
 ---------------------------------------------------------------------

 SCF Done:  E(RHF) =  -470.733188111     A.U. after   11 cycles
 E2 =    -0.1582890291D+01 EUMP2 =    -0.47231607840146D+03

 The electronic state is 1-A.
 Alpha  occ. eigenvalues --  -11.21649 -11.21620 -11.21571 -11.21524 -11.21435
 Alpha  occ. eigenvalues --  -11.21374 -11.21352 -11.21292 -11.21134 -11.21085
 Alpha  occ. eigenvalues --  -11.21053 -11.21025  -1.08464  -1.08384  -1.03569
 Alpha  occ. eigenvalues --   -1.03486  -0.96028  -0.95936  -0.87045  -0.86955
 Alpha  occ. eigenvalues --   -0.79640  -0.79548  -0.78281  -0.78195  -0.65092
 Alpha  occ. eigenvalues --   -0.65032  -0.60985  -0.60863  -0.59409  -0.59306
 Alpha  occ. eigenvalues --   -0.57677  -0.57512  -0.55321  -0.55219  -0.52796
 Alpha  occ. eigenvalues --   -0.52602  -0.52465  -0.52334  -0.49992  -0.49854
 Alpha  occ. eigenvalues --   -0.47973  -0.47855  -0.46701  -0.46536  -0.45816
 Alpha  occ. eigenvalues --   -0.45754  -0.45732  -0.45673  -0.43773  -0.43688
 Alpha virt. eigenvalues --    0.21548   0.23025   0.24034   0.24248   0.25835
 Alpha virt. eigenvalues --    0.26610   0.27095   0.27414   0.27930   0.29038
 Alpha virt. eigenvalues --    0.30614   0.31551   0.31770   0.31902   0.32145

 Mulliken charges:
               1
     1  C   -0.298268
     2  C   -0.299648
     3  C   -0.475722
     4  H    0.149770
     5  H    0.149613
     6  H    0.151966
     7  H    0.151950
     8  H    0.155227
     9  H    0.155230
    10  H    0.160313
    11  C   -0.298816
    12  C   -0.299019
    13  C   -0.485060
    14  H    0.149628
    15  H    0.149624
    16  H    0.152449
    17  H    0.152116
    18  H    0.154884
    19  H    0.155850
    20  H    0.168803
    21  C   -0.297369
    22  C   -0.304159
    23  C   -0.475577
    24  H    0.149637
    25  H    0.149235
    26  H    0.157125
    27  H    0.151211
    28  H    0.154966
    29  H    0.155155
    30  H    0.159854
    31  C   -0.306863
    32  C   -0.298920
    33  C   -0.475790
    34  H    0.157543
    35  H    0.149019
    36  H    0.151940
    37  H    0.151857
    38  H    0.155056
    39  H    0.155027
    40  H    0.160163
 Sum of Mulliken charges =  -0.00000

 Dipole moment (field-independent basis, Debye):
    X=              0.0397    Y=              0.0036    Z=              0.0020  Tot=              0.0399
 Quadrupole moment (field-independent basis, Debye-Ang):
   XX=            -85.5392   YY=            -85.1759   ZZ=            -84.2160
   XY=             -0.5317   XZ=              0.9647   YZ=              0.8113

 Normal termination of Gaussian 16 at Thu May  6 02:15:59 2021.
