 Gaussian 16, Revision A.03,
 Gaussian 16:  EM64L-G16RevA.03 25-Dec-2016

 -------------
 #p 6-31g* mp2
 -------------

 ------------------------------------------------------
 Input file generated by CHIRIPA (05-May-2021 14:55:23)
 ------------------------------------------------------
 Symbolic Z-matrix:
 Charge =  0 Multiplicity = 1

                         Standard orientation:
 ---------------------------------------------------------------------
 Center     Atomic      Atomic             Coordinates (Angstroms)
 Number     Number       Type             X           Y           Z
 ---------------------------------------------------------------------
      1          6           0       -1.264533    0.238688    2.585526
      2          6           0       -1.028984   -0.954129    1.893987
      3          6           0       -1.490537   -1.118764    0.584632
      4          6           0       -2.187262   -0.065281   -0.005316
      5          6           0       -2.437795    1.135188    0.657554
      6          6           0       -1.966948    1.277708    1.966194
      7          1           0       -0.902378    0.357991    3.602387
      8          1           0       -0.483767   -1.762736    2.372462
      9          1           0       -1.322169   -2.031583    0.026212
     10          1           0       -2.984325    1.923430    0.154168
     11          1           0       -2.151344    2.205178    2.500835
     12          7           0       -2.680806   -0.227867   -1.391094
     13          8           0       -3.292063    0.715295   -1.888534
     14          8           0       -2.447044   -1.295386   -1.953586
     15          6           0        2.992932   -0.603700   -0.023520
     16          6           0        2.183839   -1.839742   -0.417926
     17          6           0        2.791324   -3.138285    0.113619
     18          1           0        4.019873   -0.710372   -0.398965
     19          1           0        3.064107   -0.554829    1.071897
     20          1           0        2.113038   -1.885510   -1.512233
     21          1           0        1.158654   -1.730027   -0.041663
     22          1           0        2.847002   -3.118345    1.206827
     23          1           0        3.806809   -3.274711   -0.272099
     24          1           0        2.197039   -4.009195   -0.179983
     25          6           0        2.398221    0.702223   -0.547556
     26          6           0        3.207314    1.938264   -0.153150
     27          6           0        2.599830    3.236808   -0.684696
     28          1           0        2.327047    0.653351   -1.642974
     29          1           0        1.371281    0.808896   -0.172110
     30          1           0        4.232500    1.828550   -0.529412
     31          1           0        3.278116    1.984033    0.941157
     32          1           0        1.584345    3.373235   -0.298977
     33          1           0        2.544151    3.216868   -1.777903
     34          1           0        3.194114    4.107718   -0.391092
 ---------------------------------------------------------------------

 SCF Done:  E(RHF) =  -669.534777528     A.U. after   15 cycles
 E2 =    -0.2093843073D+01 EUMP2 =    -0.67162862060157D+03

 The electronic state is 1-A.
 Alpha  occ. eigenvalues --  -20.60818 -20.60813 -15.85876 -11.31287 -11.27868
 Alpha  occ. eigenvalues --  -11.27858 -11.27617 -11.26889 -11.26879 -11.21782
 Alpha  occ. eigenvalues --  -11.21740 -11.21593 -11.21435 -11.21420 -11.21179
 Alpha  occ. eigenvalues --   -1.59893  -1.39445  -1.19481  -1.08856  -1.08600
 Alpha  occ. eigenvalues --   -1.04898  -1.03729  -0.96179  -0.95685  -0.87194
 Alpha  occ. eigenvalues --   -0.86275  -0.82522  -0.79799  -0.78414  -0.77546
 Alpha  occ. eigenvalues --   -0.72093  -0.71217  -0.70581  -0.65291  -0.65098
 Alpha  occ. eigenvalues --   -0.64879  -0.62273  -0.61109  -0.59546  -0.57784
 Alpha  occ. eigenvalues --   -0.55481  -0.55368  -0.53278  -0.52974  -0.52854
 Alpha  occ. eigenvalues --   -0.52597  -0.50125  -0.48856  -0.48845  -0.48109
 Alpha  occ. eigenvalues --   -0.46843  -0.45931  -0.45847  -0.44836  -0.43965
 Alpha  occ. eigenvalues --   -0.37454  -0.36396
 Alpha virt. eigenvalues --    0.04947   0.11122   0.16330   0.20682   0.22856
 Alpha virt. eigenvalues --    0.23939   0.26266   0.26836   0.27428   0.27985
 Alpha virt. eigenvalues --    0.28700   0.30216   0.31386   0.31567   0.32137

 Mulliken charges:
               1
     1  C   -0.171332
     2  C   -0.217439
     3  C   -0.170794
     4  C    0.158173
     5  C   -0.171716
     6  C   -0.218812
     7  H    0.226224
     8  H    0.225074
     9  H    0.277622
    10  H    0.276289
    11  H    0.224086
    12  N    0.488247
    13  O   -0.460198
    14  O   -0.459834
    15  C   -0.296239
    16  C   -0.306658
    17  C   -0.476361
    18  H    0.150764
    19  H    0.144361
    20  H    0.158498
    21  H    0.150425
    22  H    0.149457
    23  H    0.158403
    24  H    0.160388
    25  C   -0.301934
    26  C   -0.299206
    27  C   -0.475577
    28  H    0.153177
    29  H    0.152670
    30  H    0.152479
    31  H    0.148487
    32  H    0.153526
    33  H    0.158231
    34  H    0.159519
 Sum of Mulliken charges =  -0.00000

 Dipole moment (field-independent basis, Debye):
    X=              1.6661    Y=              0.6062    Z=              4.8005  Tot=              5.1175
 Quadrupole moment (field-independent basis, Debye-Ang):
   XX=           -102.1728   YY=            -91.8812   ZZ=            -94.6874
   XY=             -3.1619   XZ=            -11.7169   YZ=              0.3436

 Normal termination of Gaussian 16 at Thu May  6 19:18:35 2021.
