 Gaussian 16, Revision A.03,
 Gaussian 16:  EM64L-G16RevA.03 25-Dec-2016

 -------------
 #p 6-31g* mp2
 -------------

 ------------------------------------------------------
 Input file generated by CHIRIPA (05-May-2021 14:57:24)
 ------------------------------------------------------
 Symbolic Z-matrix:
 Charge =  0 Multiplicity = 1

                         Standard orientation:
 ---------------------------------------------------------------------
 Center     Atomic      Atomic             Coordinates (Angstroms)
 Number     Number       Type             X           Y           Z
 ---------------------------------------------------------------------
      1          6           0        0.394391   -1.918548    0.419146
      2          6           0        0.552700   -1.347145   -0.847723
      3          6           0        1.686922   -0.586471   -1.146824
      4          6           0        2.647381   -0.416734   -0.150833
      5          6           0        2.518393   -0.973209    1.120775
      6          6           0        1.376012   -1.730089    1.397627
      7          1           0       -0.489869   -2.507985    0.642854
      8          1           0       -0.208016   -1.491838   -1.609576
      9          1           0        1.834838   -0.132790   -2.119302
     10          1           0        3.293820   -0.811401    1.859658
     11          1           0        1.255725   -2.172662    2.382363
     12          7           0        3.852450    0.386550   -0.455701
     13          8           0        4.684172    0.521253    0.439135
     14          8           0        3.942443    0.866250   -1.583719
     15          6           0       -1.109590    2.497967    0.980661
     16          6           0       -1.571613    2.505395   -0.339566
     17          6           0       -2.314530    1.431001   -0.837866
     18          6           0       -2.578239    0.360718    0.015505
     19          6           0       -2.131773    0.323914    1.335582
     20          6           0       -1.390650    1.409170    1.812555
     21          1           0       -0.533171    3.336801    1.359468
     22          1           0       -1.354847    3.349627   -0.987896
     23          1           0       -2.684441    1.410807   -1.855793
     24          1           0       -2.363759   -0.531801    1.957959
     25          1           0       -1.033119    1.400682    2.838296
     26          7           0       -3.363782   -0.782444   -0.500734
     27          8           0       -3.582684   -1.713425    0.271272
     28          8           0       -3.745715   -0.725827   -1.667592
 ---------------------------------------------------------------------

 SCF Done:  E(RHF) =  -868.338145739     A.U. after   16 cycles
 E2 =    -0.2603792367D+01 EUMP2 =    -0.87094193810569D+03

 The electronic state is 1-A.
 Alpha  occ. eigenvalues --  -20.61800 -20.61774 -20.60976 -20.60970 -15.86792
 Alpha  occ. eigenvalues --  -15.86027 -11.31813 -11.31285 -11.28413 -11.28364
 Alpha  occ. eigenvalues --  -11.28016 -11.27890 -11.27846 -11.27474 -11.27312
 Alpha  occ. eigenvalues --  -11.27281 -11.26842 -11.26756  -1.60861  -1.60057
 Alpha  occ. eigenvalues --   -1.40422  -1.39613  -1.19995  -1.19447  -1.09435
 Alpha  occ. eigenvalues --   -1.08854  -1.05349  -1.04848  -0.96325  -0.95705
 Alpha  occ. eigenvalues --   -0.86766  -0.86253  -0.83166  -0.82545  -0.78269
 Alpha  occ. eigenvalues --   -0.77625  -0.73012  -0.72283  -0.72193  -0.71386
 Alpha  occ. eigenvalues --   -0.71103  -0.70485  -0.65641  -0.65344  -0.65099
 Alpha  occ. eigenvalues --   -0.64845  -0.62721  -0.62205  -0.55832  -0.55281
 Alpha  occ. eigenvalues --   -0.54202  -0.53436  -0.52939  -0.52668  -0.49801
 Alpha  occ. eigenvalues --   -0.49739  -0.49007  -0.48993  -0.45873  -0.45043
 Alpha  occ. eigenvalues --   -0.38326  -0.37593  -0.36485  -0.36236
 Alpha virt. eigenvalues --    0.04164   0.04902   0.10664   0.11136   0.15835
 Alpha virt. eigenvalues --    0.16517   0.20505   0.21605   0.26414   0.27031
 Alpha virt. eigenvalues --    0.27505   0.28646   0.30391   0.30906   0.32166

 Mulliken charges:
               1
     1  C   -0.176154
     2  C   -0.220311
     3  C   -0.171074
     4  C    0.157059
     5  C   -0.172522
     6  C   -0.221950
     7  H    0.238241
     8  H    0.228991
     9  H    0.274533
    10  H    0.273733
    11  H    0.221395
    12  N    0.487721
    13  O   -0.461827
    14  O   -0.461332
    15  C   -0.168849
    16  C   -0.217375
    17  C   -0.174229
    18  C    0.158101
    19  C   -0.170024
    20  C   -0.214099
    21  H    0.230579
    22  H    0.227574
    23  H    0.275424
    24  H    0.269997
    25  H    0.224097
    26  N    0.485343
    27  O   -0.465139
    28  O   -0.457901
 Sum of Mulliken charges =  -0.00000

 Dipole moment (field-independent basis, Debye):
    X=             -1.5719    Y=              1.3711    Z=              2.8762  Tot=              3.5530
 Quadrupole moment (field-independent basis, Debye-Ang):
   XX=           -143.1944   YY=            -99.0911   ZZ=            -97.0485
   XY=            -15.8750   XZ=              1.0502   YZ=             -2.2691

 Normal termination of Gaussian 16 at Wed May  5 19:29:57 2021.
