 Gaussian 16, Revision A.03,
 Gaussian 16:  EM64L-G16RevA.03 25-Dec-2016

 -------------
 #p 6-31g* mp2
 -------------

 ------------------------------------------------------
 Input file generated by CHIRIPA (05-May-2021 14:53:15)
 ------------------------------------------------------
 Symbolic Z-matrix:
 Charge =  0 Multiplicity = 1

                         Standard orientation:
 ---------------------------------------------------------------------
 Center     Atomic      Atomic             Coordinates (Angstroms)
 Number     Number       Type             X           Y           Z
 ---------------------------------------------------------------------
      1          6           0       -4.008461    0.081178    0.442169
      2          6           0       -4.782230    0.938066   -0.560332
      3          6           0       -5.651034    1.999223    0.115626
      4          1           0       -4.718985   -0.404933    1.124662
      5          1           0       -3.377010    0.733567    1.061082
      6          1           0       -5.410991    0.284116   -1.178091
      7          1           0       -4.069792    1.422042   -1.240638
      8          1           0       -5.035091    2.675146    0.717577
      9          1           0       -6.383910    1.530755    0.780479
     10          1           0       -6.195300    2.600311   -0.619444
     11          6           0       -3.135342   -0.984218   -0.218380
     12          6           0       -2.361573   -1.841106    0.784121
     13          6           0       -1.492769   -2.902264    0.108164
     14          1           0       -3.766793   -1.636607   -0.837293
     15          1           0       -2.424818   -0.498107   -0.900873
     16          1           0       -3.074011   -2.325082    1.464427
     17          1           0       -1.732812   -1.187157    1.401880
     18          1           0       -0.759892   -2.433795   -0.556690
     19          1           0       -2.108712   -3.578186   -0.493787
     20          1           0       -0.948502   -3.503352    0.843233
     21          6           0        2.494012    2.852770    0.079597
     22          6           0        3.680230    2.257508    0.521267
     23          6           0        3.855476    0.873259    0.433562
     24          6           0        2.819216    0.111058   -0.103564
     25          6           0        1.625702    0.674628   -0.552121
     26          6           0        1.472335    2.060825   -0.454745
     27          1           0        2.366376    3.928843    0.151485
     28          1           0        4.475374    2.870060    0.936684
     29          1           0        4.763522    0.386395    0.767978
     30          1           0        0.850934    0.037856   -0.961602
     31          1           0        0.550025    2.520384   -0.798539
     32          7           0        2.993160   -1.355416   -0.201533
     33          8           0        2.065125   -2.004840   -0.678648
     34          8           0        4.054236   -1.827647    0.200650
 ---------------------------------------------------------------------

 SCF Done:  E(RHF) =  -669.535738349     A.U. after   15 cycles
 E2 =    -0.2091532770D+01 EUMP2 =    -0.67162727111911D+03

 The electronic state is 1-A.
 Alpha  occ. eigenvalues --  -20.60873 -20.60865 -15.85911 -11.31267 -11.27843
 Alpha  occ. eigenvalues --  -11.27828 -11.27573 -11.26850 -11.26839 -11.21819
 Alpha  occ. eigenvalues --  -11.21516 -11.21412 -11.21302 -11.21298 -11.20268
 Alpha  occ. eigenvalues --   -1.59937  -1.39493  -1.19438  -1.08835  -1.08450
 Alpha  occ. eigenvalues --   -1.04841  -1.03427  -0.95850  -0.95667  -0.86851
 Alpha  occ. eigenvalues --   -0.86239  -0.82507  -0.79507  -0.78248  -0.77553
 Alpha  occ. eigenvalues --   -0.72139  -0.71254  -0.70548  -0.65120  -0.65083
 Alpha  occ. eigenvalues --   -0.64838  -0.62196  -0.60822  -0.59261  -0.57452
 Alpha  occ. eigenvalues --   -0.55342  -0.55130  -0.53169  -0.52934  -0.52488
 Alpha  occ. eigenvalues --   -0.52263  -0.49818  -0.48889  -0.48870  -0.47793
 Alpha  occ. eigenvalues --   -0.46564  -0.45771  -0.45718  -0.44865  -0.43692
 Alpha  occ. eigenvalues --   -0.37417  -0.36443
 Alpha virt. eigenvalues --    0.04964   0.11197   0.16457   0.19849   0.22790
 Alpha virt. eigenvalues --    0.23754   0.25868   0.27190   0.27517   0.28109
 Alpha virt. eigenvalues --    0.29221   0.30292   0.31513   0.31787   0.32114

 Mulliken charges:
               1
     1  C   -0.297909
     2  C   -0.298717
     3  C   -0.475446
     4  H    0.151627
     5  H    0.146321
     6  H    0.153815
     7  H    0.147190
     8  H    0.153099
     9  H    0.156754
    10  H    0.160144
    11  C   -0.296283
    12  C   -0.301245
    13  C   -0.480660
    14  H    0.151779
    15  H    0.140265
    16  H    0.151111
    17  H    0.148406
    18  H    0.171109
    19  H    0.151420
    20  H    0.165017
    21  C   -0.170563
    22  C   -0.218606
    23  C   -0.170660
    24  C    0.157892
    25  C   -0.172078
    26  C   -0.219364
    27  H    0.225942
    28  H    0.223778
    29  H    0.275831
    30  H    0.277953
    31  H    0.223776
    32  N    0.491230
    33  O   -0.463322
    34  O   -0.459607
 Sum of Mulliken charges =  -0.00000

 Dipole moment (field-independent basis, Debye):
    X=             -0.4932    Y=              5.0649    Z=              0.3547  Tot=              5.1012
 Quadrupole moment (field-independent basis, Debye-Ang):
   XX=            -93.9978   YY=            -94.1152   ZZ=            -94.9829
   XY=             16.2556   XZ=              3.4139   YZ=             -0.5562

 Normal termination of Gaussian 16 at Wed May  5 17:09:57 2021.
