 Gaussian 16, Revision A.03,
 Gaussian 16:  EM64L-G16RevA.03 25-Dec-2016

 -------------
 #p 6-31g* mp2
 -------------

 ------------------------------------------------------
 Input file generated by CHIRIPA (05-May-2021 14:53:12)
 ------------------------------------------------------
 Symbolic Z-matrix:
 Charge =  0 Multiplicity = 1

                         Standard orientation:
 ---------------------------------------------------------------------
 Center     Atomic      Atomic             Coordinates (Angstroms)
 Number     Number       Type             X           Y           Z
 ---------------------------------------------------------------------
      1          6           0        2.870311    0.522489   -0.193322
      2          6           0        2.769120    1.800956   -1.025950
      3          6           0        1.403180    2.477545   -0.906666
      4          1           0        2.084285   -0.176774   -0.509772
      5          1           0        2.669668    0.762405    0.860043
      6          1           0        2.971256    1.558939   -2.077227
      7          1           0        3.555598    2.497180   -0.707612
      8          1           0        1.196418    2.747211    0.134070
      9          1           0        0.608755    1.803639   -1.243328
     10          1           0        1.352796    3.389415   -1.509837
     11          6           0        4.229990   -0.165365   -0.302218
     12          6           0        4.331181   -1.443831    0.530409
     13          6           0        5.697121   -2.120421    0.411126
     14          1           0        4.430633   -0.405281   -1.355583
     15          1           0        5.016016    0.533898    0.014232
     16          1           0        3.544702   -2.140056    0.212071
     17          1           0        4.129045   -1.201815    1.581687
     18          1           0        6.491545   -1.446514    0.747788
     19          1           0        5.903883   -2.390087   -0.629610
     20          1           0        5.747505   -3.032290    1.014297
     21          6           0       -1.832810    1.197443    2.115419
     22          6           0       -1.693243    1.663408    0.803961
     23          6           0       -2.210527    0.930919   -0.268617
     24          6           0       -2.864503   -0.268753    0.007773
     25          6           0       -3.019597   -0.759436    1.303329
     26          6           0       -2.494376   -0.010362    2.360484
     27          1           0       -1.427889    1.772899    2.942634
     28          1           0       -1.179939    2.601064    0.610661
     29          1           0       -2.116632    1.268331   -1.293681
     30          1           0       -3.536312   -1.697739    1.464616
     31          1           0       -2.604250   -0.374681    3.377955
     32          7           0       -3.416330   -1.052985   -1.119554
     33          8           0       -3.988240   -2.106857   -0.849538
     34          8           0       -3.266493   -0.598944   -2.251823
 ---------------------------------------------------------------------

 SCF Done:  E(RHF) =  -669.534477171     A.U. after   15 cycles
 E2 =    -0.2092355806D+01 EUMP2 =    -0.67162683297683D+03

 The electronic state is 1-A.
 Alpha  occ. eigenvalues --  -20.60748 -20.60743 -15.85799 -11.31151 -11.27693
 Alpha  occ. eigenvalues --  -11.27677 -11.27420 -11.26731 -11.26642 -11.22118
 Alpha  occ. eigenvalues --  -11.21864 -11.21828 -11.21764 -11.21646 -11.21244
 Alpha  occ. eigenvalues --   -1.59824  -1.39377  -1.19308  -1.08799  -1.08704
 Alpha  occ. eigenvalues --   -1.04715  -1.03936  -0.96421  -0.95548  -0.87465
 Alpha  occ. eigenvalues --   -0.86099  -0.82385  -0.80029  -0.78587  -0.77417
 Alpha  occ. eigenvalues --   -0.72018  -0.71147  -0.70420  -0.65431  -0.64958
 Alpha  occ. eigenvalues --   -0.64723  -0.62090  -0.61336  -0.59779  -0.58002
 Alpha  occ. eigenvalues --   -0.55723  -0.55213  -0.53268  -0.53114  -0.52907
 Alpha  occ. eigenvalues --   -0.52494  -0.50356  -0.48779  -0.48774  -0.48298
 Alpha  occ. eigenvalues --   -0.47028  -0.46130  -0.46035  -0.44786  -0.44178
 Alpha  occ. eigenvalues --   -0.37286  -0.36252
 Alpha virt. eigenvalues --    0.05067   0.11284   0.16523   0.20866   0.22582
 Alpha virt. eigenvalues --    0.24035   0.25828   0.25925   0.27296   0.27748
 Alpha virt. eigenvalues --    0.29036   0.29836   0.31193   0.31487   0.32083

 Mulliken charges:
               1
     1  C   -0.298501
     2  C   -0.299791
     3  C   -0.480641
     4  H    0.153484
     5  H    0.146493
     6  H    0.156142
     7  H    0.152775
     8  H    0.146753
     9  H    0.157684
    10  H    0.161881
    11  C   -0.298829
    12  C   -0.299942
    13  C   -0.475940
    14  H    0.151606
    15  H    0.149299
    16  H    0.154010
    17  H    0.150314
    18  H    0.154846
    19  H    0.156526
    20  H    0.160917
    21  C   -0.173107
    22  C   -0.214535
    23  C   -0.174810
    24  C    0.158253
    25  C   -0.171835
    26  C   -0.217879
    27  H    0.224856
    28  H    0.229621
    29  H    0.275180
    30  H    0.275234
    31  H    0.223119
    32  N    0.488074
    33  O   -0.460485
    34  O   -0.460771
 Sum of Mulliken charges =  -0.00000

 Dipole moment (field-independent basis, Debye):
    X=              2.0604    Y=              2.7223    Z=              3.9322  Tot=              5.2075
 Quadrupole moment (field-independent basis, Debye-Ang):
   XX=           -106.7148   YY=            -94.4248   ZZ=            -92.3446
   XY=             -6.5352   XZ=            -12.6055   YZ=             -3.1565

 Normal termination of Gaussian 16 at Wed May  5 23:23:39 2021.
