 Gaussian 16, Revision A.03,
 Gaussian 16:  EM64L-G16RevA.03 25-Dec-2016

 -------------
 #p 6-31g* mp2
 -------------

 ------------------------------------------------------
 Input file generated by CHIRIPA (05-May-2021 14:55:19)
 ------------------------------------------------------
 Symbolic Z-matrix:
 Charge =  0 Multiplicity = 1

                         Standard orientation:
 ---------------------------------------------------------------------
 Center     Atomic      Atomic             Coordinates (Angstroms)
 Number     Number       Type             X           Y           Z
 ---------------------------------------------------------------------
      1          6           0       -4.243215   -1.704119    0.300991
      2          6           0       -3.276140   -1.483902    1.287293
      3          6           0       -2.451747   -0.356032    1.234069
      4          6           0       -2.622455    0.535015    0.175682
      5          6           0       -3.576892    0.343315   -0.822111
      6          6           0       -4.390245   -0.791417   -0.748712
      7          1           0       -4.879335   -2.582941    0.350173
      8          1           0       -3.159714   -2.191026    2.103666
      9          1           0       -1.695054   -0.161099    1.984293
     10          1           0       -3.669348    1.066047   -1.623690
     11          1           0       -5.140448   -0.959878   -1.516086
     12          7           0       -1.755551    1.732673    0.108658
     13          8           0       -1.925872    2.502629   -0.834102
     14          8           0       -0.922165    1.878764    1.000153
     15          6           0        4.061570   -0.040449    0.157932
     16          6           0        5.500231   -0.434826   -0.177790
     17          6           0        6.532926    0.357532    0.624397
     18          1           0        3.929010    1.033680   -0.030799
     19          1           0        3.888186   -0.192778    1.232236
     20          1           0        5.670431   -0.283106   -1.251396
     21          1           0        5.629328   -1.508180    0.011579
     22          1           0        6.391614    0.197911    1.698247
     23          1           0        6.432950    1.429946    0.428096
     24          1           0        7.554549    0.059620    0.368673
     25          6           0        3.017678   -0.823876   -0.635957
     26          6           0        1.579018   -0.429499   -0.300235
     27          6           0        0.546322   -1.221857   -1.102423
     28          1           0        3.191062   -0.671546   -1.710261
     29          1           0        3.150238   -1.898006   -0.447226
     30          1           0        1.449920    0.643855   -0.489604
     31          1           0        1.408818   -0.581219    0.773370
     32          1           0        0.646299   -2.294271   -0.906122
     33          1           0        0.687634   -1.062237   -2.176273
     34          1           0       -0.475300   -0.923945   -0.846699
 ---------------------------------------------------------------------

 SCF Done:  E(RHF) =  -669.534648196     A.U. after   15 cycles
 E2 =    -0.2093918868D+01 EUMP2 =    -0.67162856706379D+03

 The electronic state is 1-A.
 Alpha  occ. eigenvalues --  -20.60895 -20.60865 -15.85900 -11.31222 -11.27818
 Alpha  occ. eigenvalues --  -11.27800 -11.27563 -11.26834 -11.26824 -11.21181
 Alpha  occ. eigenvalues --  -11.20925 -11.20870 -11.20815 -11.20681 -11.20653
 Alpha  occ. eigenvalues --   -1.59940  -1.39493  -1.19441  -1.08834  -1.07916
 Alpha  occ. eigenvalues --   -1.04828  -1.03059  -0.95671  -0.95542  -0.86566
 Alpha  occ. eigenvalues --   -0.86222  -0.82496  -0.79101  -0.77724  -0.77525
 Alpha  occ. eigenvalues --   -0.72128  -0.71286  -0.70532  -0.65081  -0.64829
 Alpha  occ. eigenvalues --   -0.64547  -0.62172  -0.60453  -0.58960  -0.57194
 Alpha  occ. eigenvalues --   -0.55325  -0.54835  -0.53427  -0.52914  -0.52075
 Alpha  occ. eigenvalues --   -0.51853  -0.49479  -0.48897  -0.48888  -0.47431
 Alpha  occ. eigenvalues --   -0.46125  -0.45352  -0.45185  -0.44732  -0.43318
 Alpha  occ. eigenvalues --   -0.37341  -0.36417
 Alpha virt. eigenvalues --    0.04953   0.11184   0.16437   0.21280   0.23308
 Alpha virt. eigenvalues --    0.24563   0.26768   0.27411   0.27737   0.28309
 Alpha virt. eigenvalues --    0.28553   0.30774   0.31644   0.32062   0.32096

 Mulliken charges:
               1
     1  C   -0.170910
     2  C   -0.215450
     3  C   -0.172539
     4  C    0.154930
     5  C   -0.171746
     6  C   -0.217227
     7  H    0.226029
     8  H    0.223853
     9  H    0.276067
    10  H    0.275950
    11  H    0.223890
    12  N    0.491471
    13  O   -0.460142
    14  O   -0.458662
    15  C   -0.298123
    16  C   -0.299300
    17  C   -0.475448
    18  H    0.154496
    19  H    0.148717
    20  H    0.151356
    21  H    0.149611
    22  H    0.154517
    23  H    0.156541
    24  H    0.158515
    25  C   -0.298638
    26  C   -0.301323
    27  C   -0.482341
    28  H    0.148628
    29  H    0.145146
    30  H    0.167776
    31  H    0.148702
    32  H    0.150234
    33  H    0.155090
    34  H    0.160327
 Sum of Mulliken charges =  -0.00000

 Dipole moment (field-independent basis, Debye):
    X=             -3.1900    Y=             -4.0693    Z=              0.2732  Tot=              5.1778
 Quadrupole moment (field-independent basis, Debye-Ang):
   XX=            -79.2081   YY=            -99.3751   ZZ=            -91.1445
   XY=              8.9210   XZ=              0.6763   YZ=             -2.9498

 Normal termination of Gaussian 16 at Thu May  6 06:06:32 2021.
