 Gaussian 16, Revision A.03,
 Gaussian 16:  EM64L-G16RevA.03 25-Dec-2016

 -------------
 #p 6-31g* mp2
 -------------

 ------------------------------------------------------
 Input file generated by CHIRIPA (05-May-2021 14:57:22)
 ------------------------------------------------------
 Symbolic Z-matrix:
 Charge =  0 Multiplicity = 1

                         Standard orientation:
 ---------------------------------------------------------------------
 Center     Atomic      Atomic             Coordinates (Angstroms)
 Number     Number       Type             X           Y           Z
 ---------------------------------------------------------------------
      1          6           0       -3.248669    2.240648   -1.225355
      2          6           0       -2.821757    2.360677    0.101242
      3          6           0       -2.524707    1.222791    0.857235
      4          6           0       -2.666213   -0.025116    0.252261
      5          6           0       -3.089370   -0.177399   -1.067223
      6          6           0       -3.380880    0.974225   -1.804333
      7          1           0       -3.477273    3.129921   -1.805294
      8          1           0       -2.718176    3.342915    0.553485
      9          1           0       -2.192276    1.286865    1.886216
     10          1           0       -3.183092   -1.170051   -1.490633
     11          1           0       -3.712224    0.877985   -2.834379
     12          7           0       -2.354672   -1.237017    1.042601
     13          8           0       -2.487388   -2.325021    0.486478
     14          8           0       -1.983669   -1.075955    2.203227
     15          6           0        4.217490    1.688445    0.681190
     16          6           0        4.497850    1.033751   -0.522677
     17          6           0        3.673662    0.000089   -0.977435
     18          6           0        2.572551   -0.354734   -0.199653
     19          6           0        2.266861    0.278435    1.004067
     20          6           0        3.104853    1.309366    1.439383
     21          1           0        4.863101    2.490357    1.026906
     22          1           0        5.361251    1.326034   -1.113569
     23          1           0        3.867447   -0.523623   -1.905655
     24          1           0        1.398931   -0.035210    1.571289
     25          1           0        2.884684    1.816040    2.374718
     26          7           0        1.692714   -1.447580   -0.670794
     27          8           0        0.728754   -1.741368    0.032844
     28          8           0        1.983717   -1.989671   -1.734792
 ---------------------------------------------------------------------

 SCF Done:  E(RHF) =  -868.337369144     A.U. after   16 cycles
 E2 =    -0.2601326466D+01 EUMP2 =    -0.87093869560984D+03

 The electronic state is 1-A.
 Alpha  occ. eigenvalues --  -20.60451 -20.60442 -20.59879 -20.59751 -15.85504
 Alpha  occ. eigenvalues --  -15.84874 -11.30965 -11.30571 -11.27580 -11.27500
 Alpha  occ. eigenvalues --  -11.27349 -11.27250 -11.27106 -11.27003 -11.26618
 Alpha  occ. eigenvalues --  -11.26589 -11.26341 -11.26244  -1.59527  -1.58837
 Alpha  occ. eigenvalues --   -1.39076  -1.38405  -1.19160  -1.18774  -1.08543
 Alpha  occ. eigenvalues --   -1.08104  -1.04576  -1.04240  -0.95354  -0.94891
 Alpha  occ. eigenvalues --   -0.85970  -0.85620  -0.82189  -0.81740  -0.77220
 Alpha  occ. eigenvalues --   -0.76723  -0.71841  -0.71124  -0.70881  -0.70286
 Alpha  occ. eigenvalues --   -0.69920  -0.69899  -0.64805  -0.64583  -0.64432
 Alpha  occ. eigenvalues --   -0.64259  -0.61910  -0.61589  -0.55088  -0.54741
 Alpha  occ. eigenvalues --   -0.52910  -0.52669  -0.52538  -0.52345  -0.48494
 Alpha  occ. eigenvalues --   -0.48458  -0.47889  -0.47837  -0.44484  -0.43705
 Alpha  occ. eigenvalues --   -0.37165  -0.36763  -0.36192  -0.35859
 Alpha virt. eigenvalues --    0.05281   0.05888   0.11439   0.11797   0.16770
 Alpha virt. eigenvalues --    0.17264   0.21498   0.21893   0.27279   0.27758
 Alpha virt. eigenvalues --    0.28297   0.28944   0.30842   0.31470   0.32513

 Mulliken charges:
               1
     1  C   -0.172496
     2  C   -0.218662
     3  C   -0.175285
     4  C    0.163909
     5  C   -0.167992
     6  C   -0.218946
     7  H    0.222558
     8  H    0.218793
     9  H    0.269422
    10  H    0.279579
    11  H    0.222547
    12  N    0.496749
    13  O   -0.448213
    14  O   -0.471360
    15  C   -0.171284
    16  C   -0.219027
    17  C   -0.171356
    18  C    0.157553
    19  C   -0.174408
    20  C   -0.219712
    21  H    0.224168
    22  H    0.222157
    23  H    0.274769
    24  H    0.283413
    25  H    0.222611
    26  N    0.489908
    27  O   -0.457405
    28  O   -0.461991
 Sum of Mulliken charges =  -0.00000

 Dipole moment (field-independent basis, Debye):
    X=              1.9771    Y=              7.7392    Z=             -1.1911  Tot=              8.0761
 Quadrupole moment (field-independent basis, Debye-Ang):
   XX=            -82.9255   YY=           -107.2465   ZZ=           -101.3868
   XY=             -1.4810   XZ=              9.6543   YZ=              2.9332

 Normal termination of Gaussian 16 at Wed May  5 17:46:37 2021.
