 Gaussian 16, Revision A.03,
 Gaussian 16:  EM64L-G16RevA.03 25-Dec-2016

 -------------
 #p 6-31g* mp2
 -------------

 ------------------------------------------------------
 Input file generated by CHIRIPA (05-May-2021 14:55:24)
 ------------------------------------------------------
 Symbolic Z-matrix:
 Charge =  0 Multiplicity = 1

                         Standard orientation:
 ---------------------------------------------------------------------
 Center     Atomic      Atomic             Coordinates (Angstroms)
 Number     Number       Type             X           Y           Z
 ---------------------------------------------------------------------
      1          6           0        1.273649    1.688130   -0.505767
      2          6           0        0.937960    0.364900   -0.200978
      3          6           0        1.936257   -0.580818    0.051154
      4          6           0        3.266002   -0.166939   -0.010251
      5          6           0        3.632333    1.143969   -0.311265
      6          6           0        2.617395    2.072763   -0.559842
      7          1           0        0.491685    2.416213   -0.700248
      8          1           0       -0.104773    0.063353   -0.158287
      9          1           0        1.704504   -1.611799    0.289452
     10          1           0        4.680613    1.414688   -0.346486
     11          1           0        2.881044    3.099712   -0.796299
     12          7           0        4.331663   -1.159170    0.254789
     13          8           0        5.495715   -0.769317    0.194497
     14          8           0        3.982698   -2.307946    0.517800
     15          6           0       -3.553666    0.617136   -0.146212
     16          6           0       -3.749888    1.824143    0.771730
     17          6           0       -2.939163    3.042215    0.328087
     18          1           0       -2.486582    0.357678   -0.177158
     19          1           0       -3.837753    0.894463   -1.170799
     20          1           0       -3.466828    1.544214    1.794537
     21          1           0       -4.816654    2.080639    0.800646
     22          1           0       -3.226889    3.349157   -0.682656
     23          1           0       -1.869394    2.809683    0.316882
     24          1           0       -3.094304    3.893496    0.998244
     25          6           0       -4.357678   -0.608413    0.284279
     26          6           0       -4.161456   -1.815419   -0.633663
     27          6           0       -4.972181   -3.033491   -0.190020
     28          1           0       -4.073591   -0.885740    1.308866
     29          1           0       -5.424762   -0.348955    0.315225
     30          1           0       -3.094690   -2.071915   -0.662580
     31          1           0       -4.444516   -1.535490   -1.656470
     32          1           0       -6.041950   -2.800960   -0.178815
     33          1           0       -4.684454   -3.340433    0.820723
     34          1           0       -4.817040   -3.884773   -0.860177
 ---------------------------------------------------------------------

 SCF Done:  E(RHF) =  -669.535343209     A.U. after   15 cycles
 E2 =    -0.2091875824D+01 EUMP2 =    -0.67162721903293D+03

 The electronic state is 1-A.
 Alpha  occ. eigenvalues --  -20.60740 -20.60735 -15.85793 -11.31155 -11.27724
 Alpha  occ. eigenvalues --  -11.27720 -11.27446 -11.26733 -11.26717 -11.22601
 Alpha  occ. eigenvalues --  -11.22488 -11.22323 -11.22242 -11.22190 -11.21604
 Alpha  occ. eigenvalues --   -1.59816  -1.39369  -1.19325  -1.09355  -1.08720
 Alpha  occ. eigenvalues --   -1.04730  -1.04396  -0.96864  -0.95556  -0.87877
 Alpha  occ. eigenvalues --   -0.86131  -0.82391  -0.80474  -0.79165  -0.77439
 Alpha  occ. eigenvalues --   -0.72012  -0.71139  -0.70441  -0.66037  -0.64977
 Alpha  occ. eigenvalues --   -0.64715  -0.62102  -0.61768  -0.60228  -0.58471
 Alpha  occ. eigenvalues --   -0.56224  -0.55199  -0.53520  -0.53289  -0.53054
 Alpha  occ. eigenvalues --   -0.52822  -0.50795  -0.48792  -0.48768  -0.48760
 Alpha  occ. eigenvalues --   -0.47507  -0.46696  -0.46592  -0.44776  -0.44662
 Alpha  occ. eigenvalues --   -0.37301  -0.36333
 Alpha virt. eigenvalues --    0.05089   0.11305   0.16553   0.18383   0.22408
 Alpha virt. eigenvalues --    0.23552   0.24534   0.25522   0.26348   0.28423
 Alpha virt. eigenvalues --    0.29062   0.30831   0.30961   0.31244   0.31689

 Mulliken charges:
               1
     1  C   -0.177998
     2  C   -0.227216
     3  C   -0.172996
     4  C    0.158972
     5  C   -0.171064
     6  C   -0.218834
     7  H    0.231088
     8  H    0.234719
     9  H    0.276017
    10  H    0.275456
    11  H    0.223726
    12  N    0.487950
    13  O   -0.460538
    14  O   -0.460519
    15  C   -0.304590
    16  C   -0.299952
    17  C   -0.479326
    18  H    0.142638
    19  H    0.152828
    20  H    0.155007
    21  H    0.156965
    22  H    0.157448
    23  H    0.146516
    24  H    0.165883
    25  C   -0.298771
    26  C   -0.299519
    27  C   -0.476361
    28  H    0.151288
    29  H    0.153275
    30  H    0.147922
    31  H    0.153630
    32  H    0.156745
    33  H    0.156639
    34  H    0.162972
 Sum of Mulliken charges =  -0.00000

 Dipole moment (field-independent basis, Debye):
    X=             -4.0350    Y=              3.4940    Z=             -0.9064  Tot=              5.4139
 Quadrupole moment (field-independent basis, Debye-Ang):
   XX=           -115.5499   YY=            -94.2389   ZZ=            -95.1460
   XY=             14.1953   XZ=             -3.2016   YZ=             -0.4404

 Normal termination of Gaussian 16 at Thu May  6 20:55:24 2021.
