 Gaussian 16, Revision A.03,
 Gaussian 16:  EM64L-G16RevA.03 25-Dec-2016

 -------------
 #p 6-31g* mp2
 -------------

 ------------------------------------------------------
 Input file generated by CHIRIPA (05-May-2021 14:53:15)
 ------------------------------------------------------
 Symbolic Z-matrix:
 Charge =  0 Multiplicity = 1

                         Standard orientation:
 ---------------------------------------------------------------------
 Center     Atomic      Atomic             Coordinates (Angstroms)
 Number     Number       Type             X           Y           Z
 ---------------------------------------------------------------------
      1          6           0       -2.555231   -0.782521   -0.632199
      2          6           0       -1.915153   -2.011637    0.013990
      3          6           0       -0.845293   -2.654276   -0.869304
      4          1           0       -2.997789   -1.071129   -1.595419
      5          1           0       -1.772096   -0.045095   -0.856466
      6          1           0       -2.699442   -2.745953    0.238234
      7          1           0       -1.474235   -1.720109    0.975873
      8          1           0       -0.042615   -1.941039   -1.082847
      9          1           0       -1.274783   -2.972712   -1.824677
     10          1           0       -0.400895   -3.531076   -0.388064
     11          6           0       -3.626747   -0.129009    0.238723
     12          6           0       -4.266825    1.100107   -0.407465
     13          6           0       -5.336685    1.742746    0.475828
     14          1           0       -4.409882   -0.866435    0.462991
     15          1           0       -3.184189    0.159600    1.201943
     16          1           0       -4.707743    0.808579   -1.369348
     17          1           0       -3.482536    1.834423   -0.631710
     18          1           0       -4.907195    2.061182    1.431201
     19          1           0       -6.139363    1.029509    0.689372
     20          1           0       -5.781083    2.619546   -0.005412
     21          6           0        2.372000   -2.102578    0.718639
     22          6           0        1.919085   -1.162347    1.649958
     23          6           0        1.938215    0.202508    1.347717
     24          6           0        2.418976    0.593759    0.099085
     25          6           0        2.877022   -0.318821   -0.849957
     26          6           0        2.848682   -1.678562   -0.526152
     27          1           0        2.353561   -3.160844    0.961803
     28          1           0        1.548349   -1.488758    2.617458
     29          1           0        1.593581    0.951753    2.050055
     30          1           0        3.240908    0.036976   -1.806207
     31          1           0        3.201049   -2.406520   -1.251383
     32          7           0        2.444103    2.035963   -0.232299
     33          8           0        2.872453    2.354978   -1.339269
     34          8           0        2.034972    2.820040    0.621208
 ---------------------------------------------------------------------

 SCF Done:  E(RHF) =  -669.534789793     A.U. after   15 cycles
 E2 =    -0.2093372668D+01 EUMP2 =    -0.67162816246049D+03

 The electronic state is 1-A.
 Alpha  occ. eigenvalues --  -20.60846 -20.60839 -15.85901 -11.31287 -11.27874
 Alpha  occ. eigenvalues --  -11.27855 -11.27572 -11.26860 -11.26819 -11.21845
 Alpha  occ. eigenvalues --  -11.21539 -11.21491 -11.21415 -11.21302 -11.20995
 Alpha  occ. eigenvalues --   -1.59922  -1.39474  -1.19469  -1.08855  -1.08510
 Alpha  occ. eigenvalues --   -1.04868  -1.03619  -0.96085  -0.95671  -0.87102
 Alpha  occ. eigenvalues --   -0.86254  -0.82508  -0.79697  -0.78319  -0.77556
 Alpha  occ. eigenvalues --   -0.72116  -0.71249  -0.70558  -0.65152  -0.65108
 Alpha  occ. eigenvalues --   -0.64853  -0.62207  -0.61048  -0.59473  -0.57692
 Alpha  occ. eigenvalues --   -0.55497  -0.55352  -0.53220  -0.52945  -0.52729
 Alpha  occ. eigenvalues --   -0.52444  -0.49959  -0.48877  -0.48871  -0.48000
 Alpha  occ. eigenvalues --   -0.46718  -0.45864  -0.45773  -0.44876  -0.43891
 Alpha  occ. eigenvalues --   -0.37353  -0.36447
 Alpha virt. eigenvalues --    0.04962   0.11133   0.16408   0.20949   0.22832
 Alpha virt. eigenvalues --    0.24248   0.26370   0.26984   0.27143   0.27761
 Alpha virt. eigenvalues --    0.28576   0.30331   0.31314   0.31874   0.32444

 Mulliken charges:
               1
     1  C   -0.298967
     2  C   -0.298445
     3  C   -0.478090
     4  H    0.150147
     5  H    0.152156
     6  H    0.150771
     7  H    0.147351
     8  H    0.164555
     9  H    0.154179
    10  H    0.148552
    11  C   -0.297928
    12  C   -0.300596
    13  C   -0.475780
    14  H    0.148534
    15  H    0.148270
    16  H    0.151781
    17  H    0.156041
    18  H    0.155488
    19  H    0.153918
    20  H    0.161591
    21  C   -0.164782
    22  C   -0.218279
    23  C   -0.171489
    24  C    0.158031
    25  C   -0.171750
    26  C   -0.219928
    27  H    0.226314
    28  H    0.224058
    29  H    0.275905
    30  H    0.276234
    31  H    0.224569
    32  N    0.488065
    33  O   -0.460037
    34  O   -0.460439
 Sum of Mulliken charges =  -0.00000

 Dipole moment (field-independent basis, Debye):
    X=             -0.0020    Y=             -5.0027    Z=              1.1492  Tot=              5.1330
 Quadrupole moment (field-independent basis, Debye-Ang):
   XX=            -95.1752   YY=           -101.4854   ZZ=            -90.7276
   XY=            -12.4790   XZ=              1.6313   YZ=              1.1763

 Normal termination of Gaussian 16 at Thu May  6 10:37:23 2021.
