 Gaussian 16, Revision A.03,
 Gaussian 16:  EM64L-G16RevA.03 25-Dec-2016

 -------------
 #p 6-31g* mp2
 -------------

 ------------------------------------------------------
 Input file generated by CHIRIPA (05-May-2021 14:53:15)
 ------------------------------------------------------
 Symbolic Z-matrix:
 Charge =  0 Multiplicity = 1

                         Standard orientation:
 ---------------------------------------------------------------------
 Center     Atomic      Atomic             Coordinates (Angstroms)
 Number     Number       Type             X           Y           Z
 ---------------------------------------------------------------------
      1          6           0       -3.978027    0.079587    0.363580
      2          6           0       -2.870759    0.408592   -0.638268
      3          6           0       -1.536212    0.723892    0.038018
      4          1           0       -4.105016    0.926782    1.051388
      5          1           0       -3.665358   -0.776826    0.976923
      6          1           0       -3.186003    1.263258   -1.250465
      7          1           0       -2.746523   -0.439407   -1.323892
      8          1           0       -1.195625   -0.128718    0.634389
      9          1           0       -1.637602    1.583621    0.708233
     10          1           0       -0.758880    0.956211   -0.696585
     11          6           0       -5.318250   -0.237842   -0.297304
     12          6           0       -6.425518   -0.566846    0.704544
     13          6           0       -7.760065   -0.882146    0.028257
     14          1           0       -5.630919    0.618572   -0.910647
     15          1           0       -5.191261   -1.085036   -0.985113
     16          1           0       -6.549754    0.281153    1.390167
     17          1           0       -6.110274   -1.421512    1.316740
     18          1           0       -7.658675   -1.741875   -0.641957
     19          1           0       -8.100652   -0.029536   -0.568114
     20          1           0       -8.537397   -1.114465    0.762861
     21          6           0        5.144804   -1.943279    0.208611
     22          6           0        4.420271   -1.747367   -0.971723
     23          6           0        3.578674   -0.639943   -1.112708
     24          6           0        3.485044    0.255663   -0.048559
     25          6           0        4.194002    0.087959    1.139946
     26          6           0        5.029561   -1.026607    1.258827
     27          1           0        5.796232   -2.806326    0.309547
     28          1           0        4.507811   -2.457630   -1.788980
     29          1           0        3.006369   -0.464022   -2.015446
     30          1           0        4.086087    0.813229    1.937287
     31          1           0        5.591049   -1.176213    2.176647
     32          7           0        2.597278    1.431824   -0.186113
     33          8           0        2.532226    2.206294    0.766041
     34          8           0        1.983311    1.556956   -1.243480
 ---------------------------------------------------------------------

 SCF Done:  E(RHF) =  -669.536266230     A.U. after   15 cycles
 E2 =    -0.2090883221D+01 EUMP2 =    -0.67162714945187D+03

 The electronic state is 1-A.
 Alpha  occ. eigenvalues --  -20.60900 -20.60892 -15.85923 -11.31252 -11.27818
 Alpha  occ. eigenvalues --  -11.27813 -11.27559 -11.26828 -11.26818 -11.21213
 Alpha  occ. eigenvalues --  -11.20893 -11.20788 -11.20754 -11.20722 -11.19858
 Alpha  occ. eigenvalues --   -1.59948  -1.39507  -1.19421  -1.08824  -1.07844
 Alpha  occ. eigenvalues --   -1.04820  -1.02877  -0.95667  -0.95304  -0.86320
 Alpha  occ. eigenvalues --   -0.86220  -0.82501  -0.78962  -0.77647  -0.77552
 Alpha  occ. eigenvalues --   -0.72149  -0.71257  -0.70533  -0.65078  -0.64825
 Alpha  occ. eigenvalues --   -0.64485  -0.62168  -0.60287  -0.58694  -0.56902
 Alpha  occ. eigenvalues --   -0.55326  -0.54611  -0.53153  -0.52914  -0.51955
 Alpha  occ. eigenvalues --   -0.51733  -0.49274  -0.48908  -0.48894  -0.47268
 Alpha  occ. eigenvalues --   -0.46023  -0.45187  -0.45117  -0.44910  -0.43066
 Alpha  occ. eigenvalues --   -0.37399  -0.36422
 Alpha virt. eigenvalues --    0.04944   0.11234   0.16415   0.21360   0.23413
 Alpha virt. eigenvalues --    0.25036   0.27195   0.27277   0.28041   0.28179
 Alpha virt. eigenvalues --    0.28780   0.30882   0.32022   0.32334   0.32357

 Mulliken charges:
               1
     1  C   -0.297339
     2  C   -0.299217
     3  C   -0.485158
     4  H    0.149784
     5  H    0.146760
     6  H    0.152502
     7  H    0.147340
     8  H    0.145339
     9  H    0.157657
    10  H    0.181566
    11  C   -0.297635
    12  C   -0.299120
    13  C   -0.475345
    14  H    0.149497
    15  H    0.147845
    16  H    0.151914
    17  H    0.150594
    18  H    0.154178
    19  H    0.155124
    20  H    0.158949
    21  C   -0.170647
    22  C   -0.218600
    23  C   -0.170636
    24  C    0.158906
    25  C   -0.170737
    26  C   -0.218607
    27  H    0.225822
    28  H    0.223653
    29  H    0.275624
    30  H    0.275851
    31  H    0.223683
    32  N    0.489008
    33  O   -0.458255
    34  O   -0.460302
 Sum of Mulliken charges =  -0.00000

 Dipole moment (field-independent basis, Debye):
    X=              3.3851    Y=             -4.0448    Z=              0.4587  Tot=              5.2943
 Quadrupole moment (field-independent basis, Debye-Ang):
   XX=            -75.0765   YY=            -96.0621   ZZ=            -90.8367
   XY=            -14.2612   XZ=              2.6851   YZ=              1.9000

 Normal termination of Gaussian 16 at Wed May  5 17:09:03 2021.
