 Gaussian 16, Revision A.03,
 Gaussian 16:  EM64L-G16RevA.03 25-Dec-2016

 -------------
 #p 6-31g* mp2
 -------------

 ------------------------------------------------------
 Input file generated by CHIRIPA (05-May-2021 14:55:22)
 ------------------------------------------------------
 Symbolic Z-matrix:
 Charge =  0 Multiplicity = 1

                         Standard orientation:
 ---------------------------------------------------------------------
 Center     Atomic      Atomic             Coordinates (Angstroms)
 Number     Number       Type             X           Y           Z
 ---------------------------------------------------------------------
      1          6           0        0.569331   -1.431776    0.983844
      2          6           0        0.927849   -0.171905    1.474465
      3          6           0        2.088265    0.462628    1.021309
      4          6           0        2.870478   -0.194444    0.072790
      5          6           0        2.539956   -1.449836   -0.435184
      6          6           0        1.375108   -2.065603    0.032263
      7          1           0       -0.333830   -1.917408    1.341417
      8          1           0        0.303977    0.322699    2.213516
      9          1           0        2.389359    1.437846    1.384229
     10          1           0        3.181942   -1.917958   -1.171482
     11          1           0        1.099145   -3.044050   -0.350532
     12          7           0        4.101305    0.467374   -0.414511
     13          8           0        4.773483   -0.132550   -1.250516
     14          8           0        4.370543    1.573499    0.048776
     15          6           0       -3.794743   -0.205717   -0.488870
     16          6           0       -3.450910   -1.535916    0.182200
     17          6           0       -4.219493   -2.715231   -0.414700
     18          1           0       -4.874600   -0.024990   -0.398367
     19          1           0       -3.579067   -0.278777   -1.563831
     20          1           0       -3.665869   -1.459914    1.255807
     21          1           0       -2.371716   -1.713406    0.090256
     22          1           0       -3.997258   -2.819509   -1.481630
     23          1           0       -5.298764   -2.564577   -0.309456
     24          1           0       -3.958470   -3.656107    0.079751
     25          6           0       -3.034371    0.982728    0.096928
     26          6           0       -3.378204    2.312927   -0.574143
     27          6           0       -2.609622    3.492243    0.022757
     28          1           0       -3.250047    1.055789    1.171889
     29          1           0       -1.954514    0.802001    0.006425
     30          1           0       -4.457398    2.490416   -0.482198
     31          1           0       -3.163245    2.236925   -1.647750
     32          1           0       -1.530350    3.341589   -0.082487
     33          1           0       -2.831856    3.596520    1.089686
     34          1           0       -2.870645    4.433118   -0.471694
 ---------------------------------------------------------------------

 SCF Done:  E(RHF) =  -669.535638475     A.U. after   15 cycles
 E2 =    -0.2092288883D+01 EUMP2 =    -0.67162792735829D+03

 The electronic state is 1-A.
 Alpha  occ. eigenvalues --  -20.60791 -20.60786 -15.85845 -11.31226 -11.27795
 Alpha  occ. eigenvalues --  -11.27789 -11.27497 -11.26807 -11.26794 -11.22565
 Alpha  occ. eigenvalues --  -11.22113 -11.22094 -11.22006 -11.21892 -11.21511
 Alpha  occ. eigenvalues --   -1.59867  -1.39420  -1.19400  -1.09139  -1.08784
 Alpha  occ. eigenvalues --   -1.04800  -1.04218  -0.96639  -0.95621  -0.87659
 Alpha  occ. eigenvalues --   -0.86192  -0.82454  -0.80317  -0.78960  -0.77495
 Alpha  occ. eigenvalues --   -0.72062  -0.71190  -0.70508  -0.65761  -0.65046
 Alpha  occ. eigenvalues --   -0.64786  -0.62143  -0.61612  -0.60039  -0.58267
 Alpha  occ. eigenvalues --   -0.55918  -0.55305  -0.53347  -0.53141  -0.53054
 Alpha  occ. eigenvalues --   -0.52878  -0.50577  -0.48831  -0.48817  -0.48598
 Alpha  occ. eigenvalues --   -0.47338  -0.46482  -0.46387  -0.44822  -0.44462
 Alpha  occ. eigenvalues --   -0.37335  -0.36399
 Alpha virt. eigenvalues --    0.04994   0.11160   0.16368   0.20586   0.22577
 Alpha virt. eigenvalues --    0.23499   0.25955   0.26099   0.27101   0.27486
 Alpha virt. eigenvalues --    0.29101   0.30257   0.30849   0.31345   0.32108

 Mulliken charges:
               1
     1  C   -0.171594
     2  C   -0.219529
     3  C   -0.172091
     4  C    0.158624
     5  C   -0.170717
     6  C   -0.220499
     7  H    0.230694
     8  H    0.225610
     9  H    0.275948
    10  H    0.275743
    11  H    0.223751
    12  N    0.488059
    13  O   -0.460345
    14  O   -0.460238
    15  C   -0.297225
    16  C   -0.305785
    17  C   -0.475661
    18  H    0.152288
    19  H    0.152606
    20  H    0.150098
    21  H    0.146925
    22  H    0.157609
    23  H    0.159007
    24  H    0.158385
    25  C   -0.304280
    26  C   -0.299699
    27  C   -0.476656
    28  H    0.145702
    29  H    0.152755
    30  H    0.153074
    31  H    0.154614
    32  H    0.155865
    33  H    0.153462
    34  H    0.163499
 Sum of Mulliken charges =  -0.00000

 Dipole moment (field-independent basis, Debye):
    X=             -4.4100    Y=             -2.2815    Z=              1.6469  Tot=              5.2312
 Quadrupole moment (field-independent basis, Debye-Ang):
   XX=           -119.5049   YY=            -91.7913   ZZ=            -92.8563
   XY=             -7.3607   XZ=              3.6470   YZ=              1.9516

 Normal termination of Gaussian 16 at Wed May  5 19:00:59 2021.
