 Gaussian 16, Revision A.03,
 Gaussian 16:  EM64L-G16RevA.03 25-Dec-2016

 -------------
 #p 6-31g* mp2
 -------------

 ------------------------------------------------------
 Input file generated by CHIRIPA (05-May-2021 14:51:13)
 ------------------------------------------------------
 Symbolic Z-matrix:
 Charge =  0 Multiplicity = 1

                         Standard orientation:
 ---------------------------------------------------------------------
 Center     Atomic      Atomic             Coordinates (Angstroms)
 Number     Number       Type             X           Y           Z
 ---------------------------------------------------------------------
      1          6           0       -2.416749   -0.518563    0.897486
      2          6           0       -1.553785   -1.758371    0.660517
      3          6           0       -0.789161   -2.194191    1.910799
      4          1           0       -1.777121    0.304904    1.243497
      5          1           0       -3.127439   -0.724842    1.709744
      6          1           0       -0.845863   -1.550282   -0.151986
      7          1           0       -2.195514   -2.578928    0.314847
      8          1           0       -1.483042   -2.428708    2.724513
      9          1           0       -0.125723   -1.394218    2.255029
     10          1           0       -0.178762   -3.082146    1.718938
     11          6           0       -3.187299   -0.070618   -0.343210
     12          6           0       -4.050263    1.169190   -0.106241
     13          6           0       -4.814888    1.605010   -1.356522
     14          1           0       -2.476609    0.135661   -1.155468
     15          1           0       -3.826927   -0.894085   -0.689221
     16          1           0       -3.408535    1.989746    0.239430
     17          1           0       -4.758185    0.961101    0.706262
     18          1           0       -5.478325    0.805036   -1.700752
     19          1           0       -4.121006    1.839526   -2.170237
     20          1           0       -5.425286    2.492965   -1.164661
     21          6           0        3.120810   -0.355759   -0.519737
     22          6           0        2.101408   -1.453835   -0.824748
     23          6           0        2.754461   -2.748749   -1.309016
     24          1           0        3.713790   -0.153811   -1.422253
     25          1           0        3.824528   -0.719649    0.241684
     26          1           0        1.398989   -1.087485   -1.584360
     27          1           0        1.510658   -1.653058    0.078546
     28          1           0        3.441191   -3.140507   -0.551700
     29          1           0        3.328888   -2.571721   -2.224055
     30          1           0        2.007569   -3.520104   -1.521206
     31          6           0        2.483239    0.944940   -0.034540
     32          6           0        3.502640    2.043017    0.270471
     33          6           0        2.849587    3.337930    0.754739
     34          1           0        1.779521    1.308830   -0.795960
     35          1           0        1.890258    0.742992    0.867977
     36          1           0        4.093390    2.242239   -0.632823
     37          1           0        4.205059    1.676667    1.030083
     38          1           0        2.275160    3.160903    1.669778
     39          1           0        2.162856    3.729688   -0.002576
     40          1           0        3.596479    4.109285    0.966930
 ---------------------------------------------------------------------

 SCF Done:  E(RHF) =  -470.732566860     A.U. after   11 cycles
 E2 =    -0.1584042374D+01 EUMP2 =    -0.47231660923355D+03

 The electronic state is 1-A.
 Alpha  occ. eigenvalues --  -11.21649 -11.21577 -11.21574 -11.21485 -11.21459
 Alpha  occ. eigenvalues --  -11.21386 -11.21366 -11.21304 -11.21116 -11.21096
 Alpha  occ. eigenvalues --  -11.21087 -11.21057  -1.08488  -1.08379  -1.03606
 Alpha  occ. eigenvalues --   -1.03468  -0.96024  -0.95961  -0.87032  -0.86982
 Alpha  occ. eigenvalues --   -0.79713  -0.79510  -0.78350  -0.78150  -0.65191
 Alpha  occ. eigenvalues --   -0.64958  -0.61135  -0.60790  -0.59468  -0.59236
 Alpha  occ. eigenvalues --   -0.57711  -0.57480  -0.55326  -0.55245  -0.52706
 Alpha  occ. eigenvalues --   -0.52657  -0.52439  -0.52390  -0.49978  -0.49891
 Alpha  occ. eigenvalues --   -0.48112  -0.47796  -0.46657  -0.46585  -0.45990
 Alpha  occ. eigenvalues --   -0.45766  -0.45679  -0.45402  -0.43816  -0.43754
 Alpha virt. eigenvalues --    0.20633   0.23348   0.23568   0.24247   0.25517
 Alpha virt. eigenvalues --    0.26172   0.27117   0.28092   0.28200   0.29386
 Alpha virt. eigenvalues --    0.30849   0.31382   0.31744   0.31775   0.32240

 Mulliken charges:
               1
     1  C   -0.297799
     2  C   -0.306938
     3  C   -0.479136
     4  H    0.149688
     5  H    0.149019
     6  H    0.161181
     7  H    0.151259
     8  H    0.156479
     9  H    0.154396
    10  H    0.160219
    11  C   -0.298152
    12  C   -0.299691
    13  C   -0.475657
    14  H    0.149267
    15  H    0.149505
    16  H    0.152100
    17  H    0.151873
    18  H    0.155114
    19  H    0.154979
    20  H    0.160200
    21  C   -0.297239
    22  C   -0.310019
    23  C   -0.475625
    24  H    0.149573
    25  H    0.149624
    26  H    0.151081
    27  H    0.165092
    28  H    0.155182
    29  H    0.155173
    30  H    0.160375
    31  C   -0.299489
    32  C   -0.299592
    33  C   -0.475764
    34  H    0.149050
    35  H    0.149472
    36  H    0.152267
    37  H    0.152232
    38  H    0.155073
    39  H    0.155071
    40  H    0.160554
 Sum of Mulliken charges =  -0.00000

 Dipole moment (field-independent basis, Debye):
    X=              0.0305    Y=             -0.0085    Z=             -0.0047  Tot=              0.0320
 Quadrupole moment (field-independent basis, Debye-Ang):
   XX=            -84.7061   YY=            -85.5166   ZZ=            -84.6254
   XY=              1.0402   XZ=             -0.5018   YZ=             -0.4842

 Normal termination of Gaussian 16 at Wed May  5 23:12:30 2021.
