 Gaussian 16, Revision A.03,
 Gaussian 16:  EM64L-G16RevA.03 25-Dec-2016

 -------------
 #p 6-31g* mp2
 -------------

 ------------------------------------------------------
 Input file generated by CHIRIPA (05-May-2021 14:51:08)
 ------------------------------------------------------
 Symbolic Z-matrix:
 Charge =  0 Multiplicity = 1

                         Standard orientation:
 ---------------------------------------------------------------------
 Center     Atomic      Atomic             Coordinates (Angstroms)
 Number     Number       Type             X           Y           Z
 ---------------------------------------------------------------------
      1          6           0       -1.697961   -1.062470    0.244215
      2          6           0       -1.407118   -1.716703    1.595279
      3          6           0       -0.027520   -2.373663    1.649198
      4          1           0       -1.619952   -1.820295   -0.547341
      5          1           0       -0.924411   -0.310758    0.034588
      6          1           0       -2.181761   -2.465985    1.802933
      7          1           0       -1.486016   -0.957273    2.383731
      8          1           0        0.758808   -1.633901    1.467426
      9          1           0        0.059109   -3.151185    0.883328
     10          1           0        0.159573   -2.835137    2.623825
     11          6           0       -3.073441   -0.401439    0.174789
     12          6           0       -3.364284    0.252794   -1.176275
     13          6           0       -4.743882    0.909754   -1.230193
     14          1           0       -3.846991   -1.153151    0.384417
     15          1           0       -3.151450    0.356386    0.966345
     16          1           0       -3.285386   -0.506636   -1.964727
     17          1           0       -2.589641    1.002076   -1.383928
     18          1           0       -4.830511    1.687276   -0.464323
     19          1           0       -5.530210    0.169991   -1.048422
     20          1           0       -4.930975    1.371228   -2.204820
     21          6           0        2.375515    0.159278   -0.714843
     22          6           0        3.546694   -0.810769   -0.555672
     23          6           0        3.512439   -1.950992   -1.573764
     24          1           0        1.432321   -0.395125   -0.615000
     25          1           0        2.387923    0.574345   -1.732172
     26          1           0        3.532890   -1.222833    0.461495
     27          1           0        4.487210   -0.253959   -0.655715
     28          1           0        3.549693   -1.557189   -2.594613
     29          1           0        2.589951   -2.531568   -1.471055
     30          1           0        4.358645   -2.632472   -1.441931
     31          6           0        2.395886    1.304632    0.295839
     32          6           0        1.224708    2.274678    0.136667
     33          6           0        1.258964    3.414901    1.154759
     34          1           0        2.383479    0.889563    1.313169
     35          1           0        3.339080    1.859034    0.195996
     36          1           0        0.284192    1.717868    0.236710
     37          1           0        1.238513    2.686742   -0.880500
     38          1           0        2.181451    3.995477    1.052051
     39          1           0        1.221709    3.021100    2.175608
     40          1           0        0.412758    4.096381    1.022927
 ---------------------------------------------------------------------

 SCF Done:  E(RHF) =  -470.732400347     A.U. after   11 cycles
 E2 =    -0.1585249477D+01 EUMP2 =    -0.47231764982465D+03

 The electronic state is 1-A.
 Alpha  occ. eigenvalues --  -11.21674 -11.21664 -11.21616 -11.21571 -11.21441
 Alpha  occ. eigenvalues --  -11.21426 -11.21382 -11.21308 -11.21156 -11.21128
 Alpha  occ. eigenvalues --  -11.21081 -11.21028  -1.08526  -1.08412  -1.03585
 Alpha  occ. eigenvalues --   -1.03540  -0.96036  -0.95987  -0.87059  -0.86998
 Alpha  occ. eigenvalues --   -0.79652  -0.79614  -0.78480  -0.78097  -0.65459
 Alpha  occ. eigenvalues --   -0.64805  -0.60980  -0.60948  -0.59405  -0.59353
 Alpha  occ. eigenvalues --   -0.57643  -0.57596  -0.55426  -0.55191  -0.52729
 Alpha  occ. eigenvalues --   -0.52690  -0.52453  -0.52414  -0.50077  -0.49847
 Alpha  occ. eigenvalues --   -0.48028  -0.47902  -0.46861  -0.46645  -0.46385
 Alpha  occ. eigenvalues --   -0.45788  -0.45752  -0.44878  -0.43830  -0.43788
 Alpha virt. eigenvalues --    0.19646   0.22036   0.24160   0.24618   0.25445
 Alpha virt. eigenvalues --    0.26188   0.26869   0.27585   0.28153   0.30357
 Alpha virt. eigenvalues --    0.31086   0.31487   0.31592   0.31929   0.32204

 Mulliken charges:
               1
     1  C   -0.311360
     2  C   -0.299234
     3  C   -0.481990
     4  H    0.149729
     5  H    0.161510
     6  H    0.152499
     7  H    0.151648
     8  H    0.160762
     9  H    0.155353
    10  H    0.160833
    11  C   -0.297400
    12  C   -0.300504
    13  C   -0.475731
    14  H    0.149791
    15  H    0.149430
    16  H    0.152124
    17  H    0.152737
    18  H    0.155204
    19  H    0.155194
    20  H    0.160403
    21  C   -0.307946
    22  C   -0.300033
    23  C   -0.476031
    24  H    0.158932
    25  H    0.149803
    26  H    0.152703
    27  H    0.151785
    28  H    0.154884
    29  H    0.156089
    30  H    0.160104
    31  C   -0.299419
    32  C   -0.306988
    33  C   -0.475232
    34  H    0.149334
    35  H    0.150346
    36  H    0.157293
    37  H    0.152434
    38  H    0.155661
    39  H    0.155120
    40  H    0.160164
 Sum of Mulliken charges =  -0.00000

 Dipole moment (field-independent basis, Debye):
    X=             -0.0136    Y=             -0.0039    Z=             -0.0052  Tot=              0.0150
 Quadrupole moment (field-independent basis, Debye-Ang):
   XX=            -85.2977   YY=            -84.7282   ZZ=            -84.7397
   XY=              1.2808   XZ=             -0.3131   YZ=             -0.5650

 Normal termination of Gaussian 16 at Thu May  6 14:51:21 2021.
