 Gaussian 16, Revision A.03,
 Gaussian 16:  EM64L-G16RevA.03 25-Dec-2016

 -------------
 #p 6-31g* mp2
 -------------

 ------------------------------------------------------
 Input file generated by CHIRIPA (05-May-2021 14:51:10)
 ------------------------------------------------------
 Symbolic Z-matrix:
 Charge =  0 Multiplicity = 1

                         Standard orientation:
 ---------------------------------------------------------------------
 Center     Atomic      Atomic             Coordinates (Angstroms)
 Number     Number       Type             X           Y           Z
 ---------------------------------------------------------------------
      1          6           0       -4.434692    0.101174   -0.076052
      2          6           0       -4.436772   -1.426610   -0.138163
      3          6           0       -5.847407   -2.014279   -0.188637
      4          1           0       -5.000870    0.426657    0.807378
      5          1           0       -4.966904    0.497524   -0.951868
      6          1           0       -3.903514   -1.819932    0.736795
      7          1           0       -3.870362   -1.748498   -1.021442
      8          1           0       -6.385239   -1.649884   -1.069860
      9          1           0       -6.418580   -1.721724    0.698367
     10          1           0       -5.825486   -3.107642   -0.232645
     11          6           0       -3.031721    0.703507   -0.025127
     12          6           0       -3.029642    2.231291    0.036983
     13          6           0       -1.619006    2.818960    0.087457
     14          1           0       -2.499510    0.307158    0.850689
     15          1           0       -2.465544    0.378025   -0.908557
     16          1           0       -3.596052    2.553179    0.920263
     17          1           0       -3.562899    2.624613   -0.837974
     18          1           0       -1.047834    2.526405   -0.799546
     19          1           0       -1.081175    2.454566    0.968681
     20          1           0       -1.640927    3.912323    0.131465
     21          6           0        4.327162    0.035203   -0.147410
     22          6           0        5.678519   -0.654227    0.043655
     23          6           0        6.857048    0.233764   -0.356760
     24          1           0        4.221272    0.335397   -1.198893
     25          1           0        4.308336    0.960337    0.445185
     26          1           0        5.694273   -1.578495   -0.548035
     27          1           0        5.781123   -0.952985    1.094765
     28          1           0        6.869470    1.150448    0.241684
     29          1           0        6.782126    0.521384   -1.410450
     30          1           0        7.813213   -0.278778   -0.212156
     31          6           0        3.139251   -0.839884    0.248589
     32          6           0        1.787895   -0.150454    0.057524
     33          6           0        0.609365   -1.038445    0.457940
     34          1           0        3.158077   -1.765019   -0.344006
     35          1           0        3.245142   -1.140078    1.300071
     36          1           0        1.685291    0.148304   -0.993585
     37          1           0        1.772141    0.773814    0.649215
     38          1           0        0.684288   -1.326065    1.511630
     39          1           0        0.596944   -1.955129   -0.140506
     40          1           0       -0.346799   -0.525903    0.313335
 ---------------------------------------------------------------------

 SCF Done:  E(RHF) =  -470.732854199     A.U. after   11 cycles
 E2 =    -0.1583321712D+01 EUMP2 =    -0.47231617591128D+03

 The electronic state is 1-A.
 Alpha  occ. eigenvalues --  -11.21636 -11.21599 -11.21562 -11.21504 -11.21434
 Alpha  occ. eigenvalues --  -11.21373 -11.21343 -11.21281 -11.21096 -11.21070
 Alpha  occ. eigenvalues --  -11.21040 -11.20863  -1.08468  -1.08359  -1.03557
 Alpha  occ. eigenvalues --   -1.03445  -0.96006  -0.95898  -0.87037  -0.86905
 Alpha  occ. eigenvalues --   -0.79619  -0.79521  -0.78298  -0.78176  -0.65096
 Alpha  occ. eigenvalues --   -0.64991  -0.60954  -0.60843  -0.59506  -0.59172
 Alpha  occ. eigenvalues --   -0.57633  -0.57497  -0.55289  -0.55189  -0.52802
 Alpha  occ. eigenvalues --   -0.52645  -0.52389  -0.52246  -0.49949  -0.49839
 Alpha  occ. eigenvalues --   -0.47949  -0.47807  -0.46644  -0.46554  -0.45792
 Alpha  occ. eigenvalues --   -0.45748  -0.45712  -0.45645  -0.43814  -0.43611
 Alpha virt. eigenvalues --    0.21659   0.23108   0.23491   0.25141   0.26149
 Alpha virt. eigenvalues --    0.26639   0.26737   0.27063   0.28140   0.29307
 Alpha virt. eigenvalues --    0.30609   0.31087   0.31498   0.31617   0.32310

 Mulliken charges:
               1
     1  C   -0.297115
     2  C   -0.300039
     3  C   -0.475713
     4  H    0.149646
     5  H    0.149496
     6  H    0.152593
     7  H    0.152133
     8  H    0.155099
     9  H    0.155145
    10  H    0.160417
    11  C   -0.304192
    12  C   -0.299142
    13  C   -0.477696
    14  H    0.153451
    15  H    0.151085
    16  H    0.151954
    17  H    0.152008
    18  H    0.156328
    19  H    0.156221
    20  H    0.160532
    21  C   -0.298131
    22  C   -0.299560
    23  C   -0.475651
    24  H    0.149424
    25  H    0.149478
    26  H    0.151803
    27  H    0.151822
    28  H    0.155143
    29  H    0.155091
    30  H    0.160093
    31  C   -0.298327
    32  C   -0.298690
    33  C   -0.486813
    34  H    0.149238
    35  H    0.149329
    36  H    0.150877
    37  H    0.152245
    38  H    0.153180
    39  H    0.153973
    40  H    0.173264
 Sum of Mulliken charges =  -0.00000

 Dipole moment (field-independent basis, Debye):
    X=             -0.0735    Y=              0.0286    Z=             -0.0029  Tot=              0.0789
 Quadrupole moment (field-independent basis, Debye-Ang):
   XX=            -86.6788   YY=            -85.2758   ZZ=            -82.8564
   XY=             -0.9895   XZ=              0.2040   YZ=              0.4367

 Normal termination of Gaussian 16 at Wed May  5 21:26:10 2021.
