 Gaussian 16, Revision A.03,
 Gaussian 16:  EM64L-G16RevA.03 25-Dec-2016

 -------------
 #p 6-31g* mp2
 -------------

 ------------------------------------------------------
 Input file generated by CHIRIPA (05-May-2021 14:55:20)
 ------------------------------------------------------
 Symbolic Z-matrix:
 Charge =  0 Multiplicity = 1

                         Standard orientation:
 ---------------------------------------------------------------------
 Center     Atomic      Atomic             Coordinates (Angstroms)
 Number     Number       Type             X           Y           Z
 ---------------------------------------------------------------------
      1          6           0        3.321654   -2.328935   -0.661185
      2          6           0        4.407863   -1.447967   -0.685004
      3          6           0        4.219442   -0.082083   -0.453909
      4          6           0        2.925451    0.370616   -0.201039
      5          6           0        1.823047   -0.482070   -0.170676
      6          6           0        2.034982   -1.844030   -0.404550
      7          1           0        3.477157   -3.388463   -0.841785
      8          1           0        5.408223   -1.821737   -0.884049
      9          1           0        5.042535    0.622032   -0.466496
     10          1           0        0.837578   -0.079827    0.030493
     11          1           0        1.189551   -2.525885   -0.385439
     12          7           0        2.713532    1.814539    0.045082
     13          8           0        1.563613    2.188334    0.265538
     14          8           0        3.701362    2.545151    0.012875
     15          6           0       -4.310812   -0.390854   -0.203160
     16          6           0       -5.239124    0.739105   -0.649720
     17          6           0       -6.276980    0.281245   -1.674909
     18          1           0       -3.800711   -0.806969   -1.082699
     19          1           0       -4.913842   -1.204782    0.222599
     20          1           0       -4.634417    1.551245   -1.073245
     21          1           0       -5.746932    1.152706    0.231008
     22          1           0       -6.904783   -0.513412   -1.258994
     23          1           0       -5.785947   -0.112608   -2.570658
     24          1           0       -6.930025    1.104723   -1.980321
     25          6           0       -3.267755    0.051295    0.821664
     26          6           0       -2.339444   -1.078663    1.268223
     27          6           0       -1.301587   -0.620803    2.293412
     28          1           0       -2.664726    0.865224    0.395905
     29          1           0       -3.777858    0.467410    1.701203
     30          1           0       -1.831637   -1.492264    0.387495
     31          1           0       -2.944152   -1.890803    1.691749
     32          1           0       -1.792621   -0.226949    3.189162
     33          1           0       -0.673785    0.173854    1.877498
     34          1           0       -0.648543   -1.444281    2.598824
 ---------------------------------------------------------------------

 SCF Done:  E(RHF) =  -669.535648563     A.U. after   15 cycles
 E2 =    -0.2091704998D+01 EUMP2 =    -0.67162735356109D+03

 The electronic state is 1-A.
 Alpha  occ. eigenvalues --  -20.60810 -20.60804 -15.85853 -11.31176 -11.27754
 Alpha  occ. eigenvalues --  -11.27720 -11.27495 -11.26764 -11.26747 -11.22030
 Alpha  occ. eigenvalues --  -11.21616 -11.21531 -11.21472 -11.21343 -11.21092
 Alpha  occ. eigenvalues --   -1.59877  -1.39433  -1.19353  -1.08757  -1.08601
 Alpha  occ. eigenvalues --   -1.04754  -1.03721  -0.96149  -0.95595  -0.87162
 Alpha  occ. eigenvalues --   -0.86153  -0.82430  -0.79784  -0.78387  -0.77485
 Alpha  occ. eigenvalues --   -0.72075  -0.71194  -0.70480  -0.65270  -0.65006
 Alpha  occ. eigenvalues --   -0.64752  -0.62195  -0.61040  -0.59523  -0.57750
 Alpha  occ. eigenvalues --   -0.55508  -0.55179  -0.53092  -0.52875  -0.52832
 Alpha  occ. eigenvalues --   -0.52526  -0.50067  -0.48834  -0.48826  -0.48083
 Alpha  occ. eigenvalues --   -0.46828  -0.45937  -0.45837  -0.44840  -0.43955
 Alpha  occ. eigenvalues --   -0.37338  -0.36345
 Alpha virt. eigenvalues --    0.05031   0.11274   0.16529   0.19320   0.22932
 Alpha virt. eigenvalues --    0.23880   0.25912   0.26398   0.27617   0.28149
 Alpha virt. eigenvalues --    0.29363   0.29650   0.31458   0.31592   0.32190

 Mulliken charges:
               1
     1  C   -0.170564
     2  C   -0.218833
     3  C   -0.170399
     4  C    0.157458
     5  C   -0.173333
     6  C   -0.222034
     7  H    0.225606
     8  H    0.223392
     9  H    0.275504
    10  H    0.283142
    11  H    0.224604
    12  N    0.488364
    13  O   -0.462822
    14  O   -0.459745
    15  C   -0.298098
    16  C   -0.300343
    17  C   -0.475813
    18  H    0.147377
    19  H    0.148779
    20  H    0.155054
    21  H    0.152946
    22  H    0.154504
    23  H    0.154593
    24  H    0.161381
    25  C   -0.300199
    26  C   -0.301322
    27  C   -0.485623
    28  H    0.156357
    29  H    0.152617
    30  H    0.140359
    31  H    0.153634
    32  H    0.161403
    33  H    0.165158
    34  H    0.156893
 Sum of Mulliken charges =  -0.00000

 Dipole moment (field-independent basis, Debye):
    X=              0.6814    Y=             -4.9759    Z=             -0.8103  Tot=              5.0873
 Quadrupole moment (field-independent basis, Debye-Ang):
   XX=            -85.4218   YY=            -99.1012   ZZ=            -95.0402
   XY=            -14.1755   XZ=             -4.6695   YZ=              0.4105

 Normal termination of Gaussian 16 at Thu May  6 10:51:43 2021.
