 Gaussian 16, Revision A.03,
 Gaussian 16:  EM64L-G16RevA.03 25-Dec-2016

 -------------
 #p 6-31g* mp2
 -------------

 ------------------------------------------------------
 Input file generated by CHIRIPA (05-May-2021 14:51:13)
 ------------------------------------------------------
 Symbolic Z-matrix:
 Charge =  0 Multiplicity = 1

                         Standard orientation:
 ---------------------------------------------------------------------
 Center     Atomic      Atomic             Coordinates (Angstroms)
 Number     Number       Type             X           Y           Z
 ---------------------------------------------------------------------
      1          6           0        4.416679   -0.101888   -0.385181
      2          6           0        5.808019   -0.336030    0.204171
      3          6           0        6.892522   -0.449805   -0.867604
      4          1           0        4.172280   -0.925285   -1.070186
      5          1           0        4.432253    0.814624   -0.991115
      6          1           0        5.789473   -1.251079    0.809940
      7          1           0        6.049055    0.487921    0.888000
      8          1           0        6.940138    0.465643   -1.466177
      9          1           0        6.679081   -1.283238   -1.544680
     10          1           0        7.879118   -0.616975   -0.424273
     11          6           0        3.321815    0.014005    0.673861
     12          6           0        1.930475    0.248146    0.084509
     13          6           0        0.845972    0.361921    1.156285
     14          1           0        3.306240   -0.902508    1.279795
     15          1           0        3.566213    0.837401    1.358867
     16          1           0        1.689439   -0.575805   -0.599320
     17          1           0        1.949021    1.163196   -0.521260
     18          1           0        1.059413    1.195354    1.833361
     19          1           0        0.798356   -0.553527    1.754857
     20          1           0       -0.140624    0.529091    0.712953
     21          6           0       -4.044791    0.755483   -0.359574
     22          6           0       -3.025713    1.797586    0.102472
     23          6           0       -3.390709    3.216213   -0.335789
     24          1           0       -4.127149    0.792771   -1.454458
     25          1           0       -5.034704    1.019651    0.037518
     26          1           0       -2.037759    1.530770   -0.294230
     27          1           0       -2.945630    1.757682    1.196369
     28          1           0       -4.364297    3.506883    0.071935
     29          1           0       -3.451268    3.278683   -1.427133
     30          1           0       -2.648834    3.945097    0.005104
     31          6           0       -3.693703   -0.667599    0.070894
     32          6           0       -4.712781   -1.709703   -0.391152
     33          6           0       -4.347785   -3.128328    0.047108
     34          1           0       -2.703789   -0.931768   -0.326198
     35          1           0       -3.611343   -0.704887    1.165778
     36          1           0       -4.792864   -1.669798   -1.485049
     37          1           0       -5.700734   -1.442887    0.005549
     38          1           0       -4.287225   -3.190800    1.138452
     39          1           0       -3.374197   -3.419000   -0.360616
     40          1           0       -5.089660   -3.857213   -0.293784
 ---------------------------------------------------------------------

 SCF Done:  E(RHF) =  -470.733205520     A.U. after   11 cycles
 E2 =    -0.1582622209D+01 EUMP2 =    -0.47231582772916D+03

 The electronic state is 1-A.
 Alpha  occ. eigenvalues --  -11.21612 -11.21607 -11.21592 -11.21578 -11.21413
 Alpha  occ. eigenvalues --  -11.21388 -11.21354 -11.21328 -11.21081 -11.21073
 Alpha  occ. eigenvalues --  -11.21065 -11.20966  -1.08446  -1.08408  -1.03548
 Alpha  occ. eigenvalues --   -1.03497  -0.95986  -0.95950  -0.87017  -0.86954
 Alpha  occ. eigenvalues --   -0.79647  -0.79534  -0.78263  -0.78220  -0.65079
 Alpha  occ. eigenvalues --   -0.65041  -0.60954  -0.60897  -0.59476  -0.59216
 Alpha  occ. eigenvalues --   -0.57620  -0.57542  -0.55276  -0.55230  -0.52780
 Alpha  occ. eigenvalues --   -0.52594  -0.52424  -0.52347  -0.49929  -0.49887
 Alpha  occ. eigenvalues --   -0.48023  -0.47793  -0.46631  -0.46603  -0.45798
 Alpha  occ. eigenvalues --   -0.45766  -0.45703  -0.45693  -0.43812  -0.43676
 Alpha virt. eigenvalues --    0.21724   0.23083   0.23703   0.24506   0.26124
 Alpha virt. eigenvalues --    0.26668   0.26808   0.27551   0.27933   0.29012
 Alpha virt. eigenvalues --    0.30825   0.31405   0.31563   0.31917   0.31977

 Mulliken charges:
               1
     1  C   -0.298218
     2  C   -0.299633
     3  C   -0.475690
     4  H    0.149497
     5  H    0.149421
     6  H    0.151930
     7  H    0.151933
     8  H    0.155146
     9  H    0.155132
    10  H    0.160229
    11  C   -0.298183
    12  C   -0.299353
    13  C   -0.483981
    14  H    0.149561
    15  H    0.149637
    16  H    0.151155
    17  H    0.151436
    18  H    0.154668
    19  H    0.154886
    20  H    0.169118
    21  C   -0.298037
    22  C   -0.304945
    23  C   -0.475198
    24  H    0.149459
    25  H    0.149648
    26  H    0.156445
    27  H    0.152973
    28  H    0.155259
    29  H    0.155061
    30  H    0.160446
    31  C   -0.299459
    32  C   -0.299664
    33  C   -0.475678
    34  H    0.150194
    35  H    0.150192
    36  H    0.151896
    37  H    0.152041
    38  H    0.155298
    39  H    0.155151
    40  H    0.160228
 Sum of Mulliken charges =  -0.00000

 Dipole moment (field-independent basis, Debye):
    X=             -0.0390    Y=              0.0087    Z=              0.0045  Tot=              0.0402
 Quadrupole moment (field-independent basis, Debye-Ang):
   XX=            -85.3190   YY=            -84.8971   ZZ=            -84.5261
   XY=              0.3003   XZ=              0.0693   YZ=              0.3644

 Normal termination of Gaussian 16 at Thu May  6 05:33:41 2021.
