 Gaussian 16, Revision A.03,
 Gaussian 16:  EM64L-G16RevA.03 25-Dec-2016

 -------------
 #p 6-31g* mp2
 -------------

 ------------------------------------------------------
 Input file generated by CHIRIPA (05-May-2021 14:57:22)
 ------------------------------------------------------
 Symbolic Z-matrix:
 Charge =  0 Multiplicity = 1

                         Standard orientation:
 ---------------------------------------------------------------------
 Center     Atomic      Atomic             Coordinates (Angstroms)
 Number     Number       Type             X           Y           Z
 ---------------------------------------------------------------------
      1          6           0       -2.116166   -0.387799    0.720410
      2          6           0       -2.832287   -1.501534    0.269537
      3          6           0       -4.175688   -1.380600   -0.098156
      4          6           0       -4.774243   -0.125294   -0.002090
      5          6           0       -4.087469    1.003076    0.443345
      6          6           0       -2.744934    0.858753    0.805725
      7          1           0       -1.072917   -0.490828    1.003979
      8          1           0       -2.346558   -2.470856    0.202258
      9          1           0       -4.753657   -2.226291   -0.450543
     10          1           0       -4.598860    1.956349    0.499629
     11          1           0       -2.191256    1.725427    1.155529
     12          7           0       -6.195983    0.015113   -0.388538
     13          8           0       -6.700354    1.132011   -0.294801
     14          8           0       -6.779051   -0.994392   -0.777856
     15          6           0        2.614836    1.776971    0.026907
     16          6           0        3.895542    2.224871   -0.313240
     17          6           0        4.969602    1.331439   -0.365408
     18          6           0        4.726033   -0.009005   -0.070157
     19          6           0        3.461582   -0.485831    0.272030
     20          6           0        2.402319    0.425433    0.317943
     21          1           0        1.786227    2.477937    0.065003
     22          1           0        4.063530    3.273926   -0.539752
     23          1           0        5.971271    1.651213   -0.625836
     24          1           0        3.325146   -1.537551    0.492677
     25          1           0        1.408774    0.074760    0.582410
     26          7           0        5.855261   -0.964280   -0.122075
     27          8           0        5.614486   -2.140173    0.142389
     28          8           0        6.959743   -0.519045   -0.426248
 ---------------------------------------------------------------------

 SCF Done:  E(RHF) =  -868.336280583     A.U. after   16 cycles
 E2 =    -0.2599569967D+01 EUMP2 =    -0.87093585055002D+03

 The electronic state is 1-A.
 Alpha  occ. eigenvalues --  -20.61338 -20.61329 -20.61278 -20.61271 -15.86397
 Alpha  occ. eigenvalues --  -15.86336 -11.31889 -11.31849 -11.28540 -11.28448
 Alpha  occ. eigenvalues --  -11.28440 -11.28400 -11.28342 -11.28303 -11.27676
 Alpha  occ. eigenvalues --  -11.27567 -11.27489 -11.27479  -1.60409  -1.60349
 Alpha  occ. eigenvalues --   -1.39959  -1.39898  -1.20093  -1.20047  -1.09472
 Alpha  occ. eigenvalues --   -1.09442  -1.05529  -1.05464  -0.96277  -0.96249
 Alpha  occ. eigenvalues --   -0.86931  -0.86872  -0.83127  -0.83059  -0.78138
 Alpha  occ. eigenvalues --   -0.78063  -0.72613  -0.72553  -0.71734  -0.71673
 Alpha  occ. eigenvalues --   -0.71260  -0.71201  -0.65757  -0.65714  -0.65606
 Alpha  occ. eigenvalues --   -0.65452  -0.62888  -0.62802  -0.56170  -0.55962
 Alpha  occ. eigenvalues --   -0.53832  -0.53794  -0.53621  -0.53571  -0.49384
 Alpha  occ. eigenvalues --   -0.49358  -0.49323  -0.49297  -0.45336  -0.45270
 Alpha  occ. eigenvalues --   -0.38089  -0.38066  -0.37125  -0.37053
 Alpha virt. eigenvalues --    0.04427   0.04454   0.10525   0.10587   0.15815
 Alpha virt. eigenvalues --    0.15888   0.17452   0.21987   0.24292   0.26240
 Alpha virt. eigenvalues --    0.27652   0.28747   0.29572   0.31479   0.32051

 Mulliken charges:
               1
     1  C   -0.174610
     2  C   -0.218745
     3  C   -0.169749
     4  C    0.159483
     5  C   -0.169968
     6  C   -0.219660
     7  H    0.221987
     8  H    0.226046
     9  H    0.278320
    10  H    0.277143
    11  H    0.219619
    12  N    0.487859
    13  O   -0.459126
    14  O   -0.458142
    15  C   -0.171385
    16  C   -0.218103
    17  C   -0.169605
    18  C    0.159343
    19  C   -0.171549
    20  C   -0.220224
    21  H    0.223997
    22  H    0.226082
    23  H    0.278142
    24  H    0.275723
    25  H    0.216977
    26  N    0.488077
    27  O   -0.459778
    28  O   -0.458155
 Sum of Mulliken charges =  -0.00000

 Dipole moment (field-independent basis, Debye):
    X=              1.0267    Y=              2.8741    Z=              1.4530  Tot=              3.3802
 Quadrupole moment (field-independent basis, Debye-Ang):
   XX=           -187.2156   YY=            -97.1919   ZZ=           -105.9879
   XY=             20.9899   XZ=             -6.3165   YZ=             -0.3139

 Normal termination of Gaussian 16 at Thu May  6 21:07:31 2021.
