 Gaussian 16, Revision A.03,
 Gaussian 16:  EM64L-G16RevA.03 25-Dec-2016

 -------------
 #p 6-31g* mp2
 -------------

 ------------------------------------------------------
 Input file generated by CHIRIPA (05-May-2021 14:55:25)
 ------------------------------------------------------
 Symbolic Z-matrix:
 Charge =  0 Multiplicity = 1

                         Standard orientation:
 ---------------------------------------------------------------------
 Center     Atomic      Atomic             Coordinates (Angstroms)
 Number     Number       Type             X           Y           Z
 ---------------------------------------------------------------------
      1          6           0       -2.615441    2.397972    0.403547
      2          6           0       -1.492726    1.786336    0.970939
      3          6           0       -1.267350    0.417263    0.799495
      4          6           0       -2.189268   -0.313229    0.051339
      5          6           0       -3.317265    0.267296   -0.526505
      6          6           0       -3.522527    1.637841   -0.342050
      7          1           0       -2.782706    3.462073    0.541782
      8          1           0       -0.786591    2.374181    1.550470
      9          1           0       -0.406484   -0.081713    1.227689
     10          1           0       -4.003472   -0.344860   -1.099045
     11          1           0       -4.395312    2.110176   -0.783854
     12          7           0       -1.961319   -1.763384   -0.137048
     13          8           0       -2.788476   -2.384861   -0.800535
     14          8           0       -0.959812   -2.251080    0.382348
     15          6           0        2.788988    0.799653    0.182893
     16          6           0        2.986270    1.900715   -0.859569
     17          6           0        2.860552    3.304776   -0.267453
     18          1           0        1.800192    0.916112    0.647291
     19          1           0        3.528349    0.927629    0.985615
     20          1           0        2.247651    1.769880   -1.660781
     21          1           0        3.974635    1.781507   -1.321675
     22          1           0        3.607177    3.459858    0.518105
     23          1           0        1.870381    3.448165    0.177073
     24          1           0        3.005085    4.076474   -1.029983
     25          6           0        2.911715   -0.609633   -0.393804
     26          6           0        2.714432   -1.710695    0.648657
     27          6           0        2.840151   -3.114757    0.056541
     28          1           0        2.172353   -0.737609   -1.196526
     29          1           0        3.900510   -0.726092   -0.858202
     30          1           0        1.726068   -1.591487    1.110762
     31          1           0        3.453052   -1.579861    1.449868
     32          1           0        3.830321   -3.258145   -0.387985
     33          1           0        2.093525   -3.269838   -0.729017
     34          1           0        2.695618   -3.886454    0.819071
 ---------------------------------------------------------------------

 SCF Done:  E(RHF) =  -669.535531617     A.U. after   15 cycles
 E2 =    -0.2093744747D+01 EUMP2 =    -0.67162927636435D+03

 The electronic state is 1-A.
 Alpha  occ. eigenvalues --  -20.60950 -20.60943 -15.85984 -11.31300 -11.27870
 Alpha  occ. eigenvalues --  -11.27855 -11.27601 -11.26874 -11.26864 -11.21813
 Alpha  occ. eigenvalues --  -11.21568 -11.21489 -11.21116 -11.20964 -11.20169
 Alpha  occ. eigenvalues --   -1.60013  -1.39569  -1.19475  -1.08876  -1.08344
 Alpha  occ. eigenvalues --   -1.04872  -1.03312  -0.95795  -0.95720  -0.86810
 Alpha  occ. eigenvalues --   -0.86271  -0.82558  -0.79467  -0.78156  -0.77562
 Alpha  occ. eigenvalues --   -0.72215  -0.71329  -0.70590  -0.65134  -0.65081
 Alpha  occ. eigenvalues --   -0.64801  -0.62197  -0.60674  -0.59240  -0.57383
 Alpha  occ. eigenvalues --   -0.55379  -0.55090  -0.53195  -0.52963  -0.52458
 Alpha  occ. eigenvalues --   -0.52220  -0.49766  -0.48977  -0.48949  -0.47751
 Alpha  occ. eigenvalues --   -0.46513  -0.45638  -0.45457  -0.44953  -0.43600
 Alpha  occ. eigenvalues --   -0.37449  -0.36449
 Alpha virt. eigenvalues --    0.04872   0.11123   0.16268   0.19636   0.23310
 Alpha virt. eigenvalues --    0.23584   0.25036   0.27003   0.27232   0.28408
 Alpha virt. eigenvalues --    0.29306   0.31009   0.31688   0.32041   0.32659

 Mulliken charges:
               1
     1  C   -0.170263
     2  C   -0.222394
     3  C   -0.172063
     4  C    0.155394
     5  C   -0.170185
     6  C   -0.218806
     7  H    0.226420
     8  H    0.226116
     9  H    0.283362
    10  H    0.275896
    11  H    0.223985
    12  N    0.490716
    13  O   -0.459003
    14  O   -0.465038
    15  C   -0.298737
    16  C   -0.299166
    17  C   -0.474834
    18  H    0.137128
    19  H    0.149883
    20  H    0.153579
    21  H    0.154591
    22  H    0.156074
    23  H    0.146278
    24  H    0.161418
    25  C   -0.299354
    26  C   -0.307175
    27  C   -0.473775
    28  H    0.152658
    29  H    0.149511
    30  H    0.165436
    31  H    0.145934
    32  H    0.148299
    33  H    0.166289
    34  H    0.161827
 Sum of Mulliken charges =  -0.00000

 Dipole moment (field-independent basis, Debye):
    X=             -0.9375    Y=              4.9509    Z=              0.5758  Tot=              5.0717
 Quadrupole moment (field-independent basis, Debye-Ang):
   XX=            -87.0906   YY=            -99.5153   ZZ=            -93.8971
   XY=            -10.8178   XZ=              1.1506   YZ=             -0.0595

 Normal termination of Gaussian 16 at Thu May  6 12:43:07 2021.
