 Gaussian 16, Revision A.03,
 Gaussian 16:  EM64L-G16RevA.03 25-Dec-2016

 -------------
 #p 6-31g* mp2
 -------------

 ------------------------------------------------------
 Input file generated by CHIRIPA (05-May-2021 14:51:10)
 ------------------------------------------------------
 Symbolic Z-matrix:
 Charge =  0 Multiplicity = 1

                         Standard orientation:
 ---------------------------------------------------------------------
 Center     Atomic      Atomic             Coordinates (Angstroms)
 Number     Number       Type             X           Y           Z
 ---------------------------------------------------------------------
      1          6           0       -2.669949    0.370307    0.301380
      2          6           0       -2.542803    1.413707    1.411847
      3          6           0       -1.201614    2.147309    1.382968
      4          1           0       -1.850993   -0.356106    0.394001
      5          1           0       -2.541646    0.863557   -0.672087
      6          1           0       -2.672684    0.918868    2.382868
      7          1           0       -3.362268    2.137611    1.316688
      8          1           0       -1.067025    2.666595    0.428595
      9          1           0       -0.373523    1.440928    1.500833
     10          1           0       -1.132078    2.888504    2.185249
     11          6           0       -4.005316   -0.371499    0.317115
     12          6           0       -4.132463   -1.414899   -0.793352
     13          6           0       -5.473652   -2.148501   -0.764473
     14          1           0       -4.133619   -0.864749    1.290582
     15          1           0       -4.824273    0.354914    0.224494
     16          1           0       -3.312997   -2.138803   -0.698193
     17          1           0       -4.002581   -0.920061   -1.764373
     18          1           0       -6.301742   -1.442120   -0.882338
     19          1           0       -5.608241   -2.667787    0.189900
     20          1           0       -5.543187   -2.889696   -1.566754
     21          6           0        3.145425    0.476288   -0.875114
     22          6           0        1.994222    1.415298   -0.513206
     23          6           0        1.621237    2.360853   -1.655398
     24          1           0        4.022259    1.074058   -1.159326
     25          1           0        2.866265   -0.110101   -1.761463
     26          1           0        2.274925    1.998754    0.373023
     27          1           0        1.120085    0.815223   -0.229637
     28          1           0        1.315531    1.793858   -2.540644
     29          1           0        2.476933    2.984113   -1.934559
     30          1           0        0.796215    3.023156   -1.375120
     31          6           0        3.529841   -0.475095    0.256619
     32          6           0        4.681043   -1.414106   -0.105289
     33          6           0        5.054028   -2.359661    1.036902
     34          1           0        3.809000    0.111292    1.142968
     35          1           0        2.653006   -1.072866    0.540832
     36          1           0        5.555180   -0.814032   -0.388857
     37          1           0        4.400340   -1.997562   -0.991517
     38          1           0        4.198332   -2.982921    1.316065
     39          1           0        5.359734   -1.792666    1.922149
     40          1           0        5.879050   -3.021964    0.756625
 ---------------------------------------------------------------------

 SCF Done:  E(RHF) =  -470.732462814     A.U. after   11 cycles
 E2 =    -0.1583478891D+01 EUMP2 =    -0.47231594170494D+03

 The electronic state is 1-A.
 Alpha  occ. eigenvalues --  -11.21621 -11.21591 -11.21586 -11.21485 -11.21427
 Alpha  occ. eigenvalues --  -11.21378 -11.21367 -11.21302 -11.21086 -11.21068
 Alpha  occ. eigenvalues --  -11.21016 -11.20980  -1.08450  -1.08387  -1.03570
 Alpha  occ. eigenvalues --   -1.03453  -0.96022  -0.95905  -0.86999  -0.86965
 Alpha  occ. eigenvalues --   -0.79713  -0.79462  -0.78319  -0.78139  -0.65085
 Alpha  occ. eigenvalues --   -0.65016  -0.60960  -0.60872  -0.59455  -0.59260
 Alpha  occ. eigenvalues --   -0.57801  -0.57338  -0.55286  -0.55234  -0.52706
 Alpha  occ. eigenvalues --   -0.52660  -0.52415  -0.52292  -0.49976  -0.49865
 Alpha  occ. eigenvalues --   -0.48101  -0.47716  -0.46697  -0.46516  -0.45948
 Alpha  occ. eigenvalues --   -0.45731  -0.45690  -0.45413  -0.43787  -0.43740
 Alpha virt. eigenvalues --    0.21448   0.23169   0.23412   0.24639   0.25643
 Alpha virt. eigenvalues --    0.26549   0.26743   0.27595   0.27977   0.29265
 Alpha virt. eigenvalues --    0.29976   0.31319   0.31407   0.31883   0.32445

 Mulliken charges:
               1
     1  C   -0.298941
     2  C   -0.299901
     3  C   -0.481060
     4  H    0.148941
     5  H    0.149798
     6  H    0.151701
     7  H    0.151631
     8  H    0.157549
     9  H    0.160849
    10  H    0.159522
    11  C   -0.298207
    12  C   -0.299648
    13  C   -0.475717
    14  H    0.149602
    15  H    0.149901
    16  H    0.151664
    17  H    0.151987
    18  H    0.155272
    19  H    0.155218
    20  H    0.160265
    21  C   -0.298064
    22  C   -0.301858
    23  C   -0.478199
    24  H    0.149245
    25  H    0.149178
    26  H    0.152147
    27  H    0.156597
    28  H    0.154717
    29  H    0.154917
    30  H    0.161924
    31  C   -0.298181
    32  C   -0.299529
    33  C   -0.475679
    34  H    0.149455
    35  H    0.148576
    36  H    0.152050
    37  H    0.151919
    38  H    0.154951
    39  H    0.155166
    40  H    0.160245
 Sum of Mulliken charges =  -0.00000

 Dipole moment (field-independent basis, Debye):
    X=             -0.0095    Y=              0.0105    Z=              0.0091  Tot=              0.0168
 Quadrupole moment (field-independent basis, Debye-Ang):
   XX=            -85.2612   YY=            -84.7759   ZZ=            -84.8733
   XY=             -0.0611   XZ=              0.1637   YZ=              0.2816

 Normal termination of Gaussian 16 at Thu May  6 05:24:59 2021.
