 Gaussian 16, Revision A.03,
 Gaussian 16:  EM64L-G16RevA.03 25-Dec-2016

 -------------
 #p 6-31g* mp2
 -------------

 ------------------------------------------------------
 Input file generated by CHIRIPA (05-May-2021 14:53:13)
 ------------------------------------------------------
 Symbolic Z-matrix:
 Charge =  0 Multiplicity = 1

                         Standard orientation:
 ---------------------------------------------------------------------
 Center     Atomic      Atomic             Coordinates (Angstroms)
 Number     Number       Type             X           Y           Z
 ---------------------------------------------------------------------
      1          6           0        4.173611    0.013535    0.370995
      2          6           0        4.396708   -1.497138    0.293032
      3          6           0        5.558325   -1.969092    1.168075
      4          1           0        5.095175    0.529913    0.069302
      5          1           0        3.984927    0.295836    1.416031
      6          1           0        4.583544   -1.776697   -0.751743
      7          1           0        3.474445   -2.009979    0.594763
      8          1           0        5.376123   -1.718642    2.218160
      9          1           0        6.491524   -1.484034    0.864004
     10          1           0        5.700121   -3.052022    1.097253
     11          6           0        3.015716    0.500584   -0.498367
     12          6           0        2.792620    2.011258   -0.420404
     13          6           0        1.631003    2.483211   -1.295447
     14          1           0        3.204400    0.218284   -1.543403
     15          1           0        2.094153   -0.015794   -0.196673
     16          1           0        3.714883    2.524099   -0.722134
     17          1           0        2.605783    2.290816    0.624371
     18          1           0        0.697804    1.998154   -0.991376
     19          1           0        1.813205    2.232762   -2.345532
     20          1           0        1.489207    3.566142   -1.224625
     21          6           0       -2.519040   -1.251487   -2.225844
     22          6           0       -3.301672   -1.886597   -1.255976
     23          6           0       -3.468924   -1.313624    0.008254
     24          6           0       -2.836299   -0.099255    0.269751
     25          6           0       -2.050262    0.557947   -0.675512
     26          6           0       -1.896929   -0.033390   -1.933033
     27          1           0       -2.394521   -1.703718   -3.205322
     28          1           0       -3.785995   -2.832656   -1.480581
     29          1           0       -4.069268   -1.783753    0.777658
     30          1           0       -1.579939    1.500296   -0.422147
     31          1           0       -1.288546    0.462104   -2.684298
     32          7           0       -3.005993    0.517047    1.604583
     33          8           0       -2.438117    1.587525    1.810083
     34          8           0       -3.703661   -0.082044    2.420049
 ---------------------------------------------------------------------

 SCF Done:  E(RHF) =  -669.535548145     A.U. after   15 cycles
 E2 =    -0.2091451870D+01 EUMP2 =    -0.67162700001521D+03

 The electronic state is 1-A.
 Alpha  occ. eigenvalues --  -20.60779 -20.60773 -15.85831 -11.31191 -11.27760
 Alpha  occ. eigenvalues --  -11.27738 -11.27494 -11.26780 -11.26753 -11.21881
 Alpha  occ. eigenvalues --  -11.21729 -11.21651 -11.21626 -11.21503 -11.21148
 Alpha  occ. eigenvalues --   -1.59854  -1.39407  -1.19363  -1.08758  -1.08639
 Alpha  occ. eigenvalues --   -1.04767  -1.03775  -0.96250  -0.95594  -0.87273
 Alpha  occ. eigenvalues --   -0.86160  -0.82426  -0.79846  -0.78443  -0.77472
 Alpha  occ. eigenvalues --   -0.72050  -0.71178  -0.70480  -0.65272  -0.65013
 Alpha  occ. eigenvalues --   -0.64761  -0.62173  -0.61136  -0.59603  -0.57843
 Alpha  occ. eigenvalues --   -0.55581  -0.55235  -0.53101  -0.52943  -0.52860
 Alpha  occ. eigenvalues --   -0.52658  -0.50186  -0.48807  -0.48804  -0.48161
 Alpha  occ. eigenvalues --   -0.46855  -0.45993  -0.45891  -0.44814  -0.44013
 Alpha  occ. eigenvalues --   -0.37343  -0.36356
 Alpha virt. eigenvalues --    0.05024   0.11269   0.16484   0.20436   0.22802
 Alpha virt. eigenvalues --    0.23970   0.25672   0.26517   0.27467   0.27942
 Alpha virt. eigenvalues --    0.29150   0.30562   0.31325   0.31569   0.32086

 Mulliken charges:
               1
     1  C   -0.298891
     2  C   -0.299841
     3  C   -0.475932
     4  H    0.149791
     5  H    0.152816
     6  H    0.150299
     7  H    0.152602
     8  H    0.156909
     9  H    0.155173
    10  H    0.160142
    11  C   -0.299284
    12  C   -0.299571
    13  C   -0.480587
    14  H    0.146597
    15  H    0.150824
    16  H    0.153409
    17  H    0.158664
    18  H    0.148966
    19  H    0.151996
    20  H    0.165171
    21  C   -0.170993
    22  C   -0.218430
    23  C   -0.171082
    24  C    0.159840
    25  C   -0.177499
    26  C   -0.218953
    27  H    0.225737
    28  H    0.223506
    29  H    0.275553
    30  H    0.280285
    31  H    0.225715
    32  N    0.487938
    33  O   -0.460462
    34  O   -0.460407
 Sum of Mulliken charges =  -0.00000

 Dipole moment (field-independent basis, Debye):
    X=              0.6794    Y=             -2.1620    Z=             -4.6426  Tot=              5.1661
 Quadrupole moment (field-independent basis, Debye-Ang):
   XX=            -97.0106   YY=            -91.7979   ZZ=            -97.2826
   XY=              9.4541   XZ=             11.9569   YZ=             -1.0105

 Normal termination of Gaussian 16 at Wed May  5 20:11:40 2021.
