 Gaussian 16, Revision A.03,
 Gaussian 16:  EM64L-G16RevA.03 25-Dec-2016

 -------------
 #p 6-31g* mp2
 -------------

 ------------------------------------------------------
 Input file generated by CHIRIPA (05-May-2021 14:55:21)
 ------------------------------------------------------
 Symbolic Z-matrix:
 Charge =  0 Multiplicity = 1

                         Standard orientation:
 ---------------------------------------------------------------------
 Center     Atomic      Atomic             Coordinates (Angstroms)
 Number     Number       Type             X           Y           Z
 ---------------------------------------------------------------------
      1          6           0       -0.684620   -0.156960    0.731250
      2          6           0       -1.042212   -0.320184   -0.611138
      3          6           0       -2.388027   -0.359257   -0.987707
      4          6           0       -3.354566   -0.231464    0.008667
      5          6           0       -3.030037   -0.067644    1.354450
      6          6           0       -1.677923   -0.031432    1.708038
      7          1           0        0.363288   -0.127718    1.014852
      8          1           0       -0.272938   -0.417923   -1.371868
      9          1           0       -2.692876   -0.484565   -2.019590
     10          1           0       -3.819412    0.027130    2.090197
     11          1           0       -1.403148    0.095441    2.751325
     12          7           0       -4.782654   -0.271314   -0.377825
     13          8           0       -5.615160   -0.156485    0.519050
     14          8           0       -5.042443   -0.416624   -1.570315
     15          6           0        4.564263   -0.162122   -0.325255
     16          6           0        4.544181   -1.549279    0.317688
     17          6           0        5.694057   -2.437876   -0.157678
     18          1           0        4.518369   -0.270541   -1.417539
     19          1           0        5.522914    0.325145   -0.099522
     20          1           0        3.585300   -2.033237    0.091970
     21          1           0        4.589935   -1.437538    1.408576
     22          1           0        6.659209   -1.979841    0.081667
     23          1           0        5.648867   -2.578925   -1.242419
     24          1           0        5.660464   -3.424705    0.314446
     25          6           0        3.420888    0.737856    0.140000
     26          6           0        3.440971    2.125013   -0.502943
     27          6           0        2.291095    3.013610   -0.027578
     28          1           0        2.462238    0.250590   -0.085734
     29          1           0        3.466783    0.846275    1.232284
     30          1           0        3.395217    2.013272   -1.593831
     31          1           0        4.399852    2.608971   -0.277224
     32          1           0        2.336285    3.154659    1.057164
     33          1           0        1.325942    2.555575   -0.266923
     34          1           0        2.324688    4.000439   -0.499701
 ---------------------------------------------------------------------

 SCF Done:  E(RHF) =  -669.535602532     A.U. after   15 cycles
 E2 =    -0.2091794044D+01 EUMP2 =    -0.67162739657568D+03

 The electronic state is 1-A.
 Alpha  occ. eigenvalues --  -20.60738 -20.60733 -15.85793 -11.31155 -11.27735
 Alpha  occ. eigenvalues --  -11.27723 -11.27415 -11.26748 -11.26717 -11.22635
 Alpha  occ. eigenvalues --  -11.22530 -11.22491 -11.22323 -11.21917 -11.21772
 Alpha  occ. eigenvalues --   -1.59814  -1.39368  -1.19328  -1.09439  -1.08717
 Alpha  occ. eigenvalues --   -1.04734  -1.04419  -0.96871  -0.95554  -0.87880
 Alpha  occ. eigenvalues --   -0.86130  -0.82393  -0.80489  -0.79295  -0.77440
 Alpha  occ. eigenvalues --   -0.72010  -0.71137  -0.70436  -0.66077  -0.64977
 Alpha  occ. eigenvalues --   -0.64734  -0.62088  -0.61801  -0.60240  -0.58492
 Alpha  occ. eigenvalues --   -0.56176  -0.55232  -0.53508  -0.53298  -0.53045
 Alpha  occ. eigenvalues --   -0.52824  -0.50809  -0.48800  -0.48766  -0.48759
 Alpha  occ. eigenvalues --   -0.47526  -0.46781  -0.46734  -0.44774  -0.44711
 Alpha  occ. eigenvalues --   -0.37288  -0.36341
 Alpha virt. eigenvalues --    0.05085   0.11260   0.16543   0.19243   0.22551
 Alpha virt. eigenvalues --    0.23664   0.24993   0.25868   0.27122   0.27460
 Alpha virt. eigenvalues --    0.29824   0.30089   0.30724   0.31208   0.31602

 Mulliken charges:
               1
     1  C   -0.174906
     2  C   -0.221923
     3  C   -0.170669
     4  C    0.158188
     5  C   -0.170630
     6  C   -0.219443
     7  H    0.234436
     8  H    0.222592
     9  H    0.275455
    10  H    0.275496
    11  H    0.223815
    12  N    0.488075
    13  O   -0.460451
    14  O   -0.460595
    15  C   -0.298047
    16  C   -0.300386
    17  C   -0.476149
    18  H    0.151365
    19  H    0.153775
    20  H    0.148518
    21  H    0.152378
    22  H    0.157247
    23  H    0.156556
    24  H    0.162582
    25  C   -0.303041
    26  C   -0.299942
    27  C   -0.479164
    28  H    0.140048
    29  H    0.150189
    30  H    0.153518
    31  H    0.156201
    32  H    0.155009
    33  H    0.154554
    34  H    0.165351
 Sum of Mulliken charges =  -0.00000

 Dipole moment (field-independent basis, Debye):
    X=              5.2663    Y=              0.1898    Z=              1.3555  Tot=              5.4413
 Quadrupole moment (field-independent basis, Debye-Ang):
   XX=           -127.9956   YY=            -95.6870   ZZ=            -89.6129
   XY=             -0.9588   XZ=             -5.4745   YZ=              0.3918

 Normal termination of Gaussian 16 at Thu May  6 04:36:31 2021.
