 Gaussian 16, Revision A.03,
 Gaussian 16:  EM64L-G16RevA.03 25-Dec-2016

 -------------
 #p 6-31g* mp2
 -------------

 ------------------------------------------------------
 Input file generated by CHIRIPA (05-May-2021 14:55:23)
 ------------------------------------------------------
 Symbolic Z-matrix:
 Charge =  0 Multiplicity = 1

                         Standard orientation:
 ---------------------------------------------------------------------
 Center     Atomic      Atomic             Coordinates (Angstroms)
 Number     Number       Type             X           Y           Z
 ---------------------------------------------------------------------
      1          6           0        0.660093   -0.351260    0.376497
      2          6           0        1.400564    0.662845    0.992788
      3          6           0        2.790045    0.715844    0.847589
      4          6           0        3.409349   -0.265827    0.075530
      5          6           0        2.699234   -1.288809   -0.550994
      6          6           0        1.310644   -1.322139   -0.392072
      7          1           0       -0.418943   -0.384791    0.494622
      8          1           0        0.898006    1.418171    1.590253
      9          1           0        3.387676    1.489809    1.313672
     10          1           0        3.228330   -2.027760   -1.140422
     11          1           0        0.738140   -2.110872   -0.871847
     12          7           0        4.879858   -0.220131   -0.085449
     13          8           0        5.401724   -1.096799   -0.770829
     14          8           0        5.482734    0.691490    0.476803
     15          6           0       -3.338979    0.596244   -0.239489
     16          6           0       -3.240716    2.111391   -0.420216
     17          6           0       -1.804497    2.588966   -0.636984
     18          1           0       -2.717747    0.294220    0.614793
     19          1           0       -2.916255    0.100278   -1.124202
     20          1           0       -3.664760    2.604361    0.463968
     21          1           0       -3.862404    2.409867   -1.274050
     22          1           0       -1.374550    2.123988   -1.530037
     23          1           0       -1.175783    2.319586    0.217857
     24          1           0       -1.757394    3.675032   -0.763878
     25          6           0       -4.768519    0.103552   -0.021789
     26          6           0       -4.866782   -1.411594    0.158938
     27          6           0       -6.303001   -1.889170    0.375707
     28          1           0       -5.191243    0.599519    0.862923
     29          1           0       -5.389751    0.405577   -0.876071
     30          1           0       -4.245094   -1.710070    1.012772
     31          1           0       -4.442738   -1.904565   -0.725247
     32          1           0       -6.931715   -1.619790   -0.479135
     33          1           0       -6.732947   -1.424192    1.268759
     34          1           0       -6.350104   -2.975236    0.502599
 ---------------------------------------------------------------------

 SCF Done:  E(RHF) =  -669.534956676     A.U. after   15 cycles
 E2 =    -0.2092455864D+01 EUMP2 =    -0.67162741253920D+03

 The electronic state is 1-A.
 Alpha  occ. eigenvalues --  -20.60691 -20.60686 -15.85746 -11.31088 -11.27668
 Alpha  occ. eigenvalues --  -11.27664 -11.27330 -11.26661 -11.26649 -11.22657
 Alpha  occ. eigenvalues --  -11.22584 -11.22490 -11.22323 -11.22067 -11.21774
 Alpha  occ. eigenvalues --   -1.59768  -1.39322  -1.19262  -1.09464  -1.08652
 Alpha  occ. eigenvalues --   -1.04670  -1.04465  -0.96923  -0.95493  -0.87936
 Alpha  occ. eigenvalues --   -0.86065  -0.82337  -0.80540  -0.79319  -0.77386
 Alpha  occ. eigenvalues --   -0.71964  -0.71092  -0.70365  -0.66091  -0.64913
 Alpha  occ. eigenvalues --   -0.64689  -0.62065  -0.61812  -0.60293  -0.58544
 Alpha  occ. eigenvalues --   -0.56236  -0.55172  -0.53561  -0.53399  -0.52942
 Alpha  occ. eigenvalues --   -0.52754  -0.50855  -0.48832  -0.48720  -0.48718
 Alpha  occ. eigenvalues --   -0.47573  -0.46801  -0.46741  -0.44748  -0.44733
 Alpha  occ. eigenvalues --   -0.37202  -0.36271
 Alpha virt. eigenvalues --    0.05148   0.11294   0.16611   0.19520   0.22402
 Alpha virt. eigenvalues --    0.23812   0.25079   0.25315   0.26287   0.27937
 Alpha virt. eigenvalues --    0.29376   0.29857   0.30857   0.31316   0.31528

 Mulliken charges:
               1
     1  C   -0.174101
     2  C   -0.221545
     3  C   -0.171195
     4  C    0.157871
     5  C   -0.170576
     6  C   -0.222500
     7  H    0.237425
     8  H    0.222744
     9  H    0.275300
    10  H    0.275140
    11  H    0.223461
    12  N    0.488051
    13  O   -0.460797
    14  O   -0.460731
    15  C   -0.304156
    16  C   -0.300292
    17  C   -0.477610
    18  H    0.141693
    19  H    0.149811
    20  H    0.154205
    21  H    0.156815
    22  H    0.159729
    23  H    0.146713
    24  H    0.165523
    25  C   -0.297418
    26  C   -0.300642
    27  C   -0.476188
    28  H    0.152206
    29  H    0.153635
    30  H    0.149809
    31  H    0.151312
    32  H    0.157169
    33  H    0.156855
    34  H    0.162281
 Sum of Mulliken charges =  -0.00000

 Dipole moment (field-independent basis, Debye):
    X=             -5.4652    Y=             -0.0931    Z=              0.4835  Tot=              5.4874
 Quadrupole moment (field-independent basis, Debye-Ang):
   XX=           -130.6803   YY=            -91.5144   ZZ=            -92.5816
   XY=              0.4242   XZ=              2.1264   YZ=              2.6241

 Normal termination of Gaussian 16 at Thu May  6 19:15:47 2021.
