 Gaussian 16, Revision A.03,
 Gaussian 16:  EM64L-G16RevA.03 25-Dec-2016

 -------------
 #p 6-31g* mp2
 -------------

 ------------------------------------------------------
 Input file generated by CHIRIPA (05-May-2021 14:51:10)
 ------------------------------------------------------
 Symbolic Z-matrix:
 Charge =  0 Multiplicity = 1

                         Standard orientation:
 ---------------------------------------------------------------------
 Center     Atomic      Atomic             Coordinates (Angstroms)
 Number     Number       Type             X           Y           Z
 ---------------------------------------------------------------------
      1          6           0       -3.732642    0.983695   -0.106960
      2          6           0       -2.521638    1.913207   -0.020578
      3          6           0       -2.905324    3.391753   -0.087506
      4          1           0       -4.272890    1.181783   -1.042823
      5          1           0       -4.427057    1.220649    0.710985
      6          1           0       -1.829062    1.673645   -0.837624
      7          1           0       -1.984102    1.712751    0.915098
      8          1           0       -3.578039    3.652830    0.735837
      9          1           0       -3.422118    3.613502   -1.026843
     10          1           0       -2.024560    4.038348   -0.024023
     11          6           0       -3.365210   -0.497664   -0.041407
     12          6           0       -4.576214   -1.427175   -0.127789
     13          6           0       -4.192528   -2.905722   -0.060861
     14          1           0       -2.670794   -0.734617   -0.859352
     15          1           0       -2.824962   -0.695751    0.894456
     16          1           0       -5.113750   -1.226719   -1.063465
     17          1           0       -5.268790   -1.187613    0.689257
     18          1           0       -3.675734   -3.127470    0.878476
     19          1           0       -3.519813   -3.166798   -0.884204
     20          1           0       -5.073292   -3.552316   -0.124344
     21          6           0        4.189614   -0.365398   -0.323274
     22          6           0        5.437464    0.212952    0.344833
     23          6           0        6.711189   -0.039956   -0.462295
     24          1           0        4.325858   -1.446019   -0.466954
     25          1           0        4.082649    0.072148   -1.325525
     26          1           0        5.541275   -0.224518    1.346062
     27          1           0        5.298155    1.292288    0.487113
     28          1           0        6.633085    0.411290   -1.456719
     29          1           0        6.877587   -1.114134   -0.592889
     30          1           0        7.591037    0.381836    0.033506
     31          6           0        2.908237   -0.120633    0.471641
     32          6           0        1.660388   -0.698984   -0.196466
     33          6           0        0.386663   -0.446076    0.610662
     34          1           0        3.015204   -0.558179    1.473892
     35          1           0        2.771994    0.959987    0.615321
     36          1           0        1.799696   -1.778320   -0.338747
     37          1           0        1.556576   -0.261514   -1.197695
     38          1           0        0.220265    0.628101    0.741256
     39          1           0        0.464767   -0.897323    1.605085
     40          1           0       -0.493185   -0.867868    0.114860
 ---------------------------------------------------------------------

 SCF Done:  E(RHF) =  -470.731347150     A.U. after   11 cycles
 E2 =    -0.1584183673D+01 EUMP2 =    -0.47231553082338D+03

 The electronic state is 1-A.
 Alpha  occ. eigenvalues --  -11.21594 -11.21568 -11.21538 -11.21495 -11.21390
 Alpha  occ. eigenvalues --  -11.21348 -11.21329 -11.21285 -11.21080 -11.21052
 Alpha  occ. eigenvalues --  -11.21046 -11.20791  -1.08446  -1.08351  -1.03529
 Alpha  occ. eigenvalues --   -1.03444  -0.95999  -0.95883  -0.86996  -0.86933
 Alpha  occ. eigenvalues --   -0.79647  -0.79536  -0.78291  -0.78101  -0.65059
 Alpha  occ. eigenvalues --   -0.64999  -0.60930  -0.60855  -0.59362  -0.59312
 Alpha  occ. eigenvalues --   -0.57754  -0.57355  -0.55276  -0.55187  -0.52866
 Alpha  occ. eigenvalues --   -0.52590  -0.52407  -0.52172  -0.49954  -0.49852
 Alpha  occ. eigenvalues --   -0.48080  -0.47647  -0.46672  -0.46512  -0.45853
 Alpha  occ. eigenvalues --   -0.45738  -0.45642  -0.45534  -0.43801  -0.43520
 Alpha virt. eigenvalues --    0.22229   0.23081   0.24048   0.24125   0.25756
 Alpha virt. eigenvalues --    0.26552   0.26790   0.27617   0.27879   0.29590
 Alpha virt. eigenvalues --    0.30418   0.31094   0.31584   0.31846   0.32256

 Mulliken charges:
               1
     1  C   -0.297730
     2  C   -0.302194
     3  C   -0.475563
     4  H    0.149188
     5  H    0.149302
     6  H    0.152784
     7  H    0.155931
     8  H    0.155010
     9  H    0.154880
    10  H    0.159601
    11  C   -0.303080
    12  C   -0.298480
    13  C   -0.476198
    14  H    0.150043
    15  H    0.154520
    16  H    0.151686
    17  H    0.151877
    18  H    0.155392
    19  H    0.154793
    20  H    0.160482
    21  C   -0.298101
    22  C   -0.299544
    23  C   -0.475647
    24  H    0.149502
    25  H    0.149240
    26  H    0.151823
    27  H    0.151796
    28  H    0.155082
    29  H    0.155119
    30  H    0.160114
    31  C   -0.298411
    32  C   -0.299851
    33  C   -0.484118
    34  H    0.149244
    35  H    0.149298
    36  H    0.151123
    37  H    0.150616
    38  H    0.158648
    39  H    0.152133
    40  H    0.169687
 Sum of Mulliken charges =  -0.00000

 Dipole moment (field-independent basis, Debye):
    X=             -0.0684    Y=              0.0029    Z=              0.0110  Tot=              0.0693
 Quadrupole moment (field-independent basis, Debye-Ang):
   XX=            -85.9708   YY=            -85.3300   ZZ=            -83.7283
   XY=              0.1619   XZ=              0.3796   YZ=             -0.4212

 Normal termination of Gaussian 16 at Wed May  5 21:25:39 2021.
