 Gaussian 16, Revision A.03,
 Gaussian 16:  EM64L-G16RevA.03 25-Dec-2016

 -------------
 #p 6-31g* mp2
 -------------

 ------------------------------------------------------
 Input file generated by CHIRIPA (05-May-2021 14:57:23)
 ------------------------------------------------------
 Symbolic Z-matrix:
 Charge =  0 Multiplicity = 1

                         Standard orientation:
 ---------------------------------------------------------------------
 Center     Atomic      Atomic             Coordinates (Angstroms)
 Number     Number       Type             X           Y           Z
 ---------------------------------------------------------------------
      1          6           0        3.219268    2.285549    0.797782
      2          6           0        4.198740    1.440985    1.330575
      3          6           0        4.318151    0.121663    0.883723
      4          6           0        3.437486   -0.322102   -0.101565
      5          6           0        2.451301    0.495079   -0.651968
      6          6           0        2.350207    1.810738   -0.190048
      7          1           0        3.133622    3.309007    1.150760
      8          1           0        4.875033    1.807020    2.097838
      9          1           0        5.067324   -0.553594    1.278927
     10          1           0        1.791560    0.101641   -1.415753
     11          1           0        1.588583    2.464392   -0.605632
     12          7           0        3.554205   -1.716870   -0.582604
     13          8           0        2.766163   -2.083718   -1.451540
     14          8           0        4.431522   -2.416832   -0.081597
     15          6           0       -1.828199    1.905690   -0.718673
     16          6           0       -1.334341    0.748408   -0.107671
     17          6           0       -2.206099   -0.262887    0.306899
     18          6           0       -3.571970   -0.083092    0.093917
     19          6           0       -4.094630    1.058392   -0.511997
     20          6           0       -3.204341    2.056723   -0.918533
     21          1           0       -1.143800    2.686253   -1.037599
     22          1           0       -0.266094    0.628403    0.048824
     23          1           0       -1.850786   -1.169004    0.782422
     24          1           0       -5.164592    1.149447   -0.654496
     25          1           0       -3.590709    2.954416   -1.392781
     26          7           0       -4.504669   -1.146842    0.528551
     27          8           0       -5.703713   -0.964318    0.329514
     28          8           0       -4.019014   -2.142990    1.060025
 ---------------------------------------------------------------------

 SCF Done:  E(RHF) =  -868.335627103     A.U. after   16 cycles
 E2 =    -0.2602048504D+01 EUMP2 =    -0.87093767560678D+03

 The electronic state is 1-A.
 Alpha  occ. eigenvalues --  -20.61491 -20.61481 -20.60867 -20.60856 -15.86554
 Alpha  occ. eigenvalues --  -15.85919 -11.32156 -11.31411 -11.28811 -11.28694
 Alpha  occ. eigenvalues --  -11.28512 -11.27997 -11.27956 -11.27934 -11.27902
 Alpha  occ. eigenvalues --  -11.27719 -11.27091 -11.26987  -1.60562  -1.59936
 Alpha  occ. eigenvalues --   -1.40109  -1.39486  -1.20368  -1.19608  -1.09696
 Alpha  occ. eigenvalues --   -1.09017  -1.05837  -1.05010  -0.96491  -0.95823
 Alpha  occ. eigenvalues --   -0.87183  -0.86451  -0.83341  -0.82636  -0.78373
 Alpha  occ. eigenvalues --   -0.77621  -0.72762  -0.72140  -0.71896  -0.71431
 Alpha  occ. eigenvalues --   -0.71259  -0.70814  -0.66042  -0.65829  -0.65265
 Alpha  occ. eigenvalues --   -0.65091  -0.63163  -0.62284  -0.56249  -0.55667
 Alpha  occ. eigenvalues --   -0.54188  -0.53891  -0.53349  -0.53008  -0.49540
 Alpha  occ. eigenvalues --   -0.49505  -0.48909  -0.48883  -0.45462  -0.44862
 Alpha  occ. eigenvalues --   -0.38322  -0.37650  -0.37399  -0.36603
 Alpha virt. eigenvalues --    0.04154   0.04885   0.10117   0.11034   0.15443
 Alpha virt. eigenvalues --    0.16313   0.18497   0.22100   0.24661   0.26879
 Alpha virt. eigenvalues --    0.27901   0.28714   0.30403   0.31290   0.32821

 Mulliken charges:
               1
     1  C   -0.170252
     2  C   -0.217645
     3  C   -0.169138
     4  C    0.159805
     5  C   -0.181800
     6  C   -0.223156
     7  H    0.228870
     8  H    0.227930
     9  H    0.279760
    10  H    0.278724
    11  H    0.220103
    12  N    0.487923
    13  O   -0.458474
    14  O   -0.456422
    15  C   -0.176950
    16  C   -0.226697
    17  C   -0.171476
    18  C    0.159517
    19  C   -0.170724
    20  C   -0.217494
    21  H    0.216260
    22  H    0.230820
    23  H    0.280275
    24  H    0.276680
    25  H    0.223476
    26  N    0.487864
    27  O   -0.460145
    28  O   -0.457632
 Sum of Mulliken charges =  -0.00000

 Dipole moment (field-independent basis, Debye):
    X=              3.1313    Y=              8.4654    Z=              0.3096  Tot=              9.0313
 Quadrupole moment (field-independent basis, Debye-Ang):
   XX=           -123.8066   YY=           -108.1280   ZZ=           -104.0537
   XY=              0.5446   XZ=             16.3205   YZ=             -1.9443

 Normal termination of Gaussian 16 at Fri May  7 06:28:34 2021.
