 Gaussian 16, Revision A.03,
 Gaussian 16:  EM64L-G16RevA.03 25-Dec-2016

 -------------
 #p 6-31g* mp2
 -------------

 ------------------------------------------------------
 Input file generated by CHIRIPA (05-May-2021 14:51:13)
 ------------------------------------------------------
 Symbolic Z-matrix:
 Charge =  0 Multiplicity = 1

                         Standard orientation:
 ---------------------------------------------------------------------
 Center     Atomic      Atomic             Coordinates (Angstroms)
 Number     Number       Type             X           Y           Z
 ---------------------------------------------------------------------
      1          6           0        3.300221   -0.424647    0.768646
      2          6           0        2.200882   -1.359421    0.263043
      3          6           0        1.486346   -2.098307    1.394979
      4          1           0        4.030664   -1.006995    1.346806
      5          1           0        2.861047    0.304279    1.463763
      6          1           0        2.641753   -2.085499   -0.431981
      7          1           0        1.473073   -0.774812   -0.314143
      8          1           0        1.020236   -1.387574    2.085052
      9          1           0        2.195556   -2.705709    1.966544
     10          1           0        0.704443   -2.760983    1.011119
     11          6           0        4.023720    0.321145   -0.351209
     12          6           0        5.123059    1.255919    0.154394
     13          6           0        5.837595    1.994805   -0.977542
     14          1           0        4.462894   -0.407781   -1.046326
     15          1           0        3.293277    0.903493   -0.929369
     16          1           0        5.850868    0.671310    0.731580
     17          1           0        4.682188    1.981998    0.849418
     18          1           0        5.128385    2.602207   -1.549107
     19          1           0        6.303705    1.284072   -1.667615
     20          1           0        6.619498    2.657481   -0.593682
     21          6           0       -4.298388    0.465763   -0.125058
     22          6           0       -4.031774    1.904886    0.317464
     23          6           0       -5.314720    2.720525    0.480497
     24          1           0       -4.850464    0.477240   -1.074809
     25          1           0       -4.952744   -0.021538    0.610979
     26          1           0       -3.376993    2.388899   -0.418477
     27          1           0       -3.480102    1.889981    1.266174
     28          1           0       -5.969258    2.263394    1.229638
     29          1           0       -5.865564    2.765148   -0.464585
     30          1           0       -5.100912    3.746086    0.797310
     31          6           0       -3.025553   -0.362261   -0.292379
     32          6           0       -3.292166   -1.801384   -0.734901
     33          6           0       -2.009221   -2.617022   -0.897934
     34          1           0       -2.371198    0.125040   -1.028417
     35          1           0       -2.473477   -0.373738    0.657372
     36          1           0       -3.843839   -1.786479   -1.683611
     37          1           0       -3.946948   -2.285398    0.001040
     38          1           0       -1.458377   -2.661646    0.047148
     39          1           0       -1.354682   -2.159893   -1.647075
     40          1           0       -2.223029   -3.642584   -1.214746
 ---------------------------------------------------------------------

 SCF Done:  E(RHF) =  -470.733269757     A.U. after   11 cycles
 E2 =    -0.1582517741D+01 EUMP2 =    -0.47231578749820D+03

 The electronic state is 1-A.
 Alpha  occ. eigenvalues --  -11.21619 -11.21607 -11.21586 -11.21554 -11.21417
 Alpha  occ. eigenvalues --  -11.21380 -11.21358 -11.21319 -11.21084 -11.21060
 Alpha  occ. eigenvalues --  -11.21055 -11.21021  -1.08442  -1.08401  -1.03550
 Alpha  occ. eigenvalues --   -1.03490  -0.96017  -0.95928  -0.87045  -0.86937
 Alpha  occ. eigenvalues --   -0.79614  -0.79554  -0.78256  -0.78212  -0.65074
 Alpha  occ. eigenvalues --   -0.65030  -0.60964  -0.60888  -0.59418  -0.59294
 Alpha  occ. eigenvalues --   -0.57738  -0.57434  -0.55300  -0.55224  -0.52794
 Alpha  occ. eigenvalues --   -0.52672  -0.52459  -0.52203  -0.49945  -0.49868
 Alpha  occ. eigenvalues --   -0.47963  -0.47821  -0.46651  -0.46571  -0.45807
 Alpha  occ. eigenvalues --   -0.45751  -0.45718  -0.45668  -0.43796  -0.43735
 Alpha virt. eigenvalues --    0.21610   0.23112   0.23464   0.24954   0.26283
 Alpha virt. eigenvalues --    0.26541   0.26813   0.27638   0.27710   0.29113
 Alpha virt. eigenvalues --    0.30079   0.31276   0.31540   0.31924   0.32207

 Mulliken charges:
               1
     1  C   -0.298368
     2  C   -0.299583
     3  C   -0.480782
     4  H    0.149537
     5  H    0.149418
     6  H    0.151889
     7  H    0.152939
     8  H    0.154150
     9  H    0.154908
    10  H    0.165791
    11  C   -0.298228
    12  C   -0.299625
    13  C   -0.475686
    14  H    0.149482
    15  H    0.149543
    16  H    0.151915
    17  H    0.151905
    18  H    0.155111
    19  H    0.155156
    20  H    0.160198
    21  C   -0.298292
    22  C   -0.299644
    23  C   -0.475708
    24  H    0.149715
    25  H    0.149652
    26  H    0.151763
    27  H    0.151849
    28  H    0.155263
    29  H    0.155230
    30  H    0.160233
    31  C   -0.298469
    32  C   -0.299401
    33  C   -0.481895
    34  H    0.149104
    35  H    0.150007
    36  H    0.151919
    37  H    0.151964
    38  H    0.161109
    39  H    0.155782
    40  H    0.160149
 Sum of Mulliken charges =  -0.00000

 Dipole moment (field-independent basis, Debye):
    X=             -0.0133    Y=             -0.0119    Z=             -0.0039  Tot=              0.0183
 Quadrupole moment (field-independent basis, Debye-Ang):
   XX=            -85.4398   YY=            -84.9925   ZZ=            -84.3737
   XY=             -0.2880   XZ=              0.4241   YZ=              0.0747

 Normal termination of Gaussian 16 at Wed May  5 23:13:58 2021.
