 Gaussian 16, Revision A.03,
 Gaussian 16:  EM64L-G16RevA.03 25-Dec-2016

 -------------
 #p 6-31g* mp2
 -------------

 ------------------------------------------------------
 Input file generated by CHIRIPA (05-May-2021 14:51:13)
 ------------------------------------------------------
 Symbolic Z-matrix:
 Charge =  0 Multiplicity = 1

                         Standard orientation:
 ---------------------------------------------------------------------
 Center     Atomic      Atomic             Coordinates (Angstroms)
 Number     Number       Type             X           Y           Z
 ---------------------------------------------------------------------
      1          6           0       -2.581308    0.233007    0.053591
      2          6           0       -3.964446    0.856058    0.245222
      3          6           0       -3.905342    2.365687    0.480425
      4          1           0       -1.965393    0.443824    0.938549
      5          1           0       -2.082868    0.718313   -0.796956
      6          1           0       -4.460677    0.368769    1.094292
      7          1           0       -4.577202    0.643570   -0.640213
      8          1           0       -3.433874    2.869806   -0.369388
      9          1           0       -3.316687    2.593444    1.374971
     10          1           0       -4.905004    2.790489    0.614885
     11          6           0       -2.623914   -1.275681   -0.182571
     12          6           0       -1.240776   -1.898732   -0.374202
     13          6           0       -1.299880   -3.408361   -0.609404
     14          1           0       -3.122354   -1.760986    0.667977
     15          1           0       -3.239828   -1.486498   -1.067529
     16          1           0       -0.628020   -1.686243    0.511233
     17          1           0       -0.744545   -1.411442   -1.223271
     18          1           0       -1.888535   -3.636118   -1.503951
     19          1           0       -1.771348   -3.912480    0.240409
     20          1           0       -0.300218   -3.833163   -0.743864
     21          6           0        2.844105   -0.165157   -0.167543
     22          6           0        2.676544   -1.256349    0.890383
     23          6           0        3.164149   -2.624028    0.411334
     24          1           0        2.295220   -0.454829   -1.074052
     25          1           0        3.903562   -0.098964   -0.451382
     26          1           0        1.617927   -1.319517    1.173149
     27          1           0        3.225733   -0.963955    1.794547
     28          1           0        4.225951   -2.583767    0.147596
     29          1           0        2.609009   -2.941350   -0.477332
     30          1           0        3.035067   -3.389203    1.183153
     31          6           0        2.361117    1.207830    0.296522
     32          6           0        2.528678    2.299023   -0.761403
     33          6           0        2.041072    3.666702   -0.282355
     34          1           0        1.301659    1.141638    0.580362
     35          1           0        2.910001    1.497504    1.203033
     36          1           0        1.979489    2.006629   -1.665568
     37          1           0        3.587295    2.362192   -1.044169
     38          1           0        2.596213    3.984024    0.606312
     39          1           0        0.979272    3.626442   -0.018616
     40          1           0        2.170155    4.431877   -1.054173
 ---------------------------------------------------------------------

 SCF Done:  E(RHF) =  -470.733318050     A.U. after   11 cycles
 E2 =    -0.1583818829D+01 EUMP2 =    -0.47231713687978D+03

 The electronic state is 1-A.
 Alpha  occ. eigenvalues --  -11.21676 -11.21661 -11.21568 -11.21538 -11.21485
 Alpha  occ. eigenvalues --  -11.21424 -11.21354 -11.21295 -11.21126 -11.21117
 Alpha  occ. eigenvalues --  -11.21056 -11.21036  -1.08512  -1.08378  -1.03608
 Alpha  occ. eigenvalues --   -1.03481  -0.96044  -0.95939  -0.87063  -0.86953
 Alpha  occ. eigenvalues --   -0.79700  -0.79526  -0.78356  -0.78171  -0.65173
 Alpha  occ. eigenvalues --   -0.64990  -0.61087  -0.60844  -0.59391  -0.59300
 Alpha  occ. eigenvalues --   -0.57648  -0.57551  -0.55339  -0.55209  -0.52737
 Alpha  occ. eigenvalues --   -0.52635  -0.52469  -0.52368  -0.50008  -0.49880
 Alpha  occ. eigenvalues --   -0.48078  -0.47810  -0.46908  -0.46430  -0.46092
 Alpha  occ. eigenvalues --   -0.45839  -0.45673  -0.45306  -0.43847  -0.43742
 Alpha virt. eigenvalues --    0.19972   0.22499   0.23609   0.24562   0.25342
 Alpha virt. eigenvalues --    0.25958   0.26659   0.27883   0.28842   0.29867
 Alpha virt. eigenvalues --    0.30386   0.30685   0.31469   0.31830   0.32419

 Mulliken charges:
               1
     1  C   -0.299427
     2  C   -0.299683
     3  C   -0.475913
     4  H    0.149856
     5  H    0.149403
     6  H    0.152223
     7  H    0.152250
     8  H    0.155210
     9  H    0.155313
    10  H    0.160615
    11  C   -0.297698
    12  C   -0.306469
    13  C   -0.477303
    14  H    0.149857
    15  H    0.149999
    16  H    0.157813
    17  H    0.151888
    18  H    0.155412
    19  H    0.155478
    20  H    0.162145
    21  C   -0.298412
    22  C   -0.304798
    23  C   -0.476952
    24  H    0.150468
    25  H    0.149170
    26  H    0.157506
    27  H    0.151513
    28  H    0.155209
    29  H    0.156029
    30  H    0.160004
    31  C   -0.299922
    32  C   -0.299352
    33  C   -0.475946
    34  H    0.151283
    35  H    0.149236
    36  H    0.151487
    37  H    0.151747
    38  H    0.155023
    39  H    0.155747
    40  H    0.159992
 Sum of Mulliken charges =  -0.00000

 Dipole moment (field-independent basis, Debye):
    X=             -0.0447    Y=             -0.0138    Z=              0.0044  Tot=              0.0470
 Quadrupole moment (field-independent basis, Debye-Ang):
   XX=            -84.0240   YY=            -87.0135   ZZ=            -83.7048
   XY=              0.6495   XZ=              0.4757   YZ=             -0.4876

 Normal termination of Gaussian 16 at Wed May  5 18:22:27 2021.
