 Gaussian 16, Revision A.03,
 Gaussian 16:  EM64L-G16RevA.03 25-Dec-2016

 -------------
 #p 6-31g* mp2
 -------------

 ------------------------------------------------------
 Input file generated by CHIRIPA (05-May-2021 14:57:27)
 ------------------------------------------------------
 Symbolic Z-matrix:
 Charge =  0 Multiplicity = 1

                         Standard orientation:
 ---------------------------------------------------------------------
 Center     Atomic      Atomic             Coordinates (Angstroms)
 Number     Number       Type             X           Y           Z
 ---------------------------------------------------------------------
      1          6           0        5.691731    1.364679   -0.740701
      2          6           0        4.445698    1.848422   -0.328492
      3          6           0        3.441172    0.965978    0.079883
      4          6           0        3.718163   -0.400147    0.063482
      5          6           0        4.949485   -0.912879   -0.341786
      6          6           0        5.939211   -0.012000   -0.746023
      7          1           0        6.466322    2.057343   -1.056329
      8          1           0        4.250688    2.917061   -0.323332
      9          1           0        2.467595    1.313327    0.403789
     10          1           0        5.114234   -1.983507   -0.336113
     11          1           0        6.905959   -0.390527   -1.065648
     12          7           0        2.662550   -1.344108    0.493620
     13          8           0        2.931609   -2.543145    0.470040
     14          8           0        1.586091   -0.867075    0.846197
     15          6           0       -2.426292    2.154288    0.762518
     16          6           0       -2.045432    0.833928    1.023508
     17          6           0       -2.849833   -0.232051    0.609776
     18          6           0       -4.033854    0.059946   -0.065592
     19          6           0       -4.440528    1.364676   -0.340522
     20          6           0       -3.620520    2.414988    0.082535
     21          1           0       -1.795352    2.976281    1.087537
     22          1           0       -1.118517    0.628482    1.551397
     23          1           0       -2.578996   -1.263740    0.798680
     24          1           0       -5.370192    1.538039   -0.868810
     25          1           0       -3.918818    3.439400   -0.121532
     26          7           0       -4.893698   -1.060266   -0.508527
     27          8           0       -5.932036   -0.776477   -1.101786
     28          8           0       -4.513026   -2.200867   -0.254054
 ---------------------------------------------------------------------

 SCF Done:  E(RHF) =  -868.338961210     A.U. after   16 cycles
 E2 =    -0.2598659601D+01 EUMP2 =    -0.87093762081066D+03

 The electronic state is 1-A.
 Alpha  occ. eigenvalues --  -20.61514 -20.61455 -20.60148 -20.60127 -15.86539
 Alpha  occ. eigenvalues --  -15.85187 -11.31771 -11.30491 -11.28374 -11.28286
 Alpha  occ. eigenvalues --  -11.28025 -11.27329 -11.27274 -11.27103 -11.26925
 Alpha  occ. eigenvalues --  -11.26838 -11.26163 -11.25909  -1.60546  -1.59217
 Alpha  occ. eigenvalues --   -1.40110  -1.38770  -1.19926  -1.18657  -1.09340
 Alpha  occ. eigenvalues --   -1.08087  -1.05316  -1.04020  -0.96202  -0.94928
 Alpha  occ. eigenvalues --   -0.86718  -0.85440  -0.83048  -0.81733  -0.78114
 Alpha  occ. eigenvalues --   -0.76772  -0.72774  -0.71853  -0.71408  -0.71036
 Alpha  occ. eigenvalues --   -0.70538  -0.69809  -0.65588  -0.65318  -0.64306
 Alpha  occ. eigenvalues --   -0.64005  -0.62674  -0.61340  -0.55810  -0.54605
 Alpha  occ. eigenvalues --   -0.53642  -0.53410  -0.52396  -0.52090  -0.49533
 Alpha  occ. eigenvalues --   -0.49482  -0.48170  -0.48157  -0.45542  -0.44188
 Alpha  occ. eigenvalues --   -0.37888  -0.36911  -0.36691  -0.35615
 Alpha virt. eigenvalues --    0.04431   0.05717   0.10747   0.12009   0.15954
 Alpha virt. eigenvalues --    0.17214   0.20670   0.22098   0.26449   0.27190
 Alpha virt. eigenvalues --    0.28600   0.28909   0.30426   0.31413   0.32277

 Mulliken charges:
               1
     1  C   -0.170151
     2  C   -0.217998
     3  C   -0.169354
     4  C    0.158924
     5  C   -0.170180
     6  C   -0.218231
     7  H    0.227411
     8  H    0.223205
     9  H    0.269169
    10  H    0.277503
    11  H    0.225701
    12  N    0.492919
    13  O   -0.454460
    14  O   -0.473297
    15  C   -0.173504
    16  C   -0.222137
    17  C   -0.171340
    18  C    0.157873
    19  C   -0.172776
    20  C   -0.218666
    21  H    0.219248
    22  H    0.239510
    23  H    0.282498
    24  H    0.272985
    25  H    0.219348
    26  N    0.487886
    27  O   -0.463612
    28  O   -0.458475
 Sum of Mulliken charges =  -0.00000

 Dipole moment (field-independent basis, Debye):
    X=              7.1756    Y=              7.0504    Z=              0.0591  Tot=             10.0599
 Quadrupole moment (field-independent basis, Debye-Ang):
   XX=            -98.1860   YY=           -102.6631   ZZ=           -105.8823
   XY=             -9.5951   XZ=            -11.5869   YZ=             -0.1500

 Normal termination of Gaussian 16 at Thu May  6 21:23:19 2021.
