 Gaussian 16, Revision A.03,
 Gaussian 16:  EM64L-G16RevA.03 25-Dec-2016

 -------------
 #p 6-31g* mp2
 -------------

 ------------------------------------------------------
 Input file generated by CHIRIPA (05-May-2021 14:55:24)
 ------------------------------------------------------
 Symbolic Z-matrix:
 Charge =  0 Multiplicity = 1

                         Standard orientation:
 ---------------------------------------------------------------------
 Center     Atomic      Atomic             Coordinates (Angstroms)
 Number     Number       Type             X           Y           Z
 ---------------------------------------------------------------------
      1          6           0       -2.653404   -1.672582   -1.862552
      2          6           0       -1.383618   -1.515673   -1.297268
      3          6           0       -1.204581   -0.716077   -0.164511
      4          6           0       -2.322305   -0.085178    0.379503
      5          6           0       -3.600133   -0.221878   -0.160642
      6          6           0       -3.755665   -1.026323   -1.293438
      7          1           0       -2.783355   -2.295611   -2.742520
      8          1           0       -0.525783   -2.016365   -1.737121
      9          1           0       -0.232771   -0.577280    0.293461
     10          1           0       -4.436249    0.289891    0.300248
     11          1           0       -4.742973   -1.146365   -1.730312
     12          7           0       -2.145208    0.763885    1.578723
     13          8           0       -3.145978    1.309024    2.039069
     14          8           0       -1.008982    0.868165    2.035619
     15          6           0        2.660974    0.967372   -0.214680
     16          6           0        2.449737    1.577672   -1.600646
     17          6           0        1.750525    2.936392   -1.547955
     18          1           0        1.688076    0.861564    0.284536
     19          1           0        3.252674    1.661771    0.397772
     20          1           0        1.859788    0.881719   -2.210747
     21          1           0        3.423234    1.681863   -2.096695
     22          1           0        2.338860    3.649945   -0.962033
     23          1           0        0.766531    2.845255   -1.076732
     24          1           0        1.609615    3.354492   -2.549552
     25          6           0        3.358846   -0.391080   -0.250875
     26          6           0        3.570083   -1.001380    1.135090
     27          6           0        4.269295   -2.360100    1.082400
     28          1           0        2.767146   -1.085479   -0.863327
     29          1           0        4.331746   -0.285271   -0.750091
     30          1           0        2.596586   -1.105571    1.631140
     31          1           0        4.160032   -0.305427    1.745192
     32          1           0        5.253289   -2.268963    0.611177
     33          1           0        3.680960   -3.073653    0.496477
     34          1           0        4.410206   -2.778201    2.083996
 ---------------------------------------------------------------------

 SCF Done:  E(RHF) =  -669.535724290     A.U. after   15 cycles
 E2 =    -0.2092466030D+01 EUMP2 =    -0.67162819032005D+03

 The electronic state is 1-A.
 Alpha  occ. eigenvalues --  -20.60877 -20.60872 -15.85916 -11.31262 -11.27826
 Alpha  occ. eigenvalues --  -11.27818 -11.27565 -11.26844 -11.26833 -11.21699
 Alpha  occ. eigenvalues --  -11.21687 -11.21617 -11.21373 -11.21210 -11.20968
 Alpha  occ. eigenvalues --   -1.59942  -1.39498  -1.19433  -1.08832  -1.08551
 Alpha  occ. eigenvalues --   -1.04834  -1.03599  -0.96049  -0.95669  -0.87057
 Alpha  occ. eigenvalues --   -0.86235  -0.82501  -0.79658  -0.78350  -0.77549
 Alpha  occ. eigenvalues --   -0.72136  -0.71260  -0.70553  -0.65305  -0.65085
 Alpha  occ. eigenvalues --   -0.64777  -0.62167  -0.61005  -0.59406  -0.57644
 Alpha  occ. eigenvalues --   -0.55431  -0.55254  -0.53160  -0.52937  -0.52723
 Alpha  occ. eigenvalues --   -0.52442  -0.49989  -0.48902  -0.48891  -0.47964
 Alpha  occ. eigenvalues --   -0.46711  -0.45876  -0.45808  -0.44878  -0.43868
 Alpha  occ. eigenvalues --   -0.37411  -0.36430
 Alpha virt. eigenvalues --    0.04943   0.11166   0.16445   0.18987   0.23017
 Alpha virt. eigenvalues --    0.24226   0.25503   0.25670   0.27616   0.28221
 Alpha virt. eigenvalues --    0.30478   0.31098   0.31320   0.31803   0.31904

 Mulliken charges:
               1
     1  C   -0.170366
     2  C   -0.221554
     3  C   -0.175691
     4  C    0.156575
     5  C   -0.170130
     6  C   -0.218655
     7  H    0.226026
     8  H    0.224326
     9  H    0.285188
    10  H    0.275833
    11  H    0.223810
    12  N    0.488122
    13  O   -0.459205
    14  O   -0.462755
    15  C   -0.309210
    16  C   -0.298864
    17  C   -0.475596
    18  H    0.160596
    19  H    0.155253
    20  H    0.144427
    21  H    0.151903
    22  H    0.157980
    23  H    0.159129
    24  H    0.158437
    25  C   -0.298316
    26  C   -0.301655
    27  C   -0.475196
    28  H    0.137631
    29  H    0.151494
    30  H    0.154913
    31  H    0.156583
    32  H    0.155518
    33  H    0.150737
    34  H    0.162714
 Sum of Mulliken charges =  -0.00000

 Dipole moment (field-independent basis, Debye):
    X=             -0.6322    Y=             -2.8789    Z=             -4.0996  Tot=              5.0492
 Quadrupole moment (field-independent basis, Debye-Ang):
   XX=            -86.0186   YY=            -95.4602   ZZ=            -98.7592
   XY=              7.1688   XZ=             10.1351   YZ=             -0.4565

 Normal termination of Gaussian 16 at Wed May  5 16:07:59 2021.
