 Gaussian 16, Revision A.03,
 Gaussian 16:  EM64L-G16RevA.03 25-Dec-2016

 -------------
 #p 6-31g* mp2
 -------------

 ------------------------------------------------------
 Input file generated by CHIRIPA (05-May-2021 14:53:14)
 ------------------------------------------------------
 Symbolic Z-matrix:
 Charge =  0 Multiplicity = 1

                         Standard orientation:
 ---------------------------------------------------------------------
 Center     Atomic      Atomic             Coordinates (Angstroms)
 Number     Number       Type             X           Y           Z
 ---------------------------------------------------------------------
      1          6           0        3.477547    0.900138   -0.449941
      2          6           0        2.310399    1.671117    0.167589
      3          6           0        2.219075    3.110903   -0.338838
      4          1           0        4.415271    1.428193   -0.229087
      5          1           0        3.369517    0.899027   -1.543432
      6          1           0        2.419859    1.669590    1.259666
      7          1           0        1.375364    1.141062   -0.054597
      8          1           0        2.085567    3.129381   -1.425317
      9          1           0        3.135998    3.660912   -0.103586
     10          1           0        1.377864    3.643674    0.115452
     11          6           0        3.582024   -0.540818    0.046505
     12          6           0        4.749172   -1.311796   -0.571026
     13          6           0        4.840496   -2.751582   -0.064598
     14          1           0        3.690055   -0.539706    1.139996
     15          1           0        2.644300   -1.068873   -0.174349
     16          1           0        5.684208   -0.781742   -0.348840
     17          1           0        4.639712   -1.310270   -1.663103
     18          1           0        3.923574   -3.301592   -0.299850
     19          1           0        4.974004   -2.770061    1.021880
     20          1           0        5.681707   -3.284353   -0.518888
     21          6           0       -1.592981    0.233974    2.364254
     22          6           0       -1.248053    1.006979    1.250698
     23          6           0       -1.886756    0.808257    0.023052
     24          6           0       -2.870241   -0.176549   -0.055740
     25          6           0       -3.236098   -0.962843    1.035672
     26          6           0       -2.584156   -0.746741    2.253383
     27          1           0       -1.091679    0.395097    3.314060
     28          1           0       -0.478668    1.769327    1.333873
     29          1           0       -1.639311    1.392460   -0.854955
     30          1           0       -4.007003   -1.715291    0.921892
     31          1           0       -2.854084   -1.348559    3.116516
     32          7           0       -3.553415   -0.396127   -1.350135
     33          8           0       -4.416536   -1.270072   -1.393489
     34          8           0       -3.212830    0.309870   -2.296817
 ---------------------------------------------------------------------

 SCF Done:  E(RHF) =  -669.534945138     A.U. after   15 cycles
 E2 =    -0.2092254818D+01 EUMP2 =    -0.67162719995575D+03

 The electronic state is 1-A.
 Alpha  occ. eigenvalues --  -20.60766 -20.60761 -15.85818 -11.31182 -11.27742
 Alpha  occ. eigenvalues --  -11.27731 -11.27465 -11.26766 -11.26694 -11.22384
 Alpha  occ. eigenvalues --  -11.21929 -11.21912 -11.21891 -11.21790 -11.21331
 Alpha  occ. eigenvalues --   -1.59841  -1.39395  -1.19350  -1.08961  -1.08739
 Alpha  occ. eigenvalues --   -1.04760  -1.04080  -0.96514  -0.95579  -0.87524
 Alpha  occ. eigenvalues --   -0.86147  -0.82424  -0.80182  -0.78760  -0.77447
 Alpha  occ. eigenvalues --   -0.72036  -0.71165  -0.70451  -0.65599  -0.64994
 Alpha  occ. eigenvalues --   -0.64762  -0.62176  -0.61433  -0.59889  -0.58125
 Alpha  occ. eigenvalues --   -0.55773  -0.55236  -0.53243  -0.53105  -0.52923
 Alpha  occ. eigenvalues --   -0.52814  -0.50433  -0.48802  -0.48792  -0.48454
 Alpha  occ. eigenvalues --   -0.47190  -0.46279  -0.46185  -0.44801  -0.44318
 Alpha  occ. eigenvalues --   -0.37321  -0.36311
 Alpha virt. eigenvalues --    0.05040   0.11288   0.16430   0.20024   0.22608
 Alpha virt. eigenvalues --    0.23746   0.25821   0.26111   0.27132   0.28134
 Alpha virt. eigenvalues --    0.29199   0.29791   0.30923   0.31629   0.32023

 Mulliken charges:
               1
     1  C   -0.297882
     2  C   -0.308685
     3  C   -0.478729
     4  H    0.150993
     5  H    0.153334
     6  H    0.147116
     7  H    0.154097
     8  H    0.160994
     9  H    0.160021
    10  H    0.153621
    11  C   -0.299137
    12  C   -0.300244
    13  C   -0.476091
    14  H    0.147395
    15  H    0.152226
    16  H    0.152156
    17  H    0.154138
    18  H    0.156499
    19  H    0.154175
    20  H    0.161740
    21  C   -0.173352
    22  C   -0.220044
    23  C   -0.174400
    24  C    0.158693
    25  C   -0.171350
    26  C   -0.218319
    27  H    0.225815
    28  H    0.233536
    29  H    0.275706
    30  H    0.275509
    31  H    0.223380
    32  N    0.488083
    33  O   -0.460460
    34  O   -0.460534
 Sum of Mulliken charges =  -0.00000

 Dipole moment (field-independent basis, Debye):
    X=              2.5298    Y=              0.7296    Z=              4.5069  Tot=              5.2196
 Quadrupole moment (field-independent basis, Debye-Ang):
   XX=           -106.9270   YY=            -93.8271   ZZ=            -94.3674
   XY=              0.0781   XZ=            -14.5090   YZ=             -2.1679

 Normal termination of Gaussian 16 at Wed May  5 17:07:17 2021.
