 Gaussian 16, Revision A.03,
 Gaussian 16:  EM64L-G16RevA.03 25-Dec-2016

 -------------
 #p 6-31g* mp2
 -------------

 ------------------------------------------------------
 Input file generated by CHIRIPA (05-May-2021 14:53:15)
 ------------------------------------------------------
 Symbolic Z-matrix:
 Charge =  0 Multiplicity = 1

                         Standard orientation:
 ---------------------------------------------------------------------
 Center     Atomic      Atomic             Coordinates (Angstroms)
 Number     Number       Type             X           Y           Z
 ---------------------------------------------------------------------
      1          6           0       -3.670031   -0.630512    0.596746
      2          6           0       -2.563397   -1.443363   -0.076026
      3          6           0       -1.438487   -1.821731    0.887929
      4          1           0       -3.235131    0.280305    1.030587
      5          1           0       -4.082967   -1.209383    1.434473
      6          1           0       -2.153614   -0.863701   -0.913095
      7          1           0       -3.001015   -2.352257   -0.508482
      8          1           0       -1.827282   -2.421336    1.717333
      9          1           0       -0.975066   -0.924322    1.310422
     10          1           0       -0.658132   -2.402359    0.386155
     11          6           0       -4.801753   -0.244700   -0.354086
     12          6           0       -5.908386    0.568151    0.318685
     13          6           0       -7.033297    0.946518   -0.645269
     14          1           0       -4.388816    0.334171   -1.191814
     15          1           0       -5.236653   -1.155518   -0.787928
     16          1           0       -5.470769    1.477045    0.751142
     17          1           0       -6.318170   -0.011512    1.155755
     18          1           0       -7.496717    0.049110   -1.067762
     19          1           0       -6.644501    1.546124   -1.474674
     20          1           0       -7.813652    1.527147   -0.143495
     21          6           0        1.183377    1.698673   -0.020421
     22          6           0        2.399042    2.281293    0.352717
     23          6           0        3.583181    1.539018    0.315413
     24          6           0        3.514816    0.210711   -0.101978
     25          6           0        2.319069   -0.398084   -0.479933
     26          6           0        1.147334    0.363197   -0.434824
     27          1           0        0.268327    2.282672    0.011589
     28          1           0        2.430036    3.318231    0.674966
     29          1           0        4.537941    1.965079    0.598825
     30          1           0        2.319802   -1.433957   -0.796769
     31          1           0        0.204661   -0.091892   -0.725181
     32          7           0        4.761845   -0.585164   -0.145602
     33          8           0        4.674912   -1.753546   -0.517036
     34          8           0        5.802586   -0.025518    0.192467
 ---------------------------------------------------------------------

 SCF Done:  E(RHF) =  -669.534570725     A.U. after   15 cycles
 E2 =    -0.2092390979D+01 EUMP2 =    -0.67162696170431D+03

 The electronic state is 1-A.
 Alpha  occ. eigenvalues --  -20.60731 -20.60726 -15.85782 -11.31149 -11.27703
 Alpha  occ. eigenvalues --  -11.27688 -11.27446 -11.26739 -11.26649 -11.22662
 Alpha  occ. eigenvalues --  -11.22270 -11.22234 -11.22109 -11.21987 -11.21603
 Alpha  occ. eigenvalues --   -1.59805  -1.39359  -1.19313  -1.09264  -1.08712
 Alpha  occ. eigenvalues --   -1.04731  -1.04333  -0.96776  -0.95548  -0.87788
 Alpha  occ. eigenvalues --   -0.86111  -0.82378  -0.80411  -0.79046  -0.77430
 Alpha  occ. eigenvalues --   -0.72002  -0.71128  -0.70429  -0.66004  -0.64964
 Alpha  occ. eigenvalues --   -0.64727  -0.62300  -0.61494  -0.60130  -0.58373
 Alpha  occ. eigenvalues --   -0.56092  -0.55191  -0.53484  -0.53189  -0.53019
 Alpha  occ. eigenvalues --   -0.52735  -0.50682  -0.48775  -0.48757  -0.48692
 Alpha  occ. eigenvalues --   -0.47478  -0.46579  -0.46511  -0.44765  -0.44588
 Alpha  occ. eigenvalues --   -0.37294  -0.36281
 Alpha virt. eigenvalues --    0.05097   0.11262   0.16572   0.19477   0.22642
 Alpha virt. eigenvalues --    0.23937   0.25576   0.25981   0.26778   0.27983
 Alpha virt. eigenvalues --    0.29093   0.29803   0.30708   0.31096   0.31776

 Mulliken charges:
               1
     1  C   -0.297465
     2  C   -0.306645
     3  C   -0.483430
     4  H    0.146183
     5  H    0.154016
     6  H    0.144274
     7  H    0.158596
     8  H    0.163237
     9  H    0.157508
    10  H    0.158742
    11  C   -0.298767
    12  C   -0.300000
    13  C   -0.476088
    14  H    0.147875
    15  H    0.152340
    16  H    0.150888
    17  H    0.153842
    18  H    0.156686
    19  H    0.155052
    20  H    0.162006
    21  C   -0.175290
    22  C   -0.217986
    23  C   -0.171511
    24  C    0.159032
    25  C   -0.174742
    26  C   -0.221484
    27  H    0.224816
    28  H    0.223119
    29  H    0.275366
    30  H    0.275387
    31  H    0.237375
    32  N    0.488088
    33  O   -0.460427
    34  O   -0.460593
 Sum of Mulliken charges =  -0.00000

 Dipole moment (field-independent basis, Debye):
    X=             -4.6037    Y=              2.7247    Z=              0.2201  Tot=              5.3541
 Quadrupole moment (field-independent basis, Debye-Ang):
   XX=           -124.5202   YY=            -89.8790   ZZ=            -95.3008
   XY=             12.3045   XZ=              1.2093   YZ=              1.1422

 Normal termination of Gaussian 16 at Thu May  6 04:16:08 2021.
