 Gaussian 16, Revision A.03,
 Gaussian 16:  EM64L-G16RevA.03 25-Dec-2016

 -------------
 #p 6-31g* mp2
 -------------

 ------------------------------------------------------
 Input file generated by CHIRIPA (05-May-2021 14:57:25)
 ------------------------------------------------------
 Symbolic Z-matrix:
 Charge =  0 Multiplicity = 1

                         Standard orientation:
 ---------------------------------------------------------------------
 Center     Atomic      Atomic             Coordinates (Angstroms)
 Number     Number       Type             X           Y           Z
 ---------------------------------------------------------------------
      1          6           0        2.634723    2.382435    0.437984
      2          6           0        3.771847    2.193764   -0.354401
      3          6           0        4.273490    0.908794   -0.581898
      4          6           0        3.610141   -0.169812    0.001083
      5          6           0        2.475122   -0.014263    0.795329
      6          6           0        1.991125    1.279764    1.009313
      7          1           0        2.251889    3.384149    0.609460
      8          1           0        4.273720    3.048263   -0.799374
      9          1           0        5.151983    0.734117   -1.191123
     10          1           0        1.996384   -0.885574    1.225499
     11          1           0        1.107828    1.423289    1.625131
     12          7           0        4.131867   -1.534946   -0.232605
     13          8           0        3.529259   -2.468733    0.292316
     14          8           0        5.133526   -1.645303   -0.936265
     15          6           0       -3.150703    2.435785   -0.186433
     16          6           0       -4.362483    1.883231   -0.613976
     17          6           0       -4.580388    0.504397   -0.537257
     18          6           0       -3.560257   -0.295996   -0.025402
     19          6           0       -2.342085    0.224580    0.408586
     20          6           0       -2.146143    1.606159    0.322587
     21          1           0       -2.989960    3.507961   -0.249635
     22          1           0       -5.144419    2.525106   -1.009722
     23          1           0       -5.508937    0.050204   -0.861174
     24          1           0       -1.581383   -0.440792    0.798499
     25          1           0       -1.204055    2.032510    0.655364
     26          7           0       -3.779318   -1.757157    0.060730
     27          8           0       -2.864735   -2.440761    0.515549
     28          8           0       -4.861454   -2.191145   -0.328209
 ---------------------------------------------------------------------

 SCF Done:  E(RHF) =  -868.336074216     A.U. after   16 cycles
 E2 =    -0.2600256189D+01 EUMP2 =    -0.87093633040524D+03

 The electronic state is 1-A.
 Alpha  occ. eigenvalues --  -20.61036 -20.61029 -20.61021 -20.61004 -15.86096
 Alpha  occ. eigenvalues --  -15.86079 -11.31669 -11.31622 -11.28318 -11.28278
 Alpha  occ. eigenvalues --  -11.28262 -11.28181 -11.28143 -11.28011 -11.27474
 Alpha  occ. eigenvalues --  -11.27360 -11.27311 -11.27223  -1.60107  -1.60088
 Alpha  occ. eigenvalues --   -1.39657  -1.39634  -1.19890  -1.19818  -1.09254
 Alpha  occ. eigenvalues --   -1.09184  -1.05349  -1.05251  -0.96040  -0.95990
 Alpha  occ. eigenvalues --   -0.86759  -0.86631  -0.82901  -0.82809  -0.77931
 Alpha  occ. eigenvalues --   -0.77793  -0.72310  -0.72292  -0.71433  -0.71415
 Alpha  occ. eigenvalues --   -0.71014  -0.70933  -0.65586  -0.65538  -0.65467
 Alpha  occ. eigenvalues --   -0.65139  -0.62833  -0.62456  -0.55869  -0.55751
 Alpha  occ. eigenvalues --   -0.53666  -0.53566  -0.53541  -0.53235  -0.49089
 Alpha  occ. eigenvalues --   -0.49066  -0.49057  -0.49032  -0.45027  -0.44989
 Alpha  occ. eigenvalues --   -0.37897  -0.37797  -0.36977  -0.36817
 Alpha virt. eigenvalues --    0.04663   0.04728   0.10548   0.10828   0.16029
 Alpha virt. eigenvalues --    0.16172   0.18319   0.22092   0.24801   0.26097
 Alpha virt. eigenvalues --    0.28101   0.29341   0.29748   0.31120   0.32231

 Mulliken charges:
               1
     1  C   -0.170967
     2  C   -0.218195
     3  C   -0.169076
     4  C    0.159362
     5  C   -0.170478
     6  C   -0.223085
     7  H    0.222838
     8  H    0.225015
     9  H    0.278075
    10  H    0.279583
    11  H    0.216677
    12  N    0.487836
    13  O   -0.456135
    14  O   -0.459223
    15  C   -0.170890
    16  C   -0.218113
    17  C   -0.169872
    18  C    0.159316
    19  C   -0.169767
    20  C   -0.217840
    21  H    0.224826
    22  H    0.224967
    23  H    0.277631
    24  H    0.271867
    25  H    0.214711
    26  N    0.488034
    27  O   -0.458348
    28  O   -0.458749
 Sum of Mulliken charges =  -0.00000

 Dipole moment (field-independent basis, Debye):
    X=             -1.0025    Y=              9.7791    Z=              0.3904  Tot=              9.8381
 Quadrupole moment (field-independent basis, Debye-Ang):
   XX=           -115.5282   YY=           -109.8494   ZZ=           -103.8790
   XY=              0.0292   XZ=              3.7370   YZ=             -1.9023

 Normal termination of Gaussian 16 at Fri May  7 00:23:13 2021.
