 Gaussian 16, Revision A.03,
 Gaussian 16:  EM64L-G16RevA.03 25-Dec-2016

 -------------
 #p 6-31g* mp2
 -------------

 ------------------------------------------------------
 Input file generated by CHIRIPA (05-May-2021 14:57:23)
 ------------------------------------------------------
 Symbolic Z-matrix:
 Charge =  0 Multiplicity = 1

                         Standard orientation:
 ---------------------------------------------------------------------
 Center     Atomic      Atomic             Coordinates (Angstroms)
 Number     Number       Type             X           Y           Z
 ---------------------------------------------------------------------
      1          6           0       -4.711589    1.994267    0.564802
      2          6           0       -4.705402    1.475733   -0.734277
      3          6           0       -3.944270    0.344573   -1.043633
      4          6           0       -3.197723   -0.245532   -0.024941
      5          6           0       -3.183215    0.247432    1.278925
      6          6           0       -3.951815    1.379545    1.565492
      7          1           0       -5.305755    2.873350    0.796266
      8          1           0       -5.294488    1.951066   -1.513431
      9          1           0       -3.921241   -0.077740   -2.040899
     10          1           0       -2.585816   -0.248193    2.034497
     11          1           0       -3.954707    1.780057    2.575258
     12          7           0       -2.387993   -1.443546   -0.340380
     13          8           0       -1.738870   -1.945033    0.574927
     14          8           0       -2.417783   -1.858377   -1.496954
     15          6           0        5.486554    1.357822   -0.096749
     16          6           0        4.385525    1.781258   -0.848386
     17          6           0        3.186277    1.063348   -0.817406
     18          6           0        3.122802   -0.078535   -0.020309
     19          6           0        4.202334   -0.525858    0.739825
     20          6           0        5.391611    0.207644    0.693564
     21          1           0        6.414286    1.921568   -0.126751
     22          1           0        4.456380    2.674125   -1.463051
     23          1           0        2.318499    1.368705   -1.389364
     24          1           0        4.101375   -1.419878    1.343111
     25          1           0        6.245071   -0.123555    1.278337
     26          7           0        1.858489   -0.846808    0.020578
     27          8           0        1.828171   -1.849461    0.730792
     28          8           0        0.921780   -0.431779   -0.658364
 ---------------------------------------------------------------------

 SCF Done:  E(RHF) =  -868.335418344     A.U. after   16 cycles
 E2 =    -0.2601286102D+01 EUMP2 =    -0.87093670444617D+03

 The electronic state is 1-A.
 Alpha  occ. eigenvalues --  -20.59994 -20.59958 -20.59117 -20.59017 -15.85057
 Alpha  occ. eigenvalues --  -15.84142 -11.30734 -11.30058 -11.27347 -11.27325
 Alpha  occ. eigenvalues --  -11.27138 -11.26707 -11.26683 -11.26573 -11.26429
 Alpha  occ. eigenvalues --  -11.26411 -11.25866 -11.25852  -1.59029  -1.58099
 Alpha  occ. eigenvalues --   -1.38589  -1.37660  -1.18932  -1.18287  -1.08265
 Alpha  occ. eigenvalues --   -1.07580  -1.04383  -1.03783  -0.95049  -0.94325
 Alpha  occ. eigenvalues --   -0.85766  -0.85155  -0.81887  -0.81177  -0.76877
 Alpha  occ. eigenvalues --   -0.76113  -0.71304  -0.70434  -0.70348  -0.70037
 Alpha  occ. eigenvalues --   -0.69411  -0.69358  -0.64579  -0.64385  -0.63936
 Alpha  occ. eigenvalues --   -0.63807  -0.61727  -0.61130  -0.54871  -0.54287
 Alpha  occ. eigenvalues --   -0.52696  -0.52480  -0.52074  -0.51893  -0.48073
 Alpha  occ. eigenvalues --   -0.47959  -0.47124  -0.47072  -0.43949  -0.42900
 Alpha  occ. eigenvalues --   -0.36932  -0.36294  -0.36002  -0.35415
 Alpha virt. eigenvalues --    0.05662   0.06470   0.11648   0.12236   0.17098
 Alpha virt. eigenvalues --    0.17855   0.21747   0.22251   0.27633   0.28117
 Alpha virt. eigenvalues --    0.28665   0.29201   0.31274   0.31748   0.32911

 Mulliken charges:
               1
     1  C   -0.173183
     2  C   -0.219008
     3  C   -0.171767
     4  C    0.164030
     5  C   -0.170733
     6  C   -0.219203
     7  H    0.220676
     8  H    0.219016
     9  H    0.273904
    10  H    0.275921
    11  H    0.219073
    12  N    0.494626
    13  O   -0.448505
    14  O   -0.465714
    15  C   -0.171896
    16  C   -0.218542
    17  C   -0.171680
    18  C    0.159017
    19  C   -0.171484
    20  C   -0.218550
    21  H    0.223687
    22  H    0.221334
    23  H    0.274344
    24  H    0.276146
    25  H    0.222130
    26  N    0.488400
    27  O   -0.450372
    28  O   -0.461667
 Sum of Mulliken charges =  -0.00000

 Dipole moment (field-independent basis, Debye):
    X=              1.8167    Y=              6.5740    Z=              1.0187  Tot=              6.8961
 Quadrupole moment (field-independent basis, Debye-Ang):
   XX=            -60.9967   YY=           -106.5092   ZZ=            -99.1442
   XY=             -6.1134   XZ=             -0.6970   YZ=             -3.2731

 Normal termination of Gaussian 16 at Thu May  6 06:35:04 2021.
