 Gaussian 16, Revision A.03,
 Gaussian 16:  EM64L-G16RevA.03 25-Dec-2016

 -------------
 #p 6-31g* mp2
 -------------

 ------------------------------------------------------
 Input file generated by CHIRIPA (05-May-2021 14:51:07)
 ------------------------------------------------------
 Symbolic Z-matrix:
 Charge =  0 Multiplicity = 1

                         Standard orientation:
 ---------------------------------------------------------------------
 Center     Atomic      Atomic             Coordinates (Angstroms)
 Number     Number       Type             X           Y           Z
 ---------------------------------------------------------------------
      1          6           0        4.684892   -0.629039   -0.153448
      2          6           0        5.604121    0.590307   -0.232179
      3          6           0        6.997643    0.247023   -0.759479
      4          1           0        5.146786   -1.387321    0.493551
      5          1           0        4.599346   -1.080096   -1.151759
      6          1           0        5.686804    1.039743    0.765713
      7          1           0        5.139895    1.345851   -0.878911
      8          1           0        6.934347   -0.180960   -1.765175
      9          1           0        7.484363   -0.488808   -0.111207
     10          1           0        7.638225    1.133140   -0.807570
     11          6           0        3.288214   -0.301887    0.371899
     12          6           0        2.368985   -1.521233    0.450630
     13          6           0        0.975462   -1.177949    0.977931
     14          1           0        3.373760    0.149170    1.370210
     15          1           0        2.826319    0.456395   -0.275099
     16          1           0        2.833210   -2.276777    1.097363
     17          1           0        2.286302   -1.970669   -0.547261
     18          1           0        0.488742   -0.442118    0.329658
     19          1           0        1.038758   -0.749966    1.983627
     20          1           0        0.334881   -2.064066    1.026022
     21          6           0       -3.725962    1.132836    0.155610
     22          6           0       -2.261115    1.394458   -0.196188
     23          6           0       -1.754301    2.733442    0.340521
     24          1           0       -4.343953    1.947820   -0.245430
     25          1           0       -3.843918    1.159468    1.247750
     26          1           0       -2.145697    1.365969   -1.287281
     27          1           0       -1.646560    0.578659    0.205571
     28          1           0       -1.840556    2.768750    1.431353
     29          1           0       -2.342528    3.560533   -0.069980
     30          1           0       -0.705039    2.900112    0.077598
     31          6           0       -4.247144   -0.201910   -0.374060
     32          6           0       -5.711991   -0.463532   -0.022264
     33          6           0       -6.218804   -1.802517   -0.558973
     34          1           0       -4.129187   -0.228542   -1.466202
     35          1           0       -3.629152   -1.016894    0.026979
     36          1           0       -6.326544    0.352268   -0.424022
     37          1           0       -5.827408   -0.435043    1.068829
     38          1           0       -5.630577   -2.629607   -0.148471
     39          1           0       -6.132549   -1.837823   -1.649805
     40          1           0       -7.268067   -1.969186   -0.296049
 ---------------------------------------------------------------------

 SCF Done:  E(RHF) =  -470.733271004     A.U. after   11 cycles
 E2 =    -0.1582460466D+01 EUMP2 =    -0.47231573147056D+03

 The electronic state is 1-A.
 Alpha  occ. eigenvalues --  -11.21617 -11.21607 -11.21576 -11.21530 -11.21415
 Alpha  occ. eigenvalues --  -11.21367 -11.21356 -11.21308 -11.21082 -11.21075
 Alpha  occ. eigenvalues --  -11.21052 -11.21040  -1.08442  -1.08393  -1.03550
 Alpha  occ. eigenvalues --   -1.03490  -0.96001  -0.95942  -0.87022  -0.86956
 Alpha  occ. eigenvalues --   -0.79661  -0.79514  -0.78269  -0.78191  -0.65094
 Alpha  occ. eigenvalues --   -0.65007  -0.61022  -0.60829  -0.59366  -0.59317
 Alpha  occ. eigenvalues --   -0.57653  -0.57515  -0.55321  -0.55198  -0.52697
 Alpha  occ. eigenvalues --   -0.52642  -0.52433  -0.52364  -0.50023  -0.49830
 Alpha  occ. eigenvalues --   -0.48037  -0.47788  -0.46763  -0.46462  -0.45864
 Alpha  occ. eigenvalues --   -0.45738  -0.45708  -0.45525  -0.43797  -0.43749
 Alpha virt. eigenvalues --    0.22134   0.22968   0.23615   0.24727   0.25966
 Alpha virt. eigenvalues --    0.26635   0.27078   0.27431   0.28041   0.28893
 Alpha virt. eigenvalues --    0.30531   0.31309   0.31705   0.31770   0.32012

 Mulliken charges:
               1
     1  C   -0.298318
     2  C   -0.299670
     3  C   -0.475716
     4  H    0.149680
     5  H    0.149579
     6  H    0.151965
     7  H    0.151949
     8  H    0.155197
     9  H    0.155185
    10  H    0.160291
    11  C   -0.298404
    12  C   -0.299496
    13  C   -0.481516
    14  H    0.149600
    15  H    0.149640
    16  H    0.151917
    17  H    0.152121
    18  H    0.161446
    19  H    0.155135
    20  H    0.159767
    21  C   -0.297498
    22  C   -0.308065
    23  C   -0.475378
    24  H    0.149343
    25  H    0.149534
    26  H    0.150893
    27  H    0.160936
    28  H    0.155352
    29  H    0.155022
    30  H    0.159774
    31  C   -0.298428
    32  C   -0.299629
    33  C   -0.475680
    34  H    0.149261
    35  H    0.150016
    36  H    0.151853
    37  H    0.151938
    38  H    0.155155
    39  H    0.155087
    40  H    0.160163
 Sum of Mulliken charges =  -0.00000

 Dipole moment (field-independent basis, Debye):
    X=              0.0171    Y=             -0.0086    Z=              0.0082  Tot=              0.0208
 Quadrupole moment (field-independent basis, Debye-Ang):
   XX=            -86.0498   YY=            -85.4966   ZZ=            -83.3404
   XY=             -0.5530   XZ=              0.7495   YZ=             -0.8963

 Normal termination of Gaussian 16 at Wed May  5 22:53:11 2021.
