 Gaussian 16, Revision A.03,
 Gaussian 16:  EM64L-G16RevA.03 25-Dec-2016

 -------------
 #p 6-31g* mp2
 -------------

 ------------------------------------------------------
 Input file generated by CHIRIPA (05-May-2021 14:53:14)
 ------------------------------------------------------
 Symbolic Z-matrix:
 Charge =  0 Multiplicity = 1

                         Standard orientation:
 ---------------------------------------------------------------------
 Center     Atomic      Atomic             Coordinates (Angstroms)
 Number     Number       Type             X           Y           Z
 ---------------------------------------------------------------------
      1          6           0       -3.215733   -0.313155   -0.105315
      2          6           0       -4.382918   -0.858681   -0.928762
      3          6           0       -4.435717   -2.386717   -0.939315
      4          1           0       -2.274005   -0.711236   -0.507341
      5          1           0       -3.297683   -0.685259    0.925324
      6          1           0       -4.299553   -0.484539   -1.957200
      7          1           0       -5.321964   -0.459103   -0.524848
      8          1           0       -4.542940   -2.775517    0.078496
      9          1           0       -3.514721   -2.801097   -1.361993
     10          1           0       -5.277594   -2.755237   -1.533701
     11          6           0       -3.149571    1.212933   -0.085189
     12          6           0       -1.982386    1.758459    0.738258
     13          6           0       -1.929587    3.286496    0.748810
     14          1           0       -3.067621    1.585038   -1.115829
     15          1           0       -4.091299    1.611015    0.316836
     16          1           0       -1.043341    1.358881    0.334344
     17          1           0       -2.065751    1.384317    1.766695
     18          1           0       -2.850583    3.700875    1.171489
     19          1           0       -1.822364    3.675295   -0.269001
     20          1           0       -1.087710    3.655015    1.343197
     21          6           0        1.469979   -2.299213    1.314994
     22          6           0        1.013431   -0.999544    1.557780
     23          6           0        1.569323    0.087192    0.876210
     24          6           0        2.584715   -0.163176   -0.045519
     25          6           0        3.061070   -1.446438   -0.309363
     26          6           0        2.490541   -2.518127    0.383839
     27          1           0        1.032463   -3.137572    1.848971
     28          1           0        0.220980   -0.826550    2.280371
     29          1           0        1.234838    1.103615    1.044798
     30          1           0        3.852408   -1.587449   -1.035530
     31          1           0        2.847089   -3.526392    0.193257
     32          7           0        3.180961    0.979338   -0.773223
     33          8           0        4.074355    0.732221   -1.580327
     34          8           0        2.743614    2.100325   -0.522715
 ---------------------------------------------------------------------

 SCF Done:  E(RHF) =  -669.535362578     A.U. after   15 cycles
 E2 =    -0.2092350594D+01 EUMP2 =    -0.67162771317164D+03

 The electronic state is 1-A.
 Alpha  occ. eigenvalues --  -20.60777 -20.60772 -15.85830 -11.31186 -11.27759
 Alpha  occ. eigenvalues --  -11.27720 -11.27491 -11.26775 -11.26749 -11.22035
 Alpha  occ. eigenvalues --  -11.21925 -11.21776 -11.21692 -11.21428 -11.21236
 Alpha  occ. eigenvalues --   -1.59853  -1.39406  -1.19363  -1.08791  -1.08755
 Alpha  occ. eigenvalues --   -1.04765  -1.03866  -0.96287  -0.95593  -0.87300
 Alpha  occ. eigenvalues --   -0.86157  -0.82426  -0.79963  -0.78646  -0.77452
 Alpha  occ. eigenvalues --   -0.72047  -0.71178  -0.70473  -0.65431  -0.65008
 Alpha  occ. eigenvalues --   -0.64749  -0.62154  -0.61228  -0.59655  -0.57916
 Alpha  occ. eigenvalues --   -0.55561  -0.55255  -0.53127  -0.52951  -0.52849
 Alpha  occ. eigenvalues --   -0.52713  -0.50212  -0.48806  -0.48805  -0.48255
 Alpha  occ. eigenvalues --   -0.46974  -0.46156  -0.46074  -0.44811  -0.44115
 Alpha  occ. eigenvalues --   -0.37343  -0.36322
 Alpha virt. eigenvalues --    0.05018   0.11224   0.16484   0.20534   0.22730
 Alpha virt. eigenvalues --    0.23793   0.25465   0.26168   0.26934   0.28361
 Alpha virt. eigenvalues --    0.29166   0.30322   0.31343   0.31560   0.32159

 Mulliken charges:
               1
     1  C   -0.299795
     2  C   -0.299812
     3  C   -0.475886
     4  H    0.151679
     5  H    0.144149
     6  H    0.154444
     7  H    0.152759
     8  H    0.153043
     9  H    0.154839
    10  H    0.161844
    11  C   -0.297565
    12  C   -0.308030
    13  C   -0.475608
    14  H    0.153909
    15  H    0.150743
    16  H    0.154293
    17  H    0.144216
    18  H    0.155375
    19  H    0.162003
    20  H    0.161590
    21  C   -0.171215
    22  C   -0.217942
    23  C   -0.173574
    24  C    0.157549
    25  C   -0.171241
    26  C   -0.218470
    27  H    0.225869
    28  H    0.225735
    29  H    0.279087
    30  H    0.275516
    31  H    0.223459
    32  N    0.488100
    33  O   -0.460415
    34  O   -0.460645
 Sum of Mulliken charges =  -0.00000

 Dipole moment (field-independent basis, Debye):
    X=             -2.1441    Y=             -3.9642    Z=              2.4751  Tot=              5.1418
 Quadrupole moment (field-independent basis, Debye-Ang):
   XX=           -103.8944   YY=            -92.7114   ZZ=            -93.7799
   XY=            -12.7504   XZ=              4.8443   YZ=              1.2469

 Normal termination of Gaussian 16 at Wed May  5 23:26:45 2021.
