 Gaussian 16, Revision A.03,
 Gaussian 16:  EM64L-G16RevA.03 25-Dec-2016

 -------------
 #p 6-31g* mp2
 -------------

 ------------------------------------------------------
 Input file generated by CHIRIPA (05-May-2021 14:57:24)
 ------------------------------------------------------
 Symbolic Z-matrix:
 Charge =  0 Multiplicity = 1

                         Standard orientation:
 ---------------------------------------------------------------------
 Center     Atomic      Atomic             Coordinates (Angstroms)
 Number     Number       Type             X           Y           Z
 ---------------------------------------------------------------------
      1          6           0       -3.886426   -1.817557   -0.166588
      2          6           0       -4.335430   -0.677747    0.508505
      3          6           0       -3.630892    0.526212    0.415462
      4          6           0       -2.476161    0.554802   -0.364967
      5          6           0       -2.003373   -0.563777   -1.049469
      6          6           0       -2.723881   -1.757041   -0.942053
      7          1           0       -4.439931   -2.748667   -0.088727
      8          1           0       -5.237951   -0.721812    1.111464
      9          1           0       -3.956052    1.423652    0.927604
     10          1           0       -1.100244   -0.488953   -1.642913
     11          1           0       -2.372826   -2.640656   -1.467439
     12          7           0       -1.721845    1.823718   -0.471076
     13          8           0       -0.707441    1.822821   -1.165065
     14          8           0       -2.159300    2.795165    0.141755
     15          6           0        0.417342   -0.974782    1.444767
     16          6           0        1.024051   -1.851696    0.539533
     17          6           0        2.233706   -1.513532   -0.074411
     18          6           0        2.811539   -0.284849    0.241398
     19          6           0        2.231644    0.610213    1.139103
     20          6           0        1.022008    0.251212    1.741140
     21          1           0       -0.522340   -1.245569    1.917069
     22          1           0        0.556735   -2.804484    0.307468
     23          1           0        2.725092   -2.173552   -0.778920
     24          1           0        2.721472    1.552987    1.350434
     25          1           0        0.553103    0.934211    2.443768
     26          7           0        4.092137    0.084180   -0.402254
     27          8           0        4.580959    1.172571   -0.107139
     28          8           0        4.582799   -0.721956   -1.189677
 ---------------------------------------------------------------------

 SCF Done:  E(RHF) =  -868.336803974     A.U. after   16 cycles
 E2 =    -0.2603821268D+01 EUMP2 =    -0.87094062524191D+03

 The electronic state is 1-A.
 Alpha  occ. eigenvalues --  -20.61363 -20.61309 -20.60429 -20.60405 -15.86383
 Alpha  occ. eigenvalues --  -15.85479 -11.31851 -11.30884 -11.28514 -11.28440
 Alpha  occ. eigenvalues --  -11.28281 -11.27589 -11.27504 -11.27495 -11.27451
 Alpha  occ. eigenvalues --  -11.27303 -11.26628 -11.26449  -1.60410  -1.59491
 Alpha  occ. eigenvalues --   -1.39957  -1.39045  -1.20102  -1.19103  -1.09458
 Alpha  occ. eigenvalues --   -1.08506  -1.05511  -1.04529  -0.96264  -0.95318
 Alpha  occ. eigenvalues --   -0.86886  -0.85939  -0.83087  -0.82155  -0.78111
 Alpha  occ. eigenvalues --   -0.77178  -0.72603  -0.71765  -0.71702  -0.71175
 Alpha  occ. eigenvalues --   -0.70804  -0.70241  -0.65730  -0.65492  -0.64774
 Alpha  occ. eigenvalues --   -0.64562  -0.62834  -0.61879  -0.55997  -0.55126
 Alpha  occ. eigenvalues --   -0.53929  -0.53590  -0.52705  -0.52636  -0.49379
 Alpha  occ. eigenvalues --   -0.49350  -0.48469  -0.48446  -0.45330  -0.44443
 Alpha  occ. eigenvalues --   -0.38311  -0.37630  -0.36485  -0.35973
 Alpha virt. eigenvalues --    0.04364   0.05352   0.10466   0.11552   0.15818
 Alpha virt. eigenvalues --    0.16822   0.20495   0.21680   0.26121   0.27647
 Alpha virt. eigenvalues --    0.27774   0.28381   0.30047   0.31256   0.32058

 Mulliken charges:
               1
     1  C   -0.172154
     2  C   -0.221096
     3  C   -0.173901
     4  C    0.155042
     5  C   -0.164962
     6  C   -0.226684
     7  H    0.227351
     8  H    0.225291
     9  H    0.276834
    10  H    0.280380
    11  H    0.223050
    12  N    0.487670
    13  O   -0.454186
    14  O   -0.462665
    15  C   -0.171945
    16  C   -0.224100
    17  C   -0.172549
    18  C    0.160389
    19  C   -0.158517
    20  C   -0.221455
    21  H    0.225500
    22  H    0.215629
    23  H    0.273276
    24  H    0.279432
    25  H    0.226841
    26  N    0.488493
    27  O   -0.457677
    28  O   -0.463289
 Sum of Mulliken charges =  -0.00000

 Dipole moment (field-independent basis, Debye):
    X=             -7.0912    Y=             -5.4866    Z=              2.6075  Tot=              9.3374
 Quadrupole moment (field-independent basis, Debye-Ang):
   XX=           -115.8307   YY=           -105.3170   ZZ=           -102.0088
   XY=              6.0893   XZ=              3.2403   YZ=              5.0088

 Normal termination of Gaussian 16 at Fri May  7 03:27:15 2021.
