 Gaussian 16, Revision A.03,
 Gaussian 16:  EM64L-G16RevA.03 25-Dec-2016

 -------------
 #p 6-31g* mp2
 -------------

 ------------------------------------------------------
 Input file generated by CHIRIPA (05-May-2021 14:51:13)
 ------------------------------------------------------
 Symbolic Z-matrix:
 Charge =  0 Multiplicity = 1

                         Standard orientation:
 ---------------------------------------------------------------------
 Center     Atomic      Atomic             Coordinates (Angstroms)
 Number     Number       Type             X           Y           Z
 ---------------------------------------------------------------------
      1          6           0       -3.296570    0.417949    0.461716
      2          6           0       -3.560291    1.085491   -0.888404
      3          6           0       -4.831079    1.935721   -0.889294
      4          1           0       -4.158754   -0.208485    0.728481
      5          1           0       -3.221117    1.192581    1.237375
      6          1           0       -3.633847    0.309919   -1.661511
      7          1           0       -2.697297    1.710259   -1.152077
      8          1           0       -4.763729    2.729948   -0.138781
      9          1           0       -5.705601    1.321652   -0.651110
     10          1           0       -5.000396    2.403596   -1.864120
     11          6           0       -2.029623   -0.435454    0.478390
     12          6           0       -1.765902   -1.102996    1.828510
     13          6           0       -0.495114   -1.953225    1.829400
     14          1           0       -2.105076   -1.210085   -0.297269
     15          1           0       -1.167439    0.190981    0.211625
     16          1           0       -2.628896   -1.727763    2.092183
     17          1           0       -1.692345   -0.327424    2.601617
     18          1           0        0.379408   -1.339156    1.591216
     19          1           0       -0.562463   -2.747452    1.078887
     20          1           0       -0.325797   -2.421100    2.804225
     21          6           0        3.279176    0.283670   -0.111866
     22          6           0        3.231995    1.797131    0.100725
     23          6           0        4.471461    2.332184    0.818525
     24          1           0        3.384059   -0.213892    0.861980
     25          1           0        4.177723    0.029611   -0.691057
     26          1           0        2.333079    2.048403    0.678157
     27          1           0        3.127019    2.291140   -0.873723
     28          1           0        5.375862    2.110305    0.242826
     29          1           0        4.577409    1.866187    1.803525
     30          1           0        4.416814    3.416079    0.960106
     31          6           0        2.047017   -0.266166   -0.828240
     32          6           0        2.094198   -1.779627   -1.040831
     33          6           0        0.854732   -2.314679   -1.758631
     34          1           0        1.148470   -0.012107   -0.249049
     35          1           0        1.942134    0.231397   -1.802085
     36          1           0        2.199173   -2.273637   -0.066382
     37          1           0        2.993114   -2.030899   -1.618263
     38          1           0        0.748784   -1.848683   -2.743630
     39          1           0       -0.049668   -2.092800   -1.182931
     40          1           0        0.909379   -3.398574   -1.900212
 ---------------------------------------------------------------------

 SCF Done:  E(RHF) =  -470.730633688     A.U. after   11 cycles
 E2 =    -0.1586251659D+01 EUMP2 =    -0.47231688534678D+03

 The electronic state is 1-A.
 Alpha  occ. eigenvalues --  -11.21673 -11.21619 -11.21616 -11.21486 -11.21456
 Alpha  occ. eigenvalues --  -11.21394 -11.21376 -11.21285 -11.21098 -11.21082
 Alpha  occ. eigenvalues --  -11.21081 -11.20870  -1.08533  -1.08367  -1.03642
 Alpha  occ. eigenvalues --   -1.03427  -0.96045  -0.95926  -0.87061  -0.86953
 Alpha  occ. eigenvalues --   -0.79706  -0.79531  -0.78476  -0.78065  -0.65279
 Alpha  occ. eigenvalues --   -0.64955  -0.61013  -0.60979  -0.59430  -0.59224
 Alpha  occ. eigenvalues --   -0.57624  -0.57542  -0.55437  -0.55144  -0.52726
 Alpha  occ. eigenvalues --   -0.52620  -0.52457  -0.52374  -0.50129  -0.49811
 Alpha  occ. eigenvalues --   -0.48217  -0.47698  -0.46717  -0.46671  -0.46244
 Alpha  occ. eigenvalues --   -0.45723  -0.45616  -0.44970  -0.43831  -0.43736
 Alpha virt. eigenvalues --    0.20835   0.23026   0.23580   0.24774   0.25214
 Alpha virt. eigenvalues --    0.26302   0.26506   0.28210   0.28483   0.29888
 Alpha virt. eigenvalues --    0.30810   0.31330   0.31555   0.31802   0.32215

 Mulliken charges:
               1
     1  C   -0.296845
     2  C   -0.299859
     3  C   -0.475778
     4  H    0.149800
     5  H    0.149494
     6  H    0.152297
     7  H    0.152362
     8  H    0.155160
     9  H    0.155193
    10  H    0.160427
    11  C   -0.308957
    12  C   -0.299292
    13  C   -0.484075
    14  H    0.152286
    15  H    0.155927
    16  H    0.152233
    17  H    0.151659
    18  H    0.160574
    19  H    0.159046
    20  H    0.160608
    21  C   -0.298595
    22  C   -0.299277
    23  C   -0.475659
    24  H    0.149435
    25  H    0.149996
    26  H    0.150513
    27  H    0.152080
    28  H    0.155390
    29  H    0.155223
    30  H    0.160157
    31  C   -0.308617
    32  C   -0.300345
    33  C   -0.484309
    34  H    0.157460
    35  H    0.149992
    36  H    0.153963
    37  H    0.151780
    38  H    0.153983
    39  H    0.166191
    40  H    0.158380
 Sum of Mulliken charges =  -0.00000

 Dipole moment (field-independent basis, Debye):
    X=             -0.0482    Y=             -0.0005    Z=              0.0201  Tot=              0.0523
 Quadrupole moment (field-independent basis, Debye-Ang):
   XX=            -85.7878   YY=            -84.8575   ZZ=            -84.2952
   XY=              0.6983   XZ=             -0.7405   YZ=             -0.1475

 Normal termination of Gaussian 16 at Wed May  5 19:56:48 2021.
