 Gaussian 16, Revision A.03,
 Gaussian 16:  EM64L-G16RevA.03 25-Dec-2016

 -------------
 #p 6-31g* mp2
 -------------

 ------------------------------------------------------
 Input file generated by CHIRIPA (05-May-2021 14:55:25)
 ------------------------------------------------------
 Symbolic Z-matrix:
 Charge =  0 Multiplicity = 1

                         Standard orientation:
 ---------------------------------------------------------------------
 Center     Atomic      Atomic             Coordinates (Angstroms)
 Number     Number       Type             X           Y           Z
 ---------------------------------------------------------------------
      1          6           0       -3.504676   -2.432124   -0.287175
      2          6           0       -4.713586   -1.728679   -0.302130
      3          6           0       -4.724370   -0.333508   -0.213083
      4          6           0       -3.502299    0.329181   -0.109754
      5          6           0       -2.281378   -0.343376   -0.092219
      6          6           0       -2.294564   -1.738451   -0.182452
      7          1           0       -3.505609   -3.515889   -0.356810
      8          1           0       -5.654892   -2.264764   -0.383366
      9          1           0       -5.645748    0.236049   -0.222334
     10          1           0       -1.359026    0.218733   -0.010255
     11          1           0       -1.354187   -2.282138   -0.170594
     12          7           0       -3.501028    1.806135   -0.014856
     13          8           0       -2.410883    2.366568    0.075345
     14          8           0       -4.590200    2.375372   -0.032474
     15          6           0        3.804692    0.127234    0.419099
     16          6           0        2.791472   -1.005172    0.589472
     17          6           0        1.438911   -0.515241    1.107490
     18          1           0        3.942054    0.635907    1.383116
     19          1           0        3.394902    0.875411   -0.273504
     20          1           0        3.203630   -1.751670    1.280472
     21          1           0        2.656650   -1.511330   -0.375019
     22          1           0        1.002717    0.213387    0.416522
     23          1           0        1.552806   -0.028318    2.081418
     24          1           0        0.729783   -1.341017    1.221906
     25          6           0        5.161731   -0.346783   -0.098089
     26          6           0        6.174952    0.785623   -0.268462
     27          6           0        7.527512    0.295692   -0.786481
     28          1           0        5.571521   -1.094961    0.594513
     29          1           0        5.024369   -0.855457   -1.062105
     30          1           0        6.309773    1.291781    0.696028
     31          1           0        5.762792    1.532120   -0.959462
     32          1           0        7.413616   -0.191231   -1.760408
     33          1           0        7.963705   -0.432936   -0.095512
     34          1           0        8.236639    1.121469   -0.900895
 ---------------------------------------------------------------------

 SCF Done:  E(RHF) =  -669.535301476     A.U. after   15 cycles
 E2 =    -0.2091508319D+01 EUMP2 =    -0.67162680979535D+03

 The electronic state is 1-A.
 Alpha  occ. eigenvalues --  -20.60704 -20.60698 -15.85755 -11.31089 -11.27683
 Alpha  occ. eigenvalues --  -11.27613 -11.27429 -11.26695 -11.26664 -11.22148
 Alpha  occ. eigenvalues --  -11.21839 -11.21740 -11.21690 -11.21597 -11.21185
 Alpha  occ. eigenvalues --   -1.59778  -1.39333  -1.19273  -1.08748  -1.08678
 Alpha  occ. eigenvalues --   -1.04677  -1.03899  -0.96368  -0.95512  -0.87395
 Alpha  occ. eigenvalues --   -0.86076  -0.82346  -0.79975  -0.78523  -0.77388
 Alpha  occ. eigenvalues --   -0.71976  -0.71101  -0.70395  -0.65380  -0.64928
 Alpha  occ. eigenvalues --   -0.64695  -0.62113  -0.61246  -0.59742  -0.57958
 Alpha  occ. eigenvalues --   -0.55667  -0.55165  -0.53131  -0.52984  -0.52948
 Alpha  occ. eigenvalues --   -0.52571  -0.50278  -0.48732  -0.48730  -0.48271
 Alpha  occ. eigenvalues --   -0.46976  -0.46072  -0.45972  -0.44744  -0.44143
 Alpha  occ. eigenvalues --   -0.37266  -0.36270
 Alpha virt. eigenvalues --    0.05129   0.11364   0.16581   0.20194   0.22759
 Alpha virt. eigenvalues --    0.23881   0.25639   0.26378   0.26599   0.27834
 Alpha virt. eigenvalues --    0.28884   0.29829   0.31369   0.31636   0.32446

 Mulliken charges:
               1
     1  C   -0.170659
     2  C   -0.219130
     3  C   -0.170178
     4  C    0.158426
     5  C   -0.176721
     6  C   -0.224682
     7  H    0.225254
     8  H    0.223048
     9  H    0.275300
    10  H    0.286139
    11  H    0.225380
    12  N    0.487399
    13  O   -0.460695
    14  O   -0.460744
    15  C   -0.299560
    16  C   -0.299511
    17  C   -0.485168
    18  H    0.152264
    19  H    0.153111
    20  H    0.153463
    21  H    0.149780
    22  H    0.157972
    23  H    0.164426
    24  H    0.153108
    25  C   -0.298648
    26  C   -0.300179
    27  C   -0.475920
    28  H    0.149393
    29  H    0.149265
    30  H    0.153037
    31  H    0.153577
    32  H    0.155051
    33  H    0.154993
    34  H    0.161406
 Sum of Mulliken charges =  -0.00000

 Dipole moment (field-independent basis, Debye):
    X=              0.1866    Y=             -5.1353    Z=             -0.2930  Tot=              5.1470
 Quadrupole moment (field-independent basis, Debye-Ang):
   XX=            -90.2179   YY=            -98.9761   ZZ=            -94.6884
   XY=             18.7341   XZ=              2.2698   YZ=              0.3101

 Normal termination of Gaussian 16 at Thu May  6 04:49:49 2021.
