 Gaussian 16, Revision A.03,
 Gaussian 16:  EM64L-G16RevA.03 25-Dec-2016

 -------------
 #p 6-31g* mp2
 -------------

 ------------------------------------------------------
 Input file generated by CHIRIPA (05-May-2021 14:53:13)
 ------------------------------------------------------
 Symbolic Z-matrix:
 Charge =  0 Multiplicity = 1

                         Standard orientation:
 ---------------------------------------------------------------------
 Center     Atomic      Atomic             Coordinates (Angstroms)
 Number     Number       Type             X           Y           Z
 ---------------------------------------------------------------------
      1          6           0        5.066346   -0.339653   -0.355675
      2          6           0        5.124791   -1.795143    0.109210
      3          6           0        6.227503   -2.594013   -0.586223
      4          1           0        4.909310   -0.314622   -1.442716
      5          1           0        6.038775    0.136830   -0.169287
      6          1           0        4.152106   -2.268350   -0.076729
      7          1           0        5.281515   -1.816710    1.195299
      8          1           0        7.208058   -2.148060   -0.390675
      9          1           0        6.072231   -2.602266   -1.669931
     10          1           0        6.251393   -3.631670   -0.239010
     11          6           0        3.968961    0.471886    0.330531
     12          6           0        3.910516    1.927376   -0.134354
     13          6           0        2.807805    2.726246    0.561079
     14          1           0        2.996532   -0.004597    0.144143
     15          1           0        4.125997    0.446855    1.417572
     16          1           0        3.753792    1.948943   -1.220443
     17          1           0        4.883202    2.400582    0.051586
     18          1           0        2.963076    2.734498    1.644788
     19          1           0        1.827250    2.280293    0.365532
     20          1           0        2.783915    3.763903    0.213866
     21          6           0       -1.441269    1.361277    0.105698
     22          6           0       -2.505510    1.740079   -0.719180
     23          6           0       -3.667326    0.964833   -0.780214
     24          6           0       -3.731291   -0.188250    0.000552
     25          6           0       -2.687903   -0.592050    0.832163
     26          6           0       -1.535697    0.198471    0.877376
     27          1           0       -0.542476    1.969440    0.146965
     28          1           0       -2.434962    2.642626   -1.319578
     29          1           0       -4.506172    1.234804   -1.410191
     30          1           0       -2.787576   -1.497063    1.419048
     31          1           0       -0.710760   -0.098152    1.518890
     32          7           0       -4.956167   -1.017054   -0.055687
     33          8           0       -4.987743   -2.028440    0.641981
     34          8           0       -5.861456   -0.639592   -0.796369
 ---------------------------------------------------------------------

 SCF Done:  E(RHF) =  -669.535566951     A.U. after   15 cycles
 E2 =    -0.2090835807D+01 EUMP2 =    -0.67162640275814D+03

 The electronic state is 1-A.
 Alpha  occ. eigenvalues --  -20.60741 -20.60736 -15.85794 -11.31156 -11.27726
 Alpha  occ. eigenvalues --  -11.27723 -11.27444 -11.26738 -11.26727 -11.22519
 Alpha  occ. eigenvalues --  -11.22294 -11.22213 -11.22134 -11.22000 -11.21490
 Alpha  occ. eigenvalues --   -1.59816  -1.39370  -1.19328  -1.09175  -1.08722
 Alpha  occ. eigenvalues --   -1.04731  -1.04288  -0.96758  -0.95559  -0.87777
 Alpha  occ. eigenvalues --   -0.86127  -0.82393  -0.80363  -0.78959  -0.77439
 Alpha  occ. eigenvalues --   -0.72012  -0.71140  -0.70456  -0.65803  -0.64979
 Alpha  occ. eigenvalues --   -0.64734  -0.62079  -0.61690  -0.60134  -0.58355
 Alpha  occ. eigenvalues --   -0.56147  -0.55183  -0.53441  -0.53163  -0.53060
 Alpha  occ. eigenvalues --   -0.52821  -0.50694  -0.48774  -0.48768  -0.48668
 Alpha  occ. eigenvalues --   -0.47385  -0.46509  -0.46407  -0.44776  -0.44527
 Alpha  occ. eigenvalues --   -0.37306  -0.36338
 Alpha virt. eigenvalues --    0.05092   0.11311   0.16569   0.19473   0.22464
 Alpha virt. eigenvalues --    0.23778   0.25295   0.26205   0.26686   0.27614
 Alpha virt. eigenvalues --    0.28701   0.30321   0.30898   0.31376   0.32007

 Mulliken charges:
               1
     1  C   -0.298779
     2  C   -0.300261
     3  C   -0.476136
     4  H    0.151108
     5  H    0.151267
     6  H    0.151947
     7  H    0.152261
     8  H    0.155968
     9  H    0.156171
    10  H    0.161993
    11  C   -0.298692
    12  C   -0.299456
    13  C   -0.480821
    14  H    0.145891
    15  H    0.150402
    16  H    0.153862
    17  H    0.156142
    18  H    0.159084
    19  H    0.144984
    20  H    0.163844
    21  C   -0.177987
    22  C   -0.220345
    23  C   -0.170724
    24  C    0.158298
    25  C   -0.170907
    26  C   -0.221948
    27  H    0.237044
    28  H    0.224015
    29  H    0.275437
    30  H    0.275550
    31  H    0.223818
    32  N    0.488002
    33  O   -0.460528
    34  O   -0.460504
 Sum of Mulliken charges =  -0.00000

 Dipole moment (field-independent basis, Debye):
    X=              4.5531    Y=              2.9212    Z=              0.1833  Tot=              5.4128
 Quadrupole moment (field-independent basis, Debye-Ang):
   XX=           -125.9405   YY=            -94.5104   ZZ=            -92.6779
   XY=            -12.4676   XZ=              1.5667   YZ=             -2.5927

 Normal termination of Gaussian 16 at Thu May  6 04:11:14 2021.
