 Gaussian 16, Revision A.03,
 Gaussian 16:  EM64L-G16RevA.03 25-Dec-2016

 -------------
 #p 6-31g* mp2
 -------------

 ------------------------------------------------------
 Input file generated by CHIRIPA (05-May-2021 14:57:22)
 ------------------------------------------------------
 Symbolic Z-matrix:
 Charge =  0 Multiplicity = 1

                         Standard orientation:
 ---------------------------------------------------------------------
 Center     Atomic      Atomic             Coordinates (Angstroms)
 Number     Number       Type             X           Y           Z
 ---------------------------------------------------------------------
      1          6           0        3.422335   -0.004829   -2.114374
      2          6           0        3.424837   -1.244673   -1.466838
      3          6           0        2.985107   -1.355908   -0.144412
      4          6           0        2.547607   -0.201652    0.503335
      5          6           0        2.533087    1.047779   -0.114727
      6          6           0        2.977252    1.135430   -1.437445
      7          1           0        3.765650    0.072420   -3.141780
      8          1           0        3.769944   -2.131895   -1.990081
      9          1           0        2.976432   -2.303273    0.380795
     10          1           0        2.183272    1.914481    0.432882
     11          1           0        2.974196    2.099617   -1.937824
     12          7           0        2.079737   -0.306927    1.903483
     13          8           0        1.699191    0.724939    2.452186
     14          8           0        2.102424   -1.419315    2.425705
     15          6           0       -1.356556    2.365235   -0.237687
     16          6           0       -2.560740    2.244405    0.463640
     17          6           0       -3.271856    1.040781    0.451355
     18          6           0       -2.747319   -0.026543   -0.275947
     19          6           0       -1.550269    0.062691   -0.984748
     20          6           0       -0.856046    1.275912   -0.958372
     21          1           0       -0.810705    3.303967   -0.222671
     22          1           0       -2.951836    3.088724    1.024191
     23          1           0       -4.206487    0.919753    0.985430
     24          1           0       -1.185615   -0.796503   -1.534502
     25          1           0        0.078890    1.366869   -1.503961
     26          7           0       -3.491204   -1.305847   -0.296411
     27          8           0       -3.007802   -2.231356   -0.944789
     28          8           0       -4.543576   -1.358831    0.336315
 ---------------------------------------------------------------------

 SCF Done:  E(RHF) =  -868.336037039     A.U. after   16 cycles
 E2 =    -0.2602902698D+01 EUMP2 =    -0.87093893973625D+03

 The electronic state is 1-A.
 Alpha  occ. eigenvalues --  -20.61245 -20.61229 -20.60570 -20.60557 -15.86304
 Alpha  occ. eigenvalues --  -15.85618 -11.31878 -11.30989 -11.28580 -11.28451
 Alpha  occ. eigenvalues --  -11.28289 -11.27598 -11.27561 -11.27516 -11.27458
 Alpha  occ. eigenvalues --  -11.27340 -11.26564 -11.26532  -1.60307  -1.59637
 Alpha  occ. eigenvalues --   -1.39856  -1.39193  -1.20121  -1.19152  -1.09444
 Alpha  occ. eigenvalues --   -1.08567  -1.05575  -1.04554  -0.96244  -0.95402
 Alpha  occ. eigenvalues --   -0.86919  -0.85980  -0.83081  -0.82233  -0.78092
 Alpha  occ. eigenvalues --   -0.77273  -0.72521  -0.71844  -0.71633  -0.71190
 Alpha  occ. eigenvalues --   -0.70953  -0.70313  -0.65758  -0.65531  -0.64820
 Alpha  occ. eigenvalues --   -0.64625  -0.62879  -0.61941  -0.56004  -0.55151
 Alpha  occ. eigenvalues --   -0.53996  -0.53624  -0.52845  -0.52516  -0.49295
 Alpha  occ. eigenvalues --   -0.49260  -0.48601  -0.48593  -0.45215  -0.44598
 Alpha  occ. eigenvalues --   -0.38156  -0.37420  -0.36935  -0.35982
 Alpha virt. eigenvalues --    0.04433   0.05261   0.10122   0.11783   0.15773
 Alpha virt. eigenvalues --    0.16724   0.20210   0.21970   0.26053   0.27231
 Alpha virt. eigenvalues --    0.27854   0.29105   0.29966   0.31234   0.32418

 Mulliken charges:
               1
     1  C   -0.171090
     2  C   -0.219557
     3  C   -0.169387
     4  C    0.162031
     5  C   -0.173086
     6  C   -0.229472
     7  H    0.228718
     8  H    0.228040
     9  H    0.280727
    10  H    0.273665
    11  H    0.222544
    12  N    0.488881
    13  O   -0.460637
    14  O   -0.455947
    15  C   -0.170335
    16  C   -0.214845
    17  C   -0.169681
    18  C    0.160833
    19  C   -0.175155
    20  C   -0.220786
    21  H    0.220250
    22  H    0.224114
    23  H    0.276145
    24  H    0.273478
    25  H    0.223649
    26  N    0.488492
    27  O   -0.462151
    28  O   -0.459440
 Sum of Mulliken charges =  -0.00000

 Dipole moment (field-independent basis, Debye):
    X=              4.3734    Y=              4.6712    Z=             -4.6821  Tot=              7.9290
 Quadrupole moment (field-independent basis, Debye-Ang):
   XX=           -108.6531   YY=           -100.1485   ZZ=           -109.2762
   XY=            -15.1751   XZ=            -15.4368   YZ=              1.5651

 Normal termination of Gaussian 16 at Thu May  6 04:59:45 2021.
