 Gaussian 16, Revision A.03,
 Gaussian 16:  EM64L-G16RevA.03 25-Dec-2016

 -------------
 #p 6-31g* mp2
 -------------

 ------------------------------------------------------
 Input file generated by CHIRIPA (05-May-2021 14:55:19)
 ------------------------------------------------------
 Symbolic Z-matrix:
 Charge =  0 Multiplicity = 1

                         Standard orientation:
 ---------------------------------------------------------------------
 Center     Atomic      Atomic             Coordinates (Angstroms)
 Number     Number       Type             X           Y           Z
 ---------------------------------------------------------------------
      1          6           0        2.922583   -2.631894   -0.169452
      2          6           0        3.711189   -1.721490   -0.880639
      3          6           0        3.511379   -0.345274   -0.736923
      4          6           0        2.509593    0.087628    0.130436
      5          6           0        1.707511   -0.794512    0.852782
      6          6           0        1.925020   -2.166320    0.693467
      7          1           0        3.084675   -3.699259   -0.287153
      8          1           0        4.486639   -2.080197   -1.551498
      9          1           0        4.107443    0.381517   -1.275348
     10          1           0        0.942192   -0.406761    1.514110
     11          1           0        1.311064   -2.871047    1.247058
     12          7           0        2.288695    1.542232    0.290838
     13          8           0        1.399629    1.898145    1.061244
     14          8           0        3.008804    2.298896   -0.356882
     15          6           0       -3.612281   -0.403592   -0.450274
     16          6           0       -3.665686   -1.629670    0.461792
     17          6           0       -4.375733   -2.818391   -0.186719
     18          1           0       -4.635727   -0.115068   -0.726419
     19          1           0       -3.100408   -0.672379   -1.384691
     20          1           0       -4.176082   -1.358281    1.394777
     21          1           0       -2.642002   -1.915194    0.735953
     22          1           0       -3.864260   -3.117095   -1.107465
     23          1           0       -5.407057   -2.557017   -0.444898
     24          1           0       -4.402503   -3.683931    0.482598
     25          6           0       -2.905479    0.792990    0.184036
     26          6           0       -2.852075    2.019068   -0.728031
     27          6           0       -2.142027    3.207790   -0.079519
     28          1           0       -3.417352    1.061777    1.118453
     29          1           0       -1.882033    0.504466    0.460181
     30          1           0       -3.875758    2.304592   -1.002192
     31          1           0       -2.341678    1.747679   -1.661016
     32          1           0       -1.110703    2.946416    0.178660
     33          1           0       -2.653500    3.506493    0.841227
     34          1           0       -2.115257    4.073329   -0.748836
 ---------------------------------------------------------------------

 SCF Done:  E(RHF) =  -669.536464268     A.U. after   15 cycles
 E2 =    -0.2091663285D+01 EUMP2 =    -0.67162812755276D+03

 The electronic state is 1-A.
 Alpha  occ. eigenvalues --  -20.61013 -20.61007 -15.86029 -11.31333 -11.27892
 Alpha  occ. eigenvalues --  -11.27888 -11.27622 -11.26896 -11.26886 -11.21698
 Alpha  occ. eigenvalues --  -11.21238 -11.21207 -11.21014 -11.20936 -11.19884
 Alpha  occ. eigenvalues --   -1.60063  -1.39620  -1.19498  -1.08905  -1.08158
 Alpha  occ. eigenvalues --   -1.04890  -1.03162  -0.95752  -0.95578  -0.86594
 Alpha  occ. eigenvalues --   -0.86290  -0.82584  -0.79282  -0.77923  -0.77630
 Alpha  occ. eigenvalues --   -0.72252  -0.71373  -0.70604  -0.65154  -0.64896
 Alpha  occ. eigenvalues --   -0.64794  -0.62237  -0.60558  -0.59038  -0.57182
 Alpha  occ. eigenvalues --   -0.55394  -0.54855  -0.53222  -0.52981  -0.52278
 Alpha  occ. eigenvalues --   -0.51990  -0.49551  -0.49014  -0.48977  -0.47563
 Alpha  occ. eigenvalues --   -0.46352  -0.45531  -0.45403  -0.44834  -0.43431
 Alpha  occ. eigenvalues --   -0.37473  -0.36489
 Alpha virt. eigenvalues --    0.04825   0.11124   0.16311   0.20701   0.23020
 Alpha virt. eigenvalues --    0.24624   0.25461   0.27273   0.27671   0.28548
 Alpha virt. eigenvalues --    0.29291   0.30420   0.31731   0.31902   0.32299

 Mulliken charges:
               1
     1  C   -0.170496
     2  C   -0.218498
     3  C   -0.170643
     4  C    0.157965
     5  C   -0.172667
     6  C   -0.218796
     7  H    0.226271
     8  H    0.224015
     9  H    0.275959
    10  H    0.277764
    11  H    0.224399
    12  N    0.488791
    13  O   -0.460579
    14  O   -0.457845
    15  C   -0.297948
    16  C   -0.297290
    17  C   -0.475454
    18  H    0.150200
    19  H    0.148298
    20  H    0.152901
    21  H    0.143471
    22  H    0.154131
    23  H    0.156905
    24  H    0.158007
    25  C   -0.298284
    26  C   -0.298979
    27  C   -0.487029
    28  H    0.149388
    29  H    0.148347
    30  H    0.148450
    31  H    0.149195
    32  H    0.181654
    33  H    0.151041
    34  H    0.157354
 Sum of Mulliken charges =  -0.00000

 Dipole moment (field-independent basis, Debye):
    X=              1.0062    Y=             -5.0578    Z=             -0.5491  Tot=              5.1861
 Quadrupole moment (field-independent basis, Debye-Ang):
   XX=            -88.1523   YY=            -96.8876   ZZ=            -93.3549
   XY=            -12.8713   XZ=             -4.7806   YZ=             -1.4652

 Normal termination of Gaussian 16 at Thu May  6 02:52:40 2021.
