 Gaussian 16, Revision A.03,
 Gaussian 16:  EM64L-G16RevA.03 25-Dec-2016

 -------------
 #p 6-31g* mp2
 -------------

 ------------------------------------------------------
 Input file generated by CHIRIPA (05-May-2021 14:55:22)
 ------------------------------------------------------
 Symbolic Z-matrix:
 Charge =  0 Multiplicity = 1

                         Standard orientation:
 ---------------------------------------------------------------------
 Center     Atomic      Atomic             Coordinates (Angstroms)
 Number     Number       Type             X           Y           Z
 ---------------------------------------------------------------------
      1          6           0       -2.336413    2.411624    0.477757
      2          6           0       -2.772393    1.943433   -0.766124
      3          6           0       -3.087306    0.593233   -0.945951
      4          6           0       -2.954222   -0.264864    0.144575
      5          6           0       -2.522392    0.171271    1.396213
      6          6           0       -2.213021    1.525611    1.553060
      7          1           0       -2.093934    3.462100    0.608525
      8          1           0       -2.869159    2.629241   -1.602992
      9          1           0       -3.427075    0.204007   -1.898043
     10          1           0       -2.435819   -0.536409    2.211757
     11          1           0       -1.874669    1.886409    2.520214
     12          7           0       -3.284672   -1.696452   -0.033636
     13          8           0       -3.159076   -2.432147    0.942897
     14          8           0       -3.663018   -2.055728   -1.146475
     15          6           0        4.422428    0.242467   -0.032709
     16          6           0        5.378075   -0.942417    0.111425
     17          6           0        6.796097   -0.515336    0.491696
     18          1           0        4.815378    0.931975   -0.792390
     19          1           0        4.396875    0.801125    0.913147
     20          1           0        5.400758   -1.499472   -0.833980
     21          1           0        4.982705   -1.629279    0.870714
     22          1           0        6.793896    0.021655    1.445760
     23          1           0        7.214324    0.152200   -0.268621
     24          1           0        7.462568   -1.377962    0.589453
     25          6           0        3.000956   -0.168428   -0.412594
     26          6           0        2.045310    1.016456   -0.556727
     27          6           0        0.627286    0.589376   -0.936998
     28          1           0        3.026508   -0.727085   -1.358449
     29          1           0        2.608005   -0.857935    0.347088
     30          1           0        2.440679    1.703318   -1.316016
     31          1           0        2.022626    1.573511    0.388678
     32          1           0        0.209059   -0.078161   -0.176681
     33          1           0        0.629487    0.052384   -1.891062
     34          1           0       -0.039184    1.452000   -1.034755
 ---------------------------------------------------------------------

 SCF Done:  E(RHF) =  -669.533439447     A.U. after   15 cycles
 E2 =    -0.2094217002D+01 EUMP2 =    -0.67162765644893D+03

 The electronic state is 1-A.
 Alpha  occ. eigenvalues --  -20.60798 -20.60792 -15.85851 -11.31235 -11.27810
 Alpha  occ. eigenvalues --  -11.27784 -11.27524 -11.26828 -11.26785 -11.21679
 Alpha  occ. eigenvalues --  -11.21622 -11.21450 -11.21379 -11.21110 -11.20890
 Alpha  occ. eigenvalues --   -1.59873  -1.39426  -1.19419  -1.08812  -1.08467
 Alpha  occ. eigenvalues --   -1.04822  -1.03554  -0.95995  -0.95637  -0.87020
 Alpha  occ. eigenvalues --   -0.86219  -0.82468  -0.79636  -0.78289  -0.77511
 Alpha  occ. eigenvalues --   -0.72070  -0.71195  -0.70520  -0.65108  -0.65066
 Alpha  occ. eigenvalues --   -0.64824  -0.62164  -0.60974  -0.59453  -0.57643
 Alpha  occ. eigenvalues --   -0.55379  -0.55318  -0.53720  -0.52911  -0.52436
 Alpha  occ. eigenvalues --   -0.52016  -0.49861  -0.48831  -0.48823  -0.47962
 Alpha  occ. eigenvalues --   -0.46655  -0.45823  -0.45759  -0.44826  -0.43803
 Alpha  occ. eigenvalues --   -0.37316  -0.36349
 Alpha virt. eigenvalues --    0.05010   0.11125   0.16497   0.21333   0.22825
 Alpha virt. eigenvalues --    0.24339   0.26577   0.27205   0.27406   0.28015
 Alpha virt. eigenvalues --    0.28280   0.30879   0.31319   0.31814   0.32233

 Mulliken charges:
               1
     1  C   -0.170404
     2  C   -0.220890
     3  C   -0.166127
     4  C    0.162313
     5  C   -0.173641
     6  C   -0.214209
     7  H    0.225927
     8  H    0.223866
     9  H    0.275938
    10  H    0.275653
    11  H    0.223612
    12  N    0.487654
    13  O   -0.460642
    14  O   -0.460028
    15  C   -0.297946
    16  C   -0.299774
    17  C   -0.475661
    18  H    0.148889
    19  H    0.147632
    20  H    0.152881
    21  H    0.152730
    22  H    0.154392
    23  H    0.154800
    24  H    0.160869
    25  C   -0.298432
    26  C   -0.299143
    27  C   -0.479565
    28  H    0.151139
    29  H    0.150694
    30  H    0.149393
    31  H    0.146542
    32  H    0.156412
    33  H    0.153753
    34  H    0.161372
 Sum of Mulliken charges =  -0.00000

 Dipole moment (field-independent basis, Debye):
    X=              1.0200    Y=              5.0258    Z=              0.6344  Tot=              5.1674
 Quadrupole moment (field-independent basis, Debye-Ang):
   XX=           -103.3333   YY=            -97.9733   ZZ=            -89.1407
   XY=            -15.9545   XZ=             -0.8986   YZ=             -0.4652

 Normal termination of Gaussian 16 at Thu May  6 09:24:25 2021.
