 Gaussian 16, Revision A.03,
 Gaussian 16:  EM64L-G16RevA.03 25-Dec-2016

 -------------
 #p 6-31g* mp2
 -------------

 ------------------------------------------------------
 Input file generated by CHIRIPA (05-May-2021 14:51:12)
 ------------------------------------------------------
 Symbolic Z-matrix:
 Charge =  0 Multiplicity = 1

                         Standard orientation:
 ---------------------------------------------------------------------
 Center     Atomic      Atomic             Coordinates (Angstroms)
 Number     Number       Type             X           Y           Z
 ---------------------------------------------------------------------
      1          6           0       -2.662776    0.688206    0.455848
      2          6           0       -1.928404    2.014040    0.253742
      3          6           0       -0.655562    2.118922    1.094375
      4          1           0       -2.913523    0.573647    1.519308
      5          1           0       -1.986166   -0.139924    0.203273
      6          1           0       -2.606643    2.839466    0.505298
      7          1           0       -1.679545    2.125545   -0.809391
      8          1           0        0.042564    1.315418    0.838245
      9          1           0       -0.889801    2.033395    2.160404
     10          1           0       -0.146450    3.074486    0.934488
     11          6           0       -3.937270    0.568389   -0.377840
     12          6           0       -4.671642   -0.757445   -0.175734
     13          6           0       -5.944485   -0.862327   -1.016368
     14          1           0       -4.613881    1.396519   -0.125266
     15          1           0       -3.686523    0.682948   -1.441300
     16          1           0       -4.920501   -0.868950    0.887399
     17          1           0       -3.993404   -1.582871   -0.427290
     18          1           0       -5.710246   -0.776800   -2.082397
     19          1           0       -6.642611   -0.058823   -0.760238
     20          1           0       -6.453596   -1.817891   -0.856481
     21          6           0        2.548885   -0.753426   -0.098712
     22          6           0        2.059054   -1.922514    0.756441
     23          6           0        0.554303   -2.160395    0.626314
     24          1           0        2.005962    0.156831    0.190442
     25          1           0        2.296911   -0.946811   -1.150618
     26          1           0        2.313105   -1.727624    1.806246
     27          1           0        2.603342   -2.830055    0.465348
     28          1           0        0.287416   -2.380014   -0.412502
     29          1           0       -0.004471   -1.271318    0.936014
     30          1           0        0.225611   -3.000574    1.245929
     31          6           0        4.051162   -0.503169    0.020705
     32          6           0        4.540993    0.665918   -0.834448
     33          6           0        6.045743    0.903801   -0.704321
     34          1           0        4.303135   -0.309784    1.072611
     35          1           0        4.594085   -1.413426   -0.268449
     36          1           0        3.996704    1.573460   -0.543356
     37          1           0        4.286941    0.471029   -1.884254
     38          1           0        6.604518    0.014723   -1.014021
     39          1           0        6.312631    1.123419    0.334495
     40          1           0        6.374435    1.743978   -1.323936
 ---------------------------------------------------------------------

 SCF Done:  E(RHF) =  -470.732464823     A.U. after   11 cycles
 E2 =    -0.1584040994D+01 EUMP2 =    -0.47231650581684D+03

 The electronic state is 1-A.
 Alpha  occ. eigenvalues --  -11.21615 -11.21599 -11.21597 -11.21562 -11.21413
 Alpha  occ. eigenvalues --  -11.21362 -11.21354 -11.21297 -11.21093 -11.21068
 Alpha  occ. eigenvalues --  -11.21068 -11.21043  -1.08454  -1.08398  -1.03564
 Alpha  occ. eigenvalues --   -1.03499  -0.96005  -0.95962  -0.87044  -0.86964
 Alpha  occ. eigenvalues --   -0.79684  -0.79524  -0.78327  -0.78151  -0.65185
 Alpha  occ. eigenvalues --   -0.64955  -0.61088  -0.60789  -0.59400  -0.59300
 Alpha  occ. eigenvalues --   -0.57638  -0.57557  -0.55388  -0.55184  -0.52702
 Alpha  occ. eigenvalues --   -0.52668  -0.52525  -0.52299  -0.50058  -0.49825
 Alpha  occ. eigenvalues --   -0.48169  -0.47794  -0.46865  -0.46501  -0.45966
 Alpha  occ. eigenvalues --   -0.45745  -0.45714  -0.45145  -0.43793  -0.43765
 Alpha virt. eigenvalues --    0.21144   0.23023   0.23571   0.24925   0.25913
 Alpha virt. eigenvalues --    0.26028   0.27120   0.27241   0.28535   0.29425
 Alpha virt. eigenvalues --    0.30739   0.31217   0.31775   0.31820   0.31875

 Mulliken charges:
               1
     1  C   -0.305735
     2  C   -0.298707
     3  C   -0.486504
     4  H    0.148960
     5  H    0.157920
     6  H    0.151916
     7  H    0.152005
     8  H    0.164094
     9  H    0.155162
    10  H    0.160321
    11  C   -0.297740
    12  C   -0.299790
    13  C   -0.475694
    14  H    0.149287
    15  H    0.149476
    16  H    0.151836
    17  H    0.152578
    18  H    0.155072
    19  H    0.155051
    20  H    0.160182
    21  C   -0.306956
    22  C   -0.299012
    23  C   -0.484518
    24  H    0.157332
    25  H    0.149111
    26  H    0.152131
    27  H    0.152018
    28  H    0.154095
    29  H    0.164103
    30  H    0.160841
    31  C   -0.297507
    32  C   -0.299850
    33  C   -0.475732
    34  H    0.149746
    35  H    0.149696
    36  H    0.152376
    37  H    0.151760
    38  H    0.155128
    39  H    0.155291
    40  H    0.160253
 Sum of Mulliken charges =  -0.00000

 Dipole moment (field-independent basis, Debye):
    X=              0.0103    Y=             -0.0084    Z=              0.0062  Tot=              0.0147
 Quadrupole moment (field-independent basis, Debye-Ang):
   XX=            -86.5907   YY=            -84.4034   ZZ=            -83.8828
   XY=             -0.8037   XZ=             -1.0281   YZ=              0.6775

 Normal termination of Gaussian 16 at Thu May  6 03:54:00 2021.
