 Gaussian 16, Revision A.03,
 Gaussian 16:  EM64L-G16RevA.03 25-Dec-2016

 -------------
 #p 6-31g* mp2
 -------------

 ------------------------------------------------------
 Input file generated by CHIRIPA (05-May-2021 14:53:14)
 ------------------------------------------------------
 Symbolic Z-matrix:
 Charge =  0 Multiplicity = 1

                         Standard orientation:
 ---------------------------------------------------------------------
 Center     Atomic      Atomic             Coordinates (Angstroms)
 Number     Number       Type             X           Y           Z
 ---------------------------------------------------------------------
      1          6           0        2.641465   -0.476356    0.195326
      2          6           0        1.948355   -0.851983    1.505474
      3          6           0        0.501086   -1.300788    1.301070
      4          1           0        2.073329    0.325439   -0.295889
      5          1           0        2.616684   -1.338940   -0.484917
      6          1           0        1.975656    0.010611    2.183561
      7          1           0        2.518313   -1.652845    1.993721
      8          1           0        0.458235   -2.176269    0.645099
      9          1           0       -0.087505   -0.503362    0.836018
     10          1           0        0.024664   -1.564554    2.250443
     11          6           0        4.088952   -0.025604    0.383294
     12          6           0        4.782061    0.350024   -0.926854
     13          6           0        6.229330    0.798828   -0.722450
     14          1           0        4.113732    0.836980    1.063537
     15          1           0        4.657088   -0.827398    0.874509
     16          1           0        4.212103    1.150885   -1.415101
     17          1           0        4.754760   -0.512571   -1.604941
     18          1           0        6.817921    0.001402   -0.257398
     19          1           0        6.272181    1.674309   -0.066479
     20          1           0        6.705752    1.062594   -1.671823
     21          6           0       -2.615013    2.616200    0.487233
     22          6           0       -2.757652    1.605413    1.443520
     23          6           0       -2.766816    0.261097    1.059752
     24          6           0       -2.630428   -0.037890   -0.294978
     25          6           0       -2.486586    0.946524   -1.271466
     26          6           0       -2.480173    2.284115   -0.864824
     27          1           0       -2.608963    3.657886    0.794237
     28          1           0       -2.862560    1.860367    2.494252
     29          1           0       -2.875719   -0.541413    1.779152
     30          1           0       -2.384000    0.661307   -2.311440
     31          1           0       -2.369238    3.067010   -1.609683
     32          7           0       -2.638673   -1.457498   -0.713364
     33          8           0       -2.516834   -1.694678   -1.913171
     34          8           0       -2.766818   -2.306126    0.166435
 ---------------------------------------------------------------------

 SCF Done:  E(RHF) =  -669.534138227     A.U. after   15 cycles
 E2 =    -0.2093660105D+01 EUMP2 =    -0.67162779833170D+03

 The electronic state is 1-A.
 Alpha  occ. eigenvalues --  -20.60791 -20.60763 -15.85804 -11.31148 -11.27780
 Alpha  occ. eigenvalues --  -11.27735 -11.27531 -11.26786 -11.26769 -11.21543
 Alpha  occ. eigenvalues --  -11.21390 -11.21298 -11.21203 -11.21044 -11.20657
 Alpha  occ. eigenvalues --   -1.59836  -1.39391  -1.19386  -1.08770  -1.08298
 Alpha  occ. eigenvalues --   -1.04786  -1.03381  -0.95838  -0.95591  -0.86868
 Alpha  occ. eigenvalues --   -0.86164  -0.82431  -0.79469  -0.78120  -0.77467
 Alpha  occ. eigenvalues --   -0.72038  -0.71151  -0.70486  -0.65027  -0.64935
 Alpha  occ. eigenvalues --   -0.64780  -0.62127  -0.60802  -0.59199  -0.57456
 Alpha  occ. eigenvalues --   -0.55322  -0.55202  -0.53220  -0.52881  -0.52487
 Alpha  occ. eigenvalues --   -0.52158  -0.49711  -0.48799  -0.48793  -0.47769
 Alpha  occ. eigenvalues --   -0.46482  -0.45673  -0.45578  -0.44755  -0.43621
 Alpha  occ. eigenvalues --   -0.37300  -0.36345
 Alpha virt. eigenvalues --    0.05042   0.11253   0.16525   0.21324   0.22987
 Alpha virt. eigenvalues --    0.24420   0.26777   0.26971   0.27620   0.27804
 Alpha virt. eigenvalues --    0.28578   0.30653   0.31547   0.31655   0.31970

 Mulliken charges:
               1
     1  C   -0.298559
     2  C   -0.299378
     3  C   -0.482548
     4  H    0.147179
     5  H    0.153139
     6  H    0.147043
     7  H    0.152367
     8  H    0.166725
     9  H    0.154857
    10  H    0.157106
    11  C   -0.297926
    12  C   -0.299403
    13  C   -0.475563
    14  H    0.147358
    15  H    0.150278
    16  H    0.150105
    17  H    0.153557
    18  H    0.155707
    19  H    0.153950
    20  H    0.159954
    21  C   -0.171159
    22  C   -0.217018
    23  C   -0.170666
    24  C    0.157212
    25  C   -0.171975
    26  C   -0.218790
    27  H    0.225646
    28  H    0.223555
    29  H    0.276302
    30  H    0.275824
    31  H    0.223426
    32  N    0.491729
    33  O   -0.460755
    34  O   -0.459277
 Sum of Mulliken charges =  -0.00000

 Dipole moment (field-independent basis, Debye):
    X=             -0.0545    Y=              4.9092    Z=              1.4403  Tot=              5.1164
 Quadrupole moment (field-independent basis, Debye-Ang):
   XX=            -96.9246   YY=            -94.3396   ZZ=            -91.2658
   XY=            -13.8950   XZ=             -4.7418   YZ=             -2.9328

 Normal termination of Gaussian 16 at Thu May  6 15:26:46 2021.
