 Gaussian 16, Revision A.03,
 Gaussian 16:  EM64L-G16RevA.03 25-Dec-2016

 -------------
 #p 6-31g* mp2
 -------------

 ------------------------------------------------------
 Input file generated by CHIRIPA (05-May-2021 14:53:14)
 ------------------------------------------------------
 Symbolic Z-matrix:
 Charge =  0 Multiplicity = 1

                         Standard orientation:
 ---------------------------------------------------------------------
 Center     Atomic      Atomic             Coordinates (Angstroms)
 Number     Number       Type             X           Y           Z
 ---------------------------------------------------------------------
      1          6           0       -3.902530    0.252814    0.108435
      2          6           0       -3.208008    1.610946    0.003075
      3          6           0       -1.738857    1.557796    0.423271
      4          1           0       -3.828367   -0.110562    1.142555
      5          1           0       -3.367233   -0.474483   -0.517578
      6          1           0       -3.745273    2.335798    0.628017
      7          1           0       -3.284000    1.971220   -1.030871
      8          1           0       -1.183093    0.855915   -0.206881
      9          1           0       -1.646987    1.222564    1.461433
     10          1           0       -1.261779    2.539304    0.340219
     11          6           0       -5.371796    0.289791   -0.308238
     12          6           0       -6.066318   -1.068341   -0.202878
     13          6           0       -7.535468   -1.015190   -0.623074
     14          1           0       -5.907093    1.017088    0.317774
     15          1           0       -5.445959    0.653167   -1.342358
     16          1           0       -5.990326   -1.428614    0.831068
     17          1           0       -5.529052   -1.793193   -0.827820
     18          1           0       -7.627338   -0.679959   -1.661236
     19          1           0       -8.091233   -0.313309    0.007077
     20          1           0       -8.012547   -1.996699   -0.540022
     21          6           0        1.321489   -0.530691    1.062108
     22          6           0        1.784687    0.755789    0.767255
     23          6           0        3.058063    0.944267    0.221786
     24          6           0        3.845264   -0.181141   -0.017087
     25          6           0        3.412078   -1.475576    0.265890
     26          6           0        2.135228   -1.640311    0.810927
     27          1           0        0.330950   -0.667883    1.485673
     28          1           0        1.154904    1.619373    0.961272
     29          1           0        3.441635    1.929025   -0.016000
     30          1           0        4.062825   -2.317078    0.061391
     31          1           0        1.778120   -2.640582    1.038915
     32          7           0        5.195170    0.005824   -0.594321
     33          8           0        5.869319   -1.002007   -0.795403
     34          8           0        5.553514    1.156660   -0.834747
 ---------------------------------------------------------------------

 SCF Done:  E(RHF) =  -669.534990253     A.U. after   15 cycles
 E2 =    -0.2092005399D+01 EUMP2 =    -0.67162699565273D+03

 The electronic state is 1-A.
 Alpha  occ. eigenvalues --  -20.60691 -20.60686 -15.85743 -11.31085 -11.27652
 Alpha  occ. eigenvalues --  -11.27627 -11.27330 -11.26659 -11.26577 -11.22556
 Alpha  occ. eigenvalues --  -11.22382 -11.22239 -11.22175 -11.22030 -11.21537
 Alpha  occ. eigenvalues --   -1.59767  -1.39321  -1.19249  -1.09215  -1.08644
 Alpha  occ. eigenvalues --   -1.04654  -1.04341  -0.96842  -0.95481  -0.87889
 Alpha  occ. eigenvalues --   -0.86027  -0.82317  -0.80444  -0.78995  -0.77367
 Alpha  occ. eigenvalues --   -0.71961  -0.71090  -0.70350  -0.65834  -0.64896
 Alpha  occ. eigenvalues --   -0.64652  -0.62013  -0.61732  -0.60218  -0.58422
 Alpha  occ. eigenvalues --   -0.56126  -0.55148  -0.53617  -0.53286  -0.52919
 Alpha  occ. eigenvalues --   -0.52637  -0.50759  -0.48745  -0.48717  -0.48698
 Alpha  occ. eigenvalues --   -0.47432  -0.46544  -0.46435  -0.44732  -0.44583
 Alpha  occ. eigenvalues --   -0.37201  -0.36245
 Alpha virt. eigenvalues --    0.05142   0.11334   0.16623   0.20439   0.22254
 Alpha virt. eigenvalues --    0.23758   0.25666   0.26099   0.26349   0.27617
 Alpha virt. eigenvalues --    0.29260   0.29635   0.30921   0.31616   0.32240

 Mulliken charges:
               1
     1  C   -0.299652
     2  C   -0.299992
     3  C   -0.486639
     4  H    0.147657
     5  H    0.149697
     6  H    0.155029
     7  H    0.156651
     8  H    0.161537
     9  H    0.149673
    10  H    0.160438
    11  C   -0.298873
    12  C   -0.300163
    13  C   -0.476135
    14  H    0.151020
    15  H    0.151781
    16  H    0.151656
    17  H    0.152284
    18  H    0.156370
    19  H    0.155997
    20  H    0.161638
    21  C   -0.173899
    22  C   -0.220604
    23  C   -0.172479
    24  C    0.158482
    25  C   -0.171417
    26  C   -0.219274
    27  H    0.228319
    28  H    0.231284
    29  H    0.275118
    30  H    0.275062
    31  H    0.222886
    32  N    0.488051
    33  O   -0.460792
    34  O   -0.460710
 Sum of Mulliken charges =  -0.00000

 Dipole moment (field-independent basis, Debye):
    X=             -5.0184    Y=             -0.6213    Z=              1.9717  Tot=              5.4275
 Quadrupole moment (field-independent basis, Debye-Ang):
   XX=           -132.3496   YY=            -89.5338   ZZ=            -94.8600
   XY=             -2.7499   XZ=              7.6152   YZ=             -0.3580

 Normal termination of Gaussian 16 at Thu May  6 20:22:19 2021.
