 Gaussian 16, Revision A.03,
 Gaussian 16:  EM64L-G16RevA.03 25-Dec-2016

 -------------
 #p 6-31g* mp2
 -------------

 ------------------------------------------------------
 Input file generated by CHIRIPA (05-May-2021 14:53:13)
 ------------------------------------------------------
 Symbolic Z-matrix:
 Charge =  0 Multiplicity = 1

                         Standard orientation:
 ---------------------------------------------------------------------
 Center     Atomic      Atomic             Coordinates (Angstroms)
 Number     Number       Type             X           Y           Z
 ---------------------------------------------------------------------
      1          6           0        2.974307    0.824002    0.081557
      2          6           0        2.881895    2.198850    0.744307
      3          6           0        1.453307    2.742516    0.781158
      4          1           0        2.578998    0.889786   -0.941355
      5          1           0        2.326838    0.119801    0.622186
      6          1           0        3.530413    2.899914    0.203427
      7          1           0        3.277647    2.129829    1.765694
      8          1           0        0.797736    2.065528    1.338396
      9          1           0        1.051938    2.839988   -0.232747
     10          1           0        1.410303    3.726184    1.259077
     11          6           0        4.396190    0.267220    0.037156
     12          6           0        4.488601   -1.107628   -0.625594
     13          6           0        5.917189   -1.651294   -0.662445
     14          1           0        5.043659    0.971421   -0.503474
     15          1           0        4.791499    0.201436    1.060067
     16          1           0        4.092849   -1.038607   -1.646982
     17          1           0        3.840084   -1.808692   -0.084715
     18          1           0        6.318558   -1.748766    0.351460
     19          1           0        6.572760   -0.974306   -1.219684
     20          1           0        5.960194   -2.634962   -1.140365
     21          6           0       -0.868690   -1.826553    0.556414
     22          6           0       -0.709013   -0.663195   -0.203600
     23          6           0       -1.815842    0.120366   -0.543468
     24          6           0       -3.073459   -0.290883   -0.104647
     25          6           0       -3.264946   -1.444715    0.653835
     26          6           0       -2.143899   -2.212919    0.981955
     27          1           0       -0.003356   -2.429276    0.815870
     28          1           0        0.280137   -0.360704   -0.535453
     29          1           0       -1.720812    1.025633   -1.130733
     30          1           0       -4.263557   -1.720618    0.970176
     31          1           0       -2.270902   -3.115914    1.572309
     32          7           0       -4.252735    0.530508   -0.458232
     33          8           0       -5.350080    0.146555   -0.059417
     34          8           0       -4.057379    1.542715   -1.127494
 ---------------------------------------------------------------------

 SCF Done:  E(RHF) =  -669.535388035     A.U. after   15 cycles
 E2 =    -0.2092358546D+01 EUMP2 =    -0.67162774658125D+03

 The electronic state is 1-A.
 Alpha  occ. eigenvalues --  -20.60696 -20.60690 -15.85747 -11.31100 -11.27671
 Alpha  occ. eigenvalues --  -11.27640 -11.27401 -11.26694 -11.26572 -11.22505
 Alpha  occ. eigenvalues --  -11.22497 -11.22372 -11.22250 -11.21778 -11.21734
 Alpha  occ. eigenvalues --   -1.59771  -1.39325  -1.19266  -1.09352  -1.08665
 Alpha  occ. eigenvalues --   -1.04665  -1.04332  -0.96784  -0.95504  -0.87798
 Alpha  occ. eigenvalues --   -0.86065  -0.82339  -0.80408  -0.79248  -0.77362
 Alpha  occ. eigenvalues --   -0.71966  -0.71093  -0.70382  -0.65980  -0.64914
 Alpha  occ. eigenvalues --   -0.64664  -0.62029  -0.61716  -0.60139  -0.58411
 Alpha  occ. eigenvalues --   -0.56066  -0.55174  -0.53432  -0.53297  -0.52995
 Alpha  occ. eigenvalues --   -0.52682  -0.50721  -0.48767  -0.48722  -0.48665
 Alpha  occ. eigenvalues --   -0.47439  -0.46678  -0.46652  -0.44733  -0.44623
 Alpha  occ. eigenvalues --   -0.37251  -0.36244
 Alpha virt. eigenvalues --    0.05132   0.11304   0.16578   0.20114   0.22503
 Alpha virt. eigenvalues --    0.23387   0.24892   0.25525   0.26700   0.28713
 Alpha virt. eigenvalues --    0.29510   0.29987   0.30827   0.31275   0.31523

 Mulliken charges:
               1
     1  C   -0.305518
     2  C   -0.299121
     3  C   -0.480177
     4  H    0.147058
     5  H    0.144798
     6  H    0.155575
     7  H    0.154863
     8  H    0.158284
     9  H    0.152214
    10  H    0.166302
    11  C   -0.297373
    12  C   -0.300079
    13  C   -0.476071
    14  H    0.153659
    15  H    0.152423
    16  H    0.152380
    17  H    0.145863
    18  H    0.156621
    19  H    0.157885
    20  H    0.161847
    21  C   -0.174817
    22  C   -0.224216
    23  C   -0.173432
    24  C    0.158748
    25  C   -0.171495
    26  C   -0.218287
    27  H    0.224985
    28  H    0.236401
    29  H    0.275772
    30  H    0.275214
    31  H    0.222878
    32  N    0.488087
    33  O   -0.460823
    34  O   -0.460448
 Sum of Mulliken charges =  -0.00000

 Dipole moment (field-independent basis, Debye):
    X=              4.3946    Y=             -2.7789    Z=              1.2814  Tot=              5.3551
 Quadrupole moment (field-independent basis, Debye-Ang):
   XX=           -119.0188   YY=            -91.2082   ZZ=            -93.6039
   XY=             10.6821   XZ=             -5.9595   YZ=             -2.2075

 Normal termination of Gaussian 16 at Thu May  6 10:28:48 2021.
