 Gaussian 16, Revision A.03,
 Gaussian 16:  EM64L-G16RevA.03 25-Dec-2016

 -------------
 #p 6-31g* mp2
 -------------

 ------------------------------------------------------
 Input file generated by CHIRIPA (05-May-2021 14:57:26)
 ------------------------------------------------------
 Symbolic Z-matrix:
 Charge =  0 Multiplicity = 1

                         Standard orientation:
 ---------------------------------------------------------------------
 Center     Atomic      Atomic             Coordinates (Angstroms)
 Number     Number       Type             X           Y           Z
 ---------------------------------------------------------------------
      1          6           0       -2.477682   -2.363511    0.466705
      2          6           0       -1.960613   -1.790571   -0.699872
      3          6           0       -2.117796   -0.424036   -0.949718
      4          6           0       -2.800530    0.343406   -0.007276
      5          6           0       -3.327149   -0.198098    1.164362
      6          6           0       -3.158100   -1.566850    1.393465
      7          1           0       -2.350970   -3.425929    0.652734
      8          1           0       -1.431745   -2.406837   -1.421371
      9          1           0       -1.727602    0.045394   -1.844593
     10          1           0       -3.849656    0.441848    1.864985
     11          1           0       -3.560722   -2.009090    2.300308
     12          7           0       -2.973214    1.791269   -0.260797
     13          8           0       -3.578667    2.445755    0.585200
     14          8           0       -2.499840    2.244203   -1.300704
     15          6           0        3.757314    2.088115    0.731278
     16          6           0        3.213329    1.975407   -0.552428
     17          6           0        2.664738    0.765269   -0.987353
     18          6           0        2.676820   -0.316782   -0.108540
     19          6           0        3.211381   -0.235930    1.176371
     20          6           0        3.754609    0.984033    1.590066
     21          1           0        4.181388    3.031995    1.060892
     22          1           0        3.214063    2.831190   -1.221518
     23          1           0        2.237053    0.650271   -1.975927
     24          1           0        3.196248   -1.106532    1.820763
     25          1           0        4.176387    1.068656    2.587556
     26          7           0        2.098891   -1.603102   -0.557738
     27          8           0        2.121693   -2.541601    0.235569
     28          8           0        1.634051   -1.648464   -1.694621
 ---------------------------------------------------------------------

 SCF Done:  E(RHF) =  -868.340815165     A.U. after   16 cycles
 E2 =    -0.2599057236D+01 EUMP2 =    -0.87093987240093D+03

 The electronic state is 1-A.
 Alpha  occ. eigenvalues --  -20.61377 -20.61352 -20.60446 -20.60438 -15.86384
 Alpha  occ. eigenvalues --  -15.85485 -11.31415 -11.30596 -11.27957 -11.27927
 Alpha  occ. eigenvalues --  -11.27612 -11.27156 -11.27036 -11.26900 -11.26846
 Alpha  occ. eigenvalues --  -11.26724 -11.26128 -11.25857  -1.60426  -1.59525
 Alpha  occ. eigenvalues --   -1.39992  -1.39086  -1.19552  -1.18718  -1.09009
 Alpha  occ. eigenvalues --   -1.08147  -1.04904  -1.04056  -0.95903  -0.95033
 Alpha  occ. eigenvalues --   -0.86320  -0.85458  -0.82751  -0.81860  -0.77835
 Alpha  occ. eigenvalues --   -0.76953  -0.72628  -0.71720  -0.71710  -0.70846
 Alpha  occ. eigenvalues --   -0.70660  -0.69796  -0.65210  -0.64905  -0.64346
 Alpha  occ. eigenvalues --   -0.64005  -0.62260  -0.61388  -0.55417  -0.54536
 Alpha  occ. eigenvalues --   -0.53248  -0.52993  -0.52434  -0.52107  -0.49391
 Alpha  occ. eigenvalues --   -0.49351  -0.48480  -0.48437  -0.45471  -0.44549
 Alpha  occ. eigenvalues --   -0.37508  -0.36673  -0.36486  -0.35657
 Alpha virt. eigenvalues --    0.04657   0.05533   0.11160   0.11997   0.16218
 Alpha virt. eigenvalues --    0.17114   0.21289   0.22300   0.27170   0.27825
 Alpha virt. eigenvalues --    0.28552   0.29070   0.30969   0.31890   0.32278

 Mulliken charges:
               1
     1  C   -0.170073
     2  C   -0.219433
     3  C   -0.176003
     4  C    0.157563
     5  C   -0.173633
     6  C   -0.219279
     7  H    0.228616
     8  H    0.241753
     9  H    0.274477
    10  H    0.272061
    11  H    0.220824
    12  N    0.488238
    13  O   -0.463009
    14  O   -0.464145
    15  C   -0.169364
    16  C   -0.216922
    17  C   -0.169766
    18  C    0.158305
    19  C   -0.170754
    20  C   -0.218432
    21  H    0.227905
    22  H    0.227536
    23  H    0.275067
    24  H    0.274162
    25  H    0.224068
    26  N    0.490139
    27  O   -0.461366
    28  O   -0.468533
 Sum of Mulliken charges =  -0.00000

 Dipole moment (field-independent basis, Debye):
    X=              2.9156    Y=             -0.6494    Z=              2.4307  Tot=              3.8511
 Quadrupole moment (field-independent basis, Debye-Ang):
   XX=            -97.5246   YY=           -111.0180   ZZ=            -97.9322
   XY=             26.4090   XZ=              0.5612   YZ=             -2.1739

 Normal termination of Gaussian 16 at Thu May  6 16:26:42 2021.
