 Gaussian 16, Revision A.03,
 Gaussian 16:  EM64L-G16RevA.03 25-Dec-2016

 -------------
 #p 6-31g* mp2
 -------------

 ------------------------------------------------------
 Input file generated by CHIRIPA (05-May-2021 14:51:08)
 ------------------------------------------------------
 Symbolic Z-matrix:
 Charge =  0 Multiplicity = 1

                         Standard orientation:
 ---------------------------------------------------------------------
 Center     Atomic      Atomic             Coordinates (Angstroms)
 Number     Number       Type             X           Y           Z
 ---------------------------------------------------------------------
      1          6           0       -4.031422    0.119149    0.057093
      2          6           0       -4.065451    1.647677    0.036351
      3          6           0       -5.453120    2.212283    0.341948
      4          1           0       -4.755143   -0.267329   -0.673528
      5          1           0       -4.363298   -0.234705    1.043014
      6          1           0       -3.732289    1.998578   -0.948782
      7          1           0       -3.341427    2.030562    0.766970
      8          1           0       -5.790334    1.890541    1.332589
      9          1           0       -6.183416    1.858375   -0.392912
     10          1           0       -5.454650    3.306566    0.321897
     11          6           0       -2.650918   -0.460256   -0.246595
     12          6           0       -2.616888   -1.988784   -0.225853
     13          6           0       -1.229219   -2.553389   -0.531450
     14          1           0       -2.319041   -0.106401   -1.232516
     15          1           0       -1.927196   -0.073778    0.484025
     16          1           0       -3.340912   -2.371669   -0.956472
     17          1           0       -2.950051   -2.339685    0.759280
     18          1           0       -0.498923   -2.199481    0.203409
     19          1           0       -0.892006   -2.231648   -1.522091
     20          1           0       -1.227690   -3.647673   -0.511399
     21          6           0        3.364860   -0.554784   -0.143487
     22          6           0        2.597055   -1.516481    0.764037
     23          6           0        2.653724   -2.963795    0.274277
     24          1           0        2.955404   -0.615309   -1.161145
     25          1           0        4.412384   -0.880213   -0.208171
     26          1           0        1.551604   -1.188540    0.828097
     27          1           0        3.008260   -1.453518    1.779696
     28          1           0        3.689829   -3.314362    0.227472
     29          1           0        2.224897   -3.047879   -0.729534
     30          1           0        2.098398   -3.634147    0.937679
     31          6           0        3.317480    0.895890    0.332989
     32          6           0        4.085285    1.857587   -0.574535
     33          6           0        4.028615    3.304901   -0.084775
     34          1           0        2.269955    1.221319    0.397674
     35          1           0        3.726935    0.956416    1.350647
     36          1           0        3.674080    1.794625   -1.590194
     37          1           0        5.130736    1.529646   -0.638594
     38          1           0        4.457443    3.388985    0.919036
     39          1           0        2.992510    3.655469   -0.037970
     40          1           0        4.583942    3.975253   -0.748176
 ---------------------------------------------------------------------

 SCF Done:  E(RHF) =  -470.733098868     A.U. after   11 cycles
 E2 =    -0.1582977215D+01 EUMP2 =    -0.47231607608312D+03

 The electronic state is 1-A.
 Alpha  occ. eigenvalues --  -11.21625 -11.21613 -11.21584 -11.21560 -11.21436
 Alpha  occ. eigenvalues --  -11.21378 -11.21376 -11.21318 -11.21088 -11.21058
 Alpha  occ. eigenvalues --  -11.21050 -11.20991  -1.08458  -1.08399  -1.03569
 Alpha  occ. eigenvalues --   -1.03478  -0.96031  -0.95910  -0.87032  -0.86940
 Alpha  occ. eigenvalues --   -0.79621  -0.79558  -0.78281  -0.78209  -0.65131
 Alpha  occ. eigenvalues --   -0.65001  -0.61092  -0.60788  -0.59363  -0.59317
 Alpha  occ. eigenvalues --   -0.57642  -0.57526  -0.55390  -0.55126  -0.52712
 Alpha  occ. eigenvalues --   -0.52607  -0.52406  -0.52363  -0.49954  -0.49867
 Alpha  occ. eigenvalues --   -0.48025  -0.47795  -0.46773  -0.46478  -0.45887
 Alpha  occ. eigenvalues --   -0.45758  -0.45729  -0.45540  -0.43812  -0.43740
 Alpha virt. eigenvalues --    0.21298   0.23074   0.23593   0.24814   0.25834
 Alpha virt. eigenvalues --    0.26579   0.27258   0.27436   0.28169   0.29136
 Alpha virt. eigenvalues --    0.30339   0.31219   0.31624   0.32071   0.32201

 Mulliken charges:
               1
     1  C   -0.298238
     2  C   -0.299694
     3  C   -0.475723
     4  H    0.149828
     5  H    0.149685
     6  H    0.151828
     7  H    0.151919
     8  H    0.155270
     9  H    0.155225
    10  H    0.160322
    11  C   -0.298365
    12  C   -0.300020
    13  C   -0.481847
    14  H    0.149273
    15  H    0.148868
    16  H    0.151927
    17  H    0.151949
    18  H    0.163445
    19  H    0.153992
    20  H    0.160776
    21  C   -0.297785
    22  C   -0.304607
    23  C   -0.476137
    24  H    0.149918
    25  H    0.149452
    26  H    0.154863
    27  H    0.151637
    28  H    0.154613
    29  H    0.157909
    30  H    0.160091
    31  C   -0.298469
    32  C   -0.299609
    33  C   -0.475727
    34  H    0.149626
    35  H    0.149452
    36  H    0.151966
    37  H    0.151884
    38  H    0.155088
    39  H    0.155224
    40  H    0.160190
 Sum of Mulliken charges =  -0.00000

 Dipole moment (field-independent basis, Debye):
    X=             -0.0074    Y=             -0.0156    Z=             -0.0051  Tot=              0.0180
 Quadrupole moment (field-independent basis, Debye-Ang):
   XX=            -84.9566   YY=            -86.2504   ZZ=            -83.5748
   XY=              0.3248   XZ=              0.8416   YZ=             -0.4203

 Normal termination of Gaussian 16 at Thu May  6 05:16:11 2021.
