 Gaussian 16, Revision A.03,
 Gaussian 16:  EM64L-G16RevA.03 25-Dec-2016

 -------------
 #p 6-31g* mp2
 -------------

 ------------------------------------------------------
 Input file generated by CHIRIPA (05-May-2021 14:51:14)
 ------------------------------------------------------
 Symbolic Z-matrix:
 Charge =  0 Multiplicity = 1

                         Standard orientation:
 ---------------------------------------------------------------------
 Center     Atomic      Atomic             Coordinates (Angstroms)
 Number     Number       Type             X           Y           Z
 ---------------------------------------------------------------------
      1          6           0        5.398235    0.038907   -0.464012
      2          6           0        6.187671   -1.058941    0.249785
      3          6           0        7.531189   -1.351081   -0.419101
      4          1           0        5.232502   -0.257688   -1.508765
      5          1           0        6.002322    0.956356   -0.491613
      6          1           0        5.581724   -1.973647    0.277252
      7          1           0        6.351378   -0.759783    1.293011
      8          1           0        8.157790   -0.453431   -0.433170
      9          1           0        7.383762   -1.674192   -1.454700
     10          1           0        8.078886   -2.138920    0.107395
     11          6           0        4.052807    0.342295    0.192881
     12          6           0        3.263370    1.440143   -0.520916
     13          6           0        1.919853    1.732283    0.147970
     14          1           0        3.448720   -0.575154    0.220482
     15          1           0        4.218540    0.638890    1.237634
     16          1           0        3.099664    1.140985   -1.564142
     17          1           0        3.869318    2.354850   -0.548384
     18          1           0        2.067280    2.055394    1.183569
     19          1           0        1.293252    0.834633    0.162039
     20          1           0        1.372156    2.520122   -0.378526
     21          6           0       -4.125892   -0.461879    0.523233
     22          6           0       -2.895883    0.443405    0.448923
     23          6           0       -1.704518   -0.112768    1.229381
     24          1           0       -4.407951   -0.600841    1.575885
     25          1           0       -3.864555   -1.456345    0.135762
     26          1           0       -3.159839    1.436272    0.835135
     27          1           0       -2.616834    0.580385   -0.603686
     28          1           0       -1.413208   -1.093773    0.840321
     29          1           0       -1.959299   -0.233023    2.287315
     30          1           0       -0.836183    0.550118    1.162767
     31          6           0       -5.325149    0.080677   -0.252102
     32          6           0       -6.555159   -0.824608   -0.177791
     33          6           0       -7.746524   -0.268434   -0.958249
     34          1           0       -5.586487    1.075142    0.135369
     35          1           0       -5.043090    0.219640   -1.304754
     36          1           0       -6.834208   -0.961587    0.874817
     37          1           0       -6.291203   -1.817474   -0.564003
     38          1           0       -7.491743   -0.148179   -2.016184
     39          1           0       -8.037833    0.712571   -0.569189
     40          1           0       -8.614858   -0.931320   -0.891635
 ---------------------------------------------------------------------

 SCF Done:  E(RHF) =  -470.733199584     A.U. after   11 cycles
 E2 =    -0.1582189911D+01 EUMP2 =    -0.47231538949480D+03

 The electronic state is 1-A.
 Alpha  occ. eigenvalues --  -11.21603 -11.21596 -11.21584 -11.21555 -11.21399
 Alpha  occ. eigenvalues --  -11.21376 -11.21340 -11.21316 -11.21067 -11.21063
 Alpha  occ. eigenvalues --  -11.21058 -11.20976  -1.08427  -1.08398  -1.03538
 Alpha  occ. eigenvalues --   -1.03486  -0.96011  -0.95917  -0.87055  -0.86911
 Alpha  occ. eigenvalues --   -0.79631  -0.79524  -0.78239  -0.78211  -0.65060
 Alpha  occ. eigenvalues --   -0.65027  -0.60958  -0.60878  -0.59347  -0.59337
 Alpha  occ. eigenvalues --   -0.57679  -0.57479  -0.55307  -0.55198  -0.52854
 Alpha  occ. eigenvalues --   -0.52634  -0.52420  -0.52187  -0.49945  -0.49845
 Alpha  occ. eigenvalues --   -0.47989  -0.47784  -0.46632  -0.46578  -0.45783
 Alpha  occ. eigenvalues --   -0.45751  -0.45703  -0.45680  -0.43799  -0.43698
 Alpha virt. eigenvalues --    0.22486   0.22968   0.23620   0.24689   0.26529
 Alpha virt. eigenvalues --    0.26705   0.26845   0.27504   0.27655   0.28852
 Alpha virt. eigenvalues --    0.30698   0.31417   0.31522   0.31769   0.32078

 Mulliken charges:
               1
     1  C   -0.298296
     2  C   -0.299652
     3  C   -0.475704
     4  H    0.149589
     5  H    0.149507
     6  H    0.151979
     7  H    0.151981
     8  H    0.155168
     9  H    0.155145
    10  H    0.160257
    11  C   -0.298443
    12  C   -0.299811
    13  C   -0.480438
    14  H    0.149856
    15  H    0.149725
    16  H    0.151895
    17  H    0.151872
    18  H    0.155189
    19  H    0.160027
    20  H    0.160272
    21  C   -0.298308
    22  C   -0.299026
    23  C   -0.483594
    24  H    0.149599
    25  H    0.149269
    26  H    0.151898
    27  H    0.151744
    28  H    0.153709
    29  H    0.154848
    30  H    0.169980
    31  C   -0.298216
    32  C   -0.299608
    33  C   -0.475681
    34  H    0.149498
    35  H    0.149534
    36  H    0.151918
    37  H    0.151842
    38  H    0.155126
    39  H    0.155169
    40  H    0.160181
 Sum of Mulliken charges =  -0.00000

 Dipole moment (field-independent basis, Debye):
    X=              0.0210    Y=              0.0110    Z=              0.0044  Tot=              0.0241
 Quadrupole moment (field-independent basis, Debye-Ang):
   XX=            -86.5196   YY=            -84.2445   ZZ=            -84.1336
   XY=              0.6974   XZ=             -0.1107   YZ=              0.8997

 Normal termination of Gaussian 16 at Wed May  5 18:25:41 2021.
