 Gaussian 16, Revision A.03,
 Gaussian 16:  EM64L-G16RevA.03 25-Dec-2016

 -------------
 #p 6-31g* mp2
 -------------

 ------------------------------------------------------
 Input file generated by CHIRIPA (05-May-2021 14:51:11)
 ------------------------------------------------------
 Symbolic Z-matrix:
 Charge =  0 Multiplicity = 1

                         Standard orientation:
 ---------------------------------------------------------------------
 Center     Atomic      Atomic             Coordinates (Angstroms)
 Number     Number       Type             X           Y           Z
 ---------------------------------------------------------------------
      1          6           0        4.199656    0.526334   -0.055536
      2          6           0        5.715566    0.458132    0.132487
      3          6           0        6.387328    1.827064    0.020440
      4          1           0        3.977792    0.965950   -1.037604
      5          1           0        3.774361    1.207027    0.694914
      6          1           0        6.137717   -0.223304   -0.617213
      7          1           0        5.933849    0.018450    1.114143
      8          1           0        5.993792    2.512466    0.778038
      9          1           0        6.198819    2.269339   -0.963155
     10          1           0        7.470721    1.755090    0.158061
     11          6           0        3.513827   -0.834340    0.053702
     12          6           0        1.997917   -0.766138   -0.134321
     13          6           0        1.326155   -2.135070   -0.022274
     14          1           0        3.939123   -1.515033   -0.696748
     15          1           0        3.735691   -1.273956    1.035770
     16          1           0        1.779635   -0.326456   -1.115977
     17          1           0        1.575766   -0.084702    0.615379
     18          1           0        1.514664   -2.577345    0.961321
     19          1           0        1.719691   -2.820472   -0.779872
     20          1           0        0.242762   -2.063095   -0.159894
     21          6           0       -4.007813   -0.564454    0.211700
     22          6           0       -2.986757   -1.576559   -0.308948
     23          6           0       -3.302562   -3.009445    0.121050
     24          1           0       -4.043563   -0.620267    1.308308
     25          1           0       -5.007537   -0.844386   -0.148279
     26          1           0       -1.989062   -1.294018    0.050764
     27          1           0       -2.953294   -1.518195   -1.404433
     28          1           0       -4.285853   -3.315347   -0.250654
     29          1           0       -3.316143   -3.089895    1.212812
     30          1           0       -2.560075   -3.716433   -0.262017
     31          6           0       -3.705670    0.872459   -0.209865
     32          6           0       -4.726726    1.884565    0.310781
     33          6           0       -4.410921    3.317451   -0.119216
     34          1           0       -2.705946    1.152392    0.150113
     35          1           0       -3.669920    0.928273   -1.306474
     36          1           0       -4.760189    1.826201    1.406268
     37          1           0       -5.724421    1.602023   -0.048931
     38          1           0       -4.397341    3.397901   -1.210978
     39          1           0       -3.427630    3.623353    0.252488
     40          1           0       -5.153409    4.024439    0.263851
 ---------------------------------------------------------------------

 SCF Done:  E(RHF) =  -470.733315081     A.U. after   11 cycles
 E2 =    -0.1582450513D+01 EUMP2 =    -0.47231576559424D+03

 The electronic state is 1-A.
 Alpha  occ. eigenvalues --  -11.21610 -11.21603 -11.21602 -11.21602 -11.21409
 Alpha  occ. eigenvalues --  -11.21404 -11.21349 -11.21345 -11.21072 -11.21071
 Alpha  occ. eigenvalues --  -11.21070 -11.21031  -1.08441  -1.08424  -1.03554
 Alpha  occ. eigenvalues --   -1.03509  -0.96001  -0.95955  -0.87004  -0.86985
 Alpha  occ. eigenvalues --   -0.79634  -0.79559  -0.78253  -0.78241  -0.65078
 Alpha  occ. eigenvalues --   -0.65055  -0.60972  -0.60916  -0.59506  -0.59206
 Alpha  occ. eigenvalues --   -0.57702  -0.57470  -0.55274  -0.55252  -0.52729
 Alpha  occ. eigenvalues --   -0.52622  -0.52418  -0.52390  -0.49921  -0.49911
 Alpha  occ. eigenvalues --   -0.48015  -0.47817  -0.46625  -0.46615  -0.45796
 Alpha  occ. eigenvalues --   -0.45775  -0.45713  -0.45705  -0.43804  -0.43731
 Alpha virt. eigenvalues --    0.21659   0.23059   0.23436   0.24817   0.26356
 Alpha virt. eigenvalues --    0.26664   0.26969   0.27399   0.27904   0.28740
 Alpha virt. eigenvalues --    0.30557   0.31416   0.31426   0.31739   0.32126

 Mulliken charges:
               1
     1  C   -0.298250
     2  C   -0.299655
     3  C   -0.475704
     4  H    0.149710
     5  H    0.149381
     6  H    0.151954
     7  H    0.151917
     8  H    0.155147
     9  H    0.155207
    10  H    0.160256
    11  C   -0.298224
    12  C   -0.299130
    13  C   -0.484422
    14  H    0.149632
    15  H    0.149595
    16  H    0.152230
    17  H    0.151094
    18  H    0.154902
    19  H    0.155144
    20  H    0.168874
    21  C   -0.297557
    22  C   -0.305842
    23  C   -0.476411
    24  H    0.149651
    25  H    0.149604
    26  H    0.156800
    27  H    0.151997
    28  H    0.155350
    29  H    0.155316
    30  H    0.161356
    31  C   -0.298446
    32  C   -0.299660
    33  C   -0.475713
    34  H    0.149706
    35  H    0.149666
    36  H    0.151914
    37  H    0.151941
    38  H    0.155192
    39  H    0.155235
    40  H    0.160243
 Sum of Mulliken charges =  -0.00000

 Dipole moment (field-independent basis, Debye):
    X=             -0.0155    Y=             -0.0042    Z=             -0.0059  Tot=              0.0171
 Quadrupole moment (field-independent basis, Debye-Ang):
   XX=            -84.8922   YY=            -86.7788   ZZ=            -83.0738
   XY=             -0.5874   XZ=              0.4048   YZ=              0.5619

 Normal termination of Gaussian 16 at Wed May  5 18:15:23 2021.
