 Gaussian 16, Revision A.03,
 Gaussian 16:  EM64L-G16RevA.03 25-Dec-2016

 -------------
 #p 6-31g* mp2
 -------------

 ------------------------------------------------------
 Input file generated by CHIRIPA (05-May-2021 14:51:08)
 ------------------------------------------------------
 Symbolic Z-matrix:
 Charge =  0 Multiplicity = 1

                         Standard orientation:
 ---------------------------------------------------------------------
 Center     Atomic      Atomic             Coordinates (Angstroms)
 Number     Number       Type             X           Y           Z
 ---------------------------------------------------------------------
      1          6           0        3.180584   -0.439329   -0.024419
      2          6           0        3.227960    0.667332   -1.078478
      3          6           0        4.653694    1.011946   -1.510126
      4          1           0        3.765278   -0.127578    0.851873
      5          1           0        3.671029   -1.337821   -0.423882
      6          1           0        2.736347    1.563031   -0.677660
      7          1           0        2.642926    0.352990   -1.952286
      8          1           0        5.150565    0.133644   -1.934750
      9          1           0        5.244517    1.350560   -0.652881
     10          1           0        4.664228    1.805277   -2.264032
     11          6           0        1.762066   -0.795007    0.417203
     12          6           0        1.714690   -1.901669    1.471263
     13          6           0        0.288956   -2.246282    1.902910
     14          1           0        1.271621    0.103485    0.816666
     15          1           0        1.177372   -1.106758   -0.459089
     16          1           0        2.299724   -1.587327    2.345070
     17          1           0        2.206303   -2.797368    1.070444
     18          1           0       -0.301867   -2.584897    1.045665
     19          1           0       -0.207915   -1.367980    2.327534
     20          1           0        0.278422   -3.039614    2.656816
     21          6           0       -1.893289    1.032067    0.081394
     22          6           0       -2.328998    2.395700    0.618655
     23          6           0       -1.161466    3.214010    1.170953
     24          1           0       -1.397284    0.470070    0.884564
     25          1           0       -1.142168    1.179320   -0.706977
     26          1           0       -3.080091    2.245970    1.404820
     27          1           0       -2.824194    2.954441   -0.185835
     28          1           0       -0.413571    3.392717    0.391648
     29          1           0       -0.670922    2.680221    1.991341
     30          1           0       -1.495451    4.185020    1.549707
     31          6           0       -3.049361    0.202269   -0.474178
     32          6           0       -2.613652   -1.161363   -1.011440
     33          6           0       -3.781183   -1.979674   -1.563737
     34          1           0       -3.800482    0.055017    0.314193
     35          1           0       -3.545366    0.764267   -1.277348
     36          1           0       -2.118456   -1.720104   -0.206948
     37          1           0       -1.862558   -1.011634   -1.797604
     38          1           0       -4.271727   -1.445885   -2.384125
     39          1           0       -4.529079   -2.158381   -0.784431
     40          1           0       -3.447198   -2.950683   -1.942490
 ---------------------------------------------------------------------

 SCF Done:  E(RHF) =  -470.732585441     A.U. after   11 cycles
 E2 =    -0.1584806244D+01 EUMP2 =    -0.47231739168483D+03

 The electronic state is 1-A.
 Alpha  occ. eigenvalues --  -11.21601 -11.21592 -11.21581 -11.21539 -11.21359
 Alpha  occ. eigenvalues --  -11.21344 -11.21282 -11.21267 -11.21106 -11.21105
 Alpha  occ. eigenvalues --  -11.21063 -11.21047  -1.08445  -1.08355  -1.03538
 Alpha  occ. eigenvalues --   -1.03506  -0.95982  -0.95958  -0.87018  -0.86961
 Alpha  occ. eigenvalues --   -0.79643  -0.79558  -0.78470  -0.77934  -0.65070
 Alpha  occ. eigenvalues --   -0.65007  -0.61051  -0.60814  -0.59369  -0.59311
 Alpha  occ. eigenvalues --   -0.57616  -0.57548  -0.55347  -0.55178  -0.52689
 Alpha  occ. eigenvalues --   -0.52657  -0.52480  -0.52336  -0.50051  -0.49798
 Alpha  occ. eigenvalues --   -0.48076  -0.47895  -0.46795  -0.46395  -0.46289
 Alpha  occ. eigenvalues --   -0.45687  -0.45579  -0.45041  -0.43773  -0.43745
 Alpha virt. eigenvalues --    0.20857   0.22644   0.23359   0.23763   0.25366
 Alpha virt. eigenvalues --    0.26159   0.26832   0.27689   0.28602   0.29602
 Alpha virt. eigenvalues --    0.30715   0.31110   0.31724   0.32112   0.32223

 Mulliken charges:
               1
     1  C   -0.298242
     2  C   -0.299831
     3  C   -0.475626
     4  H    0.149447
     5  H    0.149206
     6  H    0.152122
     7  H    0.151426
     8  H    0.155164
     9  H    0.155289
    10  H    0.160065
    11  C   -0.302166
    12  C   -0.299627
    13  C   -0.482406
    14  H    0.153926
    15  H    0.151357
    16  H    0.151677
    17  H    0.151802
    18  H    0.160654
    19  H    0.155611
    20  H    0.160436
    21  C   -0.305003
    22  C   -0.299517
    23  C   -0.476284
    24  H    0.157059
    25  H    0.150901
    26  H    0.151633
    27  H    0.151875
    28  H    0.155312
    29  H    0.154063
    30  H    0.160582
    31  C   -0.297507
    32  C   -0.307632
    33  C   -0.475198
    34  H    0.149109
    35  H    0.149239
    36  H    0.160079
    37  H    0.151118
    38  H    0.155044
    39  H    0.155231
    40  H    0.159616
 Sum of Mulliken charges =  -0.00000

 Dipole moment (field-independent basis, Debye):
    X=              0.0049    Y=             -0.0113    Z=              0.0122  Tot=              0.0173
 Quadrupole moment (field-independent basis, Debye-Ang):
   XX=            -86.3834   YY=            -84.7895   ZZ=            -83.8019
   XY=             -0.7647   XZ=             -0.0593   YZ=             -0.0369

 Normal termination of Gaussian 16 at Thu May  6 13:12:37 2021.
