 Gaussian 16, Revision A.03,
 Gaussian 16:  EM64L-G16RevA.03 25-Dec-2016

 -------------
 #p 6-31g* mp2
 -------------

 ------------------------------------------------------
 Input file generated by CHIRIPA (05-May-2021 14:53:13)
 ------------------------------------------------------
 Symbolic Z-matrix:
 Charge =  0 Multiplicity = 1

                         Standard orientation:
 ---------------------------------------------------------------------
 Center     Atomic      Atomic             Coordinates (Angstroms)
 Number     Number       Type             X           Y           Z
 ---------------------------------------------------------------------
      1          6           0       -3.875643    0.247667    0.188505
      2          6           0       -5.145012    0.313983   -0.661371
      3          6           0       -5.775940    1.706666   -0.673916
      4          1           0       -4.113948    0.553083    1.216551
      5          1           0       -3.148330    0.977286   -0.193681
      6          1           0       -5.869192   -0.416516   -0.278551
      7          1           0       -4.903697    0.008190   -1.687467
      8          1           0       -5.073689    2.444125   -1.075912
      9          1           0       -6.044670    2.017005    0.341010
     10          1           0       -6.681999    1.731424   -1.287353
     11          6           0       -3.233309   -1.138201    0.210922
     12          6           0       -1.963940   -1.204517    1.060799
     13          6           0       -1.333012   -2.597200    1.073344
     14          1           0       -3.960622   -1.867820    0.593109
     15          1           0       -2.995003   -1.443617   -0.817123
     16          1           0       -2.205255   -0.898724    2.086895
     17          1           0       -1.239760   -0.474018    0.677979
     18          1           0       -1.064282   -2.907539    0.058418
     19          1           0       -2.035263   -3.334659    1.475340
     20          1           0       -0.426953   -2.621958    1.686780
     21          6           0        3.298772   -2.037452   -0.791536
     22          6           0        1.988987   -1.556878   -0.891709
     23          6           0        1.688301   -0.237005   -0.542322
     24          6           0        2.726485    0.578468   -0.094588
     25          6           0        4.041402    0.128998    0.016133
     26          6           0        4.319000   -1.194467   -0.338732
     27          1           0        3.523385   -3.064156   -1.065076
     28          1           0        1.194658   -2.209294   -1.243047
     29          1           0        0.683086    0.160924   -0.610242
     30          1           0        4.812076    0.803150    0.369683
     31          1           0        5.337116   -1.564973   -0.259927
     32          7           0        2.420383    1.977660    0.278193
     33          8           0        3.352883    2.676005    0.669847
     34          8           0        1.253755    2.349506    0.171665
 ---------------------------------------------------------------------

 SCF Done:  E(RHF) =  -669.535219588     A.U. after   15 cycles
 E2 =    -0.2092203976D+01 EUMP2 =    -0.67162742356468D+03

 The electronic state is 1-A.
 Alpha  occ. eigenvalues --  -20.60780 -20.60774 -15.85831 -11.31188 -11.27756
 Alpha  occ. eigenvalues --  -11.27743 -11.27490 -11.26775 -11.26753 -11.21985
 Alpha  occ. eigenvalues --  -11.21661 -11.21653 -11.21608 -11.21393 -11.20969
 Alpha  occ. eigenvalues --   -1.59853  -1.39408  -1.19361  -1.08756  -1.08621
 Alpha  occ. eigenvalues --   -1.04767  -1.03741  -0.96194  -0.95593  -0.87213
 Alpha  occ. eigenvalues --   -0.86160  -0.82425  -0.79815  -0.78388  -0.77478
 Alpha  occ. eigenvalues --   -0.72051  -0.71175  -0.70481  -0.65296  -0.65005
 Alpha  occ. eigenvalues --   -0.64771  -0.62213  -0.61062  -0.59564  -0.57781
 Alpha  occ. eigenvalues --   -0.55530  -0.55232  -0.53101  -0.52917  -0.52846
 Alpha  occ. eigenvalues --   -0.52599  -0.50123  -0.48808  -0.48806  -0.48111
 Alpha  occ. eigenvalues --   -0.46847  -0.45934  -0.45837  -0.44812  -0.43973
 Alpha  occ. eigenvalues --   -0.37338  -0.36346
 Alpha virt. eigenvalues --    0.05025   0.11247   0.16486   0.19494   0.23011
 Alpha virt. eigenvalues --    0.23996   0.25366   0.25924   0.27451   0.28428
 Alpha virt. eigenvalues --    0.29061   0.30347   0.31432   0.31597   0.32616

 Mulliken charges:
               1
     1  C   -0.299805
     2  C   -0.299730
     3  C   -0.476170
     4  H    0.152154
     5  H    0.154680
     6  H    0.151121
     7  H    0.150520
     8  H    0.158136
     9  H    0.156166
    10  H    0.159783
    11  C   -0.298057
    12  C   -0.305474
    13  C   -0.476842
    14  H    0.150523
    15  H    0.144932
    16  H    0.158344
    17  H    0.152447
    18  H    0.144171
    19  H    0.158459
    20  H    0.163728
    21  C   -0.171674
    22  C   -0.219317
    23  C   -0.174673
    24  C    0.158603
    25  C   -0.170977
    26  C   -0.218396
    27  H    0.225863
    28  H    0.226260
    29  H    0.279716
    30  H    0.275564
    31  H    0.223453
    32  N    0.487882
    33  O   -0.460231
    34  O   -0.461162
 Sum of Mulliken charges =  -0.00000

 Dipole moment (field-independent basis, Debye):
    X=              1.0154    Y=             -4.8635    Z=             -1.2239  Tot=              5.1169
 Quadrupole moment (field-independent basis, Debye-Ang):
   XX=            -83.9144   YY=           -101.9439   ZZ=            -94.2888
   XY=            -11.7510   XZ=             -3.2258   YZ=             -0.2694

 Normal termination of Gaussian 16 at Wed May  5 23:25:18 2021.
