 Gaussian 16, Revision A.03,
 Gaussian 16:  EM64L-G16RevA.03 25-Dec-2016

 -------------
 #p 6-31g* mp2
 -------------

 ------------------------------------------------------
 Input file generated by CHIRIPA (05-May-2021 14:53:16)
 ------------------------------------------------------
 Symbolic Z-matrix:
 Charge =  0 Multiplicity = 1

                         Standard orientation:
 ---------------------------------------------------------------------
 Center     Atomic      Atomic             Coordinates (Angstroms)
 Number     Number       Type             X           Y           Z
 ---------------------------------------------------------------------
      1          6           0       -4.850924    0.212723    0.219030
      2          6           0       -6.135885   -0.323875   -0.412573
      3          6           0       -7.386258    0.045969    0.385911
      4          1           0       -4.762616   -0.176669    1.242514
      5          1           0       -4.921863    1.305830    0.305519
      6          1           0       -6.061975   -1.415509   -0.499115
      7          1           0       -6.221047    0.066686   -1.434739
      8          1           0       -7.487603    1.133474    0.461171
      9          1           0       -7.327627   -0.357143    1.402112
     10          1           0       -8.293290   -0.347618   -0.083389
     11          6           0       -3.592337   -0.148830   -0.567715
     12          6           0       -2.307376    0.387769    0.063887
     13          6           0       -1.057003    0.017925   -0.734597
     14          1           0       -3.521399   -1.241936   -0.654205
     15          1           0       -3.680645    0.240563   -1.591200
     16          1           0       -2.222214   -0.002792    1.086054
     17          1           0       -2.381286    1.479403    0.150429
     18          1           0       -1.115634    0.421037   -1.750798
     19          1           0       -0.955658   -1.069580   -0.809857
     20          1           0       -0.149971    0.411511   -0.265297
     21          6           0        3.367813    2.496510    0.079072
     22          6           0        2.424941    1.840195    0.877047
     23          6           0        2.377190    0.443515    0.916453
     24          6           0        3.291414   -0.268725    0.141729
     25          6           0        4.242581    0.356182   -0.663293
     26          6           0        4.272030    1.753719   -0.687201
     27          1           0        3.397799    3.581817    0.054480
     28          1           0        1.721482    2.414483    1.473186
     29          1           0        1.657627   -0.090169    1.525412
     30          1           0        4.930833   -0.243412   -1.246573
     31          1           0        5.005365    2.260740   -1.307841
     32          7           0        3.250550   -1.747781    0.175243
     33          8           0        4.066951   -2.352373   -0.516563
     34          8           0        2.402893   -2.274467    0.892681
 ---------------------------------------------------------------------

 SCF Done:  E(RHF) =  -669.534943546     A.U. after   15 cycles
 E2 =    -0.2092091416D+01 EUMP2 =    -0.67162703496154D+03

 The electronic state is 1-A.
 Alpha  occ. eigenvalues --  -20.60776 -20.60770 -15.85830 -11.31210 -11.27794
 Alpha  occ. eigenvalues --  -11.27785 -11.27541 -11.26811 -11.26798 -11.21706
 Alpha  occ. eigenvalues --  -11.21604 -11.21429 -11.21368 -11.21081 -11.20993
 Alpha  occ. eigenvalues --   -1.59849  -1.39402  -1.19403  -1.08784  -1.08459
 Alpha  occ. eigenvalues --   -1.04820  -1.03557  -0.96001  -0.95615  -0.87016
 Alpha  occ. eigenvalues --   -0.86198  -0.82453  -0.79628  -0.78277  -0.77495
 Alpha  occ. eigenvalues --   -0.72050  -0.71171  -0.70513  -0.65087  -0.65054
 Alpha  occ. eigenvalues --   -0.64808  -0.62182  -0.60945  -0.59400  -0.57639
 Alpha  occ. eigenvalues --   -0.55314  -0.55251  -0.53388  -0.52908  -0.52530
 Alpha  occ. eigenvalues --   -0.52309  -0.49916  -0.48809  -0.48802  -0.47941
 Alpha  occ. eigenvalues --   -0.46656  -0.45816  -0.45738  -0.44805  -0.43826
 Alpha  occ. eigenvalues --   -0.37373  -0.36337
 Alpha virt. eigenvalues --    0.05013   0.11216   0.16445   0.21103   0.22884
 Alpha virt. eigenvalues --    0.24222   0.26584   0.26914   0.27546   0.27948
 Alpha virt. eigenvalues --    0.28927   0.30781   0.31425   0.31900   0.32137

 Mulliken charges:
               1
     1  C   -0.298275
     2  C   -0.299821
     3  C   -0.475726
     4  H    0.149981
     5  H    0.147795
     6  H    0.153355
     7  H    0.151748
     8  H    0.154341
     9  H    0.155446
    10  H    0.160604
    11  C   -0.298459
    12  C   -0.299791
    13  C   -0.482314
    14  H    0.152926
    15  H    0.149490
    16  H    0.150848
    17  H    0.147241
    18  H    0.154295
    19  H    0.163897
    20  H    0.158018
    21  C   -0.170398
    22  C   -0.218186
    23  C   -0.172207
    24  C    0.159742
    25  C   -0.170896
    26  C   -0.218437
    27  H    0.225870
    28  H    0.224373
    29  H    0.277546
    30  H    0.275861
    31  H    0.223627
    32  N    0.488383
    33  O   -0.460422
    34  O   -0.460452
 Sum of Mulliken charges =  -0.00000

 Dipole moment (field-independent basis, Debye):
    X=              0.2042    Y=              5.1527    Z=             -0.1383  Tot=              5.1586
 Quadrupole moment (field-independent basis, Debye-Ang):
   XX=            -92.0834   YY=            -97.4534   ZZ=            -93.1475
   XY=             17.5203   XZ=             -2.7147   YZ=              0.3703

 Normal termination of Gaussian 16 at Thu May  6 09:05:06 2021.
