 Gaussian 16, Revision A.03,
 Gaussian 16:  EM64L-G16RevA.03 25-Dec-2016

 -------------
 #p 6-31g* mp2
 -------------

 ------------------------------------------------------
 Input file generated by CHIRIPA (05-May-2021 14:55:22)
 ------------------------------------------------------
 Symbolic Z-matrix:
 Charge =  0 Multiplicity = 1

                         Standard orientation:
 ---------------------------------------------------------------------
 Center     Atomic      Atomic             Coordinates (Angstroms)
 Number     Number       Type             X           Y           Z
 ---------------------------------------------------------------------
      1          6           0       -2.959678    2.152512   -0.872671
      2          6           0       -1.727691    1.644621   -0.447494
      3          6           0       -1.625251    0.332510    0.024119
      4          6           0       -2.780196   -0.447431    0.057045
      5          6           0       -4.021930    0.029846   -0.359599
      6          6           0       -4.100854    1.344927   -0.827447
      7          1           0       -3.030122    3.172945   -1.237569
      8          1           0       -0.839777    2.269520   -0.481494
      9          1           0       -0.684084   -0.086047    0.359428
     10          1           0       -4.889541   -0.617132   -0.313882
     11          1           0       -5.058952    1.736703   -1.157000
     12          7           0       -2.684196   -1.838076    0.554327
     13          8           0       -3.716483   -2.504903    0.573353
     14          8           0       -1.578481   -2.234905    0.915656
     15          6           0        3.938256   -0.376840    0.185911
     16          6           0        4.139613   -1.261329   -1.044991
     17          6           0        4.859890   -2.570483   -0.720785
     18          1           0        4.916214   -0.157285    0.635732
     19          1           0        3.365562   -0.934539    0.939825
     20          1           0        4.710568   -0.701639   -1.796905
     21          1           0        3.161078   -1.478646   -1.492045
     22          1           0        4.290483   -3.152427    0.011144
     23          1           0        5.848777   -2.371004   -0.295448
     24          1           0        4.993318   -3.187382   -1.614928
     25          6           0        3.219550    0.935524   -0.122134
     26          6           0        3.018192    1.820013    1.108769
     27          6           0        2.297916    3.129167    0.784562
     28          1           0        3.792245    1.493223   -0.876048
     29          1           0        2.241592    0.715969   -0.571954
     30          1           0        3.996729    2.037330    1.555822
     31          1           0        2.447239    1.260322    1.860682
     32          1           0        1.309029    2.929689    0.359226
     33          1           0        2.867324    3.711111    0.052634
     34          1           0        2.164488    3.746066    1.678706
 ---------------------------------------------------------------------

 SCF Done:  E(RHF) =  -669.535526195     A.U. after   15 cycles
 E2 =    -0.2091401176D+01 EUMP2 =    -0.67162692737097D+03

 The electronic state is 1-A.
 Alpha  occ. eigenvalues --  -20.60784 -20.60778 -15.85837 -11.31194 -11.27764
 Alpha  occ. eigenvalues --  -11.27759 -11.27497 -11.26774 -11.26754 -11.22174
 Alpha  occ. eigenvalues --  -11.21932 -11.21885 -11.21669 -11.21562 -11.20996
 Alpha  occ. eigenvalues --   -1.59859  -1.39413  -1.19365  -1.08790  -1.08759
 Alpha  occ. eigenvalues --   -1.04769  -1.03877  -0.96347  -0.95597  -0.87364
 Alpha  occ. eigenvalues --   -0.86166  -0.82433  -0.79962  -0.78553  -0.77482
 Alpha  occ. eigenvalues --   -0.72056  -0.71181  -0.70473  -0.65443  -0.65015
 Alpha  occ. eigenvalues --   -0.64789  -0.62165  -0.61235  -0.59732  -0.57932
 Alpha  occ. eigenvalues --   -0.55676  -0.55258  -0.53097  -0.53042  -0.52964
 Alpha  occ. eigenvalues --   -0.52653  -0.50280  -0.48814  -0.48811  -0.48263
 Alpha  occ. eigenvalues --   -0.46996  -0.46106  -0.45987  -0.44821  -0.44121
 Alpha  occ. eigenvalues --   -0.37343  -0.36369
 Alpha virt. eigenvalues --    0.05051   0.11280   0.16535   0.18418   0.22763
 Alpha virt. eigenvalues --    0.23810   0.25358   0.25955   0.27203   0.28500
 Alpha virt. eigenvalues --    0.29341   0.30456   0.31317   0.31740   0.32296

 Mulliken charges:
               1
     1  C   -0.172205
     2  C   -0.225511
     3  C   -0.175336
     4  C    0.158937
     5  C   -0.170889
     6  C   -0.218501
     7  H    0.226539
     8  H    0.234164
     9  H    0.276134
    10  H    0.275599
    11  H    0.223472
    12  N    0.488173
    13  O   -0.460341
    14  O   -0.460932
    15  C   -0.299743
    16  C   -0.300018
    17  C   -0.476555
    18  H    0.150644
    19  H    0.154490
    20  H    0.150628
    21  H    0.153759
    22  H    0.159629
    23  H    0.154371
    24  H    0.161160
    25  C   -0.298536
    26  C   -0.301403
    27  C   -0.478873
    28  H    0.150857
    29  H    0.142545
    30  H    0.156232
    31  H    0.154392
    32  H    0.144293
    33  H    0.158372
    34  H    0.164451
 Sum of Mulliken charges =  -0.00000

 Dipole moment (field-independent basis, Debye):
    X=             -0.1932    Y=              4.8488    Z=             -1.7051  Tot=              5.1435
 Quadrupole moment (field-independent basis, Debye-Ang):
   XX=            -86.7734   YY=           -100.3262   ZZ=            -95.6037
   XY=            -12.0824   XZ=              5.8632   YZ=              1.1937

 Normal termination of Gaussian 16 at Wed May  5 20:38:25 2021.
