 Gaussian 16, Revision A.03,
 Gaussian 16:  EM64L-G16RevA.03 25-Dec-2016

 -------------
 #p 6-31g* mp2
 -------------

 ------------------------------------------------------
 Input file generated by CHIRIPA (05-May-2021 14:55:24)
 ------------------------------------------------------
 Symbolic Z-matrix:
 Charge =  0 Multiplicity = 1

                         Standard orientation:
 ---------------------------------------------------------------------
 Center     Atomic      Atomic             Coordinates (Angstroms)
 Number     Number       Type             X           Y           Z
 ---------------------------------------------------------------------
      1          6           0       -1.720647    0.970279    0.375269
      2          6           0       -2.659595    1.594908   -0.452218
      3          6           0       -3.918464    1.022087   -0.656356
      4          6           0       -4.206189   -0.181447   -0.014475
      5          6           0       -3.292015   -0.828057    0.815869
      6          6           0       -2.039292   -0.237082    1.005561
      7          1           0       -0.745115    1.422311    0.528237
      8          1           0       -2.414883    2.532617   -0.942997
      9          1           0       -4.664180    1.484234   -1.291765
     10          1           0       -3.564948   -1.762216    1.291549
     11          1           0       -1.312065   -0.724423    1.648744
     12          7           0       -5.535644   -0.797477   -0.222940
     13          8           0       -5.764652   -1.858294    0.353999
     14          8           0       -6.323488   -0.207839   -0.959327
     15          6           0        5.531232   -0.371947   -0.444422
     16          6           0        6.877826   -0.703075    0.199802
     17          6           0        7.722223   -1.652863   -0.650312
     18          1           0        4.975607   -1.303807   -0.617225
     19          1           0        5.705628    0.075816   -1.432597
     20          1           0        6.700975   -1.148810    1.187050
     21          1           0        7.430230    0.229698    0.371267
     22          1           0        7.927893   -1.212225   -1.631199
     23          1           0        7.194495   -2.598565   -0.810780
     24          1           0        8.680497   -1.876180   -0.171041
     25          6           0        4.675689    0.576537    0.393524
     26          6           0        3.329095    0.907666   -0.250700
     27          6           0        2.484698    1.857453    0.599413
     28          1           0        4.501293    0.128774    1.381698
     29          1           0        5.231315    1.508398    0.566326
     30          1           0        2.776691   -0.025107   -0.422165
     31          1           0        3.505945    1.353400   -1.237948
     32          1           0        3.012427    2.803156    0.759881
     33          1           0        2.279028    1.416815    1.580300
     34          1           0        1.526424    2.080770    0.120142
 ---------------------------------------------------------------------

 SCF Done:  E(RHF) =  -669.535541084     A.U. after   15 cycles
 E2 =    -0.2090692697D+01 EUMP2 =    -0.67162623378027D+03

 The electronic state is 1-A.
 Alpha  occ. eigenvalues --  -20.60725 -20.60720 -15.85779 -11.31134 -11.27708
 Alpha  occ. eigenvalues --  -11.27704 -11.27401 -11.26714 -11.26703 -11.22557
 Alpha  occ. eigenvalues --  -11.22357 -11.22141 -11.22095 -11.21965 -11.21475
 Alpha  occ. eigenvalues --   -1.59801  -1.39355  -1.19306  -1.09150  -1.08698
 Alpha  occ. eigenvalues --   -1.04711  -1.04293  -0.96764  -0.95535  -0.87785
 Alpha  occ. eigenvalues --   -0.86106  -0.82372  -0.80359  -0.78913  -0.77423
 Alpha  occ. eigenvalues --   -0.71997  -0.71125  -0.70426  -0.65775  -0.64956
 Alpha  occ. eigenvalues --   -0.64719  -0.62061  -0.61682  -0.60208  -0.58359
 Alpha  occ. eigenvalues --   -0.56052  -0.55234  -0.53428  -0.53164  -0.53033
 Alpha  occ. eigenvalues --   -0.52802  -0.50686  -0.48759  -0.48753  -0.48665
 Alpha  occ. eigenvalues --   -0.47373  -0.46467  -0.46362  -0.44763  -0.44536
 Alpha  occ. eigenvalues --   -0.37278  -0.36319
 Alpha virt. eigenvalues --    0.05112   0.11336   0.16585   0.19911   0.22444
 Alpha virt. eigenvalues --    0.23801   0.25947   0.26089   0.26788   0.27246
 Alpha virt. eigenvalues --    0.28877   0.30259   0.30740   0.31380   0.32339

 Mulliken charges:
               1
     1  C   -0.177389
     2  C   -0.221017
     3  C   -0.170734
     4  C    0.158213
     5  C   -0.170748
     6  C   -0.221191
     7  H    0.236989
     8  H    0.223181
     9  H    0.275402
    10  H    0.275296
    11  H    0.223398
    12  N    0.488032
    13  O   -0.460629
    14  O   -0.460588
    15  C   -0.298879
    16  C   -0.300155
    17  C   -0.476096
    18  H    0.150377
    19  H    0.150821
    20  H    0.152284
    21  H    0.152690
    22  H    0.155924
    23  H    0.155828
    24  H    0.161696
    25  C   -0.299147
    26  C   -0.299498
    27  C   -0.481416
    28  H    0.149726
    29  H    0.151439
    30  H    0.152221
    31  H    0.155121
    32  H    0.161743
    33  H    0.154380
    34  H    0.152725
 Sum of Mulliken charges =  -0.00000

 Dipole moment (field-independent basis, Debye):
    X=              4.9552    Y=              2.1674    Z=              0.7188  Tot=              5.4560
 Quadrupole moment (field-independent basis, Debye-Ang):
   XX=           -133.9215   YY=            -92.7773   ZZ=            -93.5642
   XY=            -10.2665   XZ=             -2.1636   YZ=             -3.5717

 Normal termination of Gaussian 16 at Thu May  6 12:39:34 2021.
