 Gaussian 16, Revision A.03,
 Gaussian 16:  EM64L-G16RevA.03 25-Dec-2016

 -------------
 #p 6-31g* mp2
 -------------

 ------------------------------------------------------
 Input file generated by CHIRIPA (05-May-2021 14:53:13)
 ------------------------------------------------------
 Symbolic Z-matrix:
 Charge =  0 Multiplicity = 1

                         Standard orientation:
 ---------------------------------------------------------------------
 Center     Atomic      Atomic             Coordinates (Angstroms)
 Number     Number       Type             X           Y           Z
 ---------------------------------------------------------------------
      1          6           0       -4.179471   -0.510346    0.090851
      2          6           0       -4.943390    0.699326   -0.448691
      3          6           0       -6.313910    0.328095   -1.015840
      4          1           0       -4.057199   -1.247713   -0.714311
      5          1           0       -4.780837   -0.996672    0.871390
      6          1           0       -4.340160    1.184035   -1.227014
      7          1           0       -5.063691    1.433981    0.357798
      8          1           0       -6.937296   -0.135585   -0.244483
      9          1           0       -6.209654   -0.386951   -1.838300
     10          1           0       -6.842733    1.207691   -1.395994
     11          6           0       -2.807487   -0.155286    0.661219
     12          6           0       -2.043568   -1.364959    1.200761
     13          6           0       -0.673049   -0.993728    1.767910
     14          1           0       -2.206121    0.331039   -0.119320
     15          1           0       -2.929760    0.582080    1.466381
     16          1           0       -1.923267   -2.099614    0.394271
     17          1           0       -2.646798   -1.849668    1.979084
     18          1           0       -0.777305   -0.278682    2.590370
     19          1           0       -0.049663   -0.530048    0.996553
     20          1           0       -0.144225   -1.873324    2.148064
     21          6           0        3.457148   -2.114238   -0.739947
     22          6           0        4.251363   -1.275020    0.048379
     23          6           0        3.857935    0.042305    0.302180
     24          6           0        2.658914    0.489547   -0.250644
     25          6           0        1.845884   -0.322288   -1.040072
     26          6           0        2.259055   -1.636036   -1.280703
     27          1           0        3.770442   -3.136178   -0.931990
     28          1           0        5.182312   -1.643697    0.469636
     29          1           0        4.453612    0.713439    0.908944
     30          1           0        0.923064    0.073687   -1.446305
     31          1           0        1.640247   -2.285536   -1.893297
     32          7           0        2.231956    1.882247    0.011073
     33          8           0        1.171231    2.252239   -0.487528
     34          8           0        2.966119    2.577481    0.709852
 ---------------------------------------------------------------------

 SCF Done:  E(RHF) =  -669.534886159     A.U. after   15 cycles
 E2 =    -0.2092770300D+01 EUMP2 =    -0.67162765645902D+03

 The electronic state is 1-A.
 Alpha  occ. eigenvalues --  -20.60823 -20.60812 -15.85864 -11.31225 -11.27808
 Alpha  occ. eigenvalues --  -11.27799 -11.27547 -11.26820 -11.26807 -11.21562
 Alpha  occ. eigenvalues --  -11.21398 -11.21257 -11.21164 -11.20926 -11.20897
 Alpha  occ. eigenvalues --   -1.59886  -1.39442  -1.19415  -1.08802  -1.08288
 Alpha  occ. eigenvalues --   -1.04825  -1.03399  -0.95847  -0.95634  -0.86864
 Alpha  occ. eigenvalues --   -0.86216  -0.82470  -0.79462  -0.78083  -0.77517
 Alpha  occ. eigenvalues --   -0.72084  -0.71210  -0.70530  -0.65065  -0.64954
 Alpha  occ. eigenvalues --   -0.64801  -0.62181  -0.60814  -0.59206  -0.57453
 Alpha  occ. eigenvalues --   -0.55339  -0.55187  -0.53190  -0.52911  -0.52523
 Alpha  occ. eigenvalues --   -0.52208  -0.49762  -0.48847  -0.48838  -0.47774
 Alpha  occ. eigenvalues --   -0.46507  -0.45631  -0.45565  -0.44810  -0.43647
 Alpha  occ. eigenvalues --   -0.37365  -0.36362
 Alpha virt. eigenvalues --    0.05000   0.11144   0.16498   0.20863   0.22927
 Alpha virt. eigenvalues --    0.24274   0.26150   0.27314   0.27612   0.28151
 Alpha virt. eigenvalues --    0.28781   0.30614   0.31518   0.31883   0.32073

 Mulliken charges:
               1
     1  C   -0.298030
     2  C   -0.299818
     3  C   -0.475620
     4  H    0.145901
     5  H    0.148890
     6  H    0.153851
     7  H    0.154006
     8  H    0.154568
     9  H    0.153474
    10  H    0.160877
    11  C   -0.299331
    12  C   -0.299544
    13  C   -0.478967
    14  H    0.152742
    15  H    0.153894
    16  H    0.144612
    17  H    0.151867
    18  H    0.158903
    19  H    0.157755
    20  H    0.156345
    21  C   -0.170792
    22  C   -0.218173
    23  C   -0.170678
    24  C    0.163173
    25  C   -0.176819
    26  C   -0.215947
    27  H    0.225842
    28  H    0.223676
    29  H    0.275861
    30  H    0.275930
    31  H    0.223672
    32  N    0.488854
    33  O   -0.461189
    34  O   -0.459785
 Sum of Mulliken charges =  -0.00000

 Dipole moment (field-independent basis, Debye):
    X=              1.5878    Y=             -4.8086    Z=             -0.9028  Tot=              5.1438
 Quadrupole moment (field-independent basis, Debye-Ang):
   XX=            -84.3714   YY=           -100.2297   ZZ=            -92.7375
   XY=            -12.3382   XZ=             -1.1506   YZ=              1.5115

 Normal termination of Gaussian 16 at Thu May  6 13:43:04 2021.
