 Gaussian 16, Revision A.03,
 Gaussian 16:  EM64L-G16RevA.03 25-Dec-2016

 -------------
 #p 6-31g* mp2
 -------------

 ------------------------------------------------------
 Input file generated by CHIRIPA (05-May-2021 14:53:18)
 ------------------------------------------------------
 Symbolic Z-matrix:
 Charge =  0 Multiplicity = 1

                         Standard orientation:
 ---------------------------------------------------------------------
 Center     Atomic      Atomic             Coordinates (Angstroms)
 Number     Number       Type             X           Y           Z
 ---------------------------------------------------------------------
      1          6           0       -2.352797    1.180877    0.284682
      2          6           0       -1.400702    2.298955   -0.141231
      3          6           0       -1.374561    3.462755    0.850071
      4          1           0       -3.365269    1.592587    0.395770
      5          1           0       -2.054593    0.812656    1.276086
      6          1           0       -1.699777    2.664014   -1.132140
      7          1           0       -0.390415    1.884495   -0.251503
      8          1           0       -1.054729    3.119209    1.839153
      9          1           0       -2.371531    3.903157    0.953513
     10          1           0       -0.687545    4.250728    0.526085
     11          6           0       -2.389930    0.010344   -0.696236
     12          6           0       -3.342026   -1.107734   -0.270323
     13          6           0       -3.368166   -2.271534   -1.261625
     14          1           0       -2.688134    0.378565   -1.687640
     15          1           0       -1.377458   -0.401366   -0.807323
     16          1           0       -4.352313   -0.693274   -0.160050
     17          1           0       -3.042951   -1.472793    0.720587
     18          1           0       -2.371197   -2.711936   -1.365066
     19          1           0       -3.687998   -1.927988   -2.250707
     20          1           0       -4.055183   -3.059507   -0.937639
     21          6           0        0.813983   -2.273332    1.581410
     22          6           0        0.735242   -0.935756    1.982925
     23          6           0        1.307104    0.074319    1.203650
     24          6           0        1.953041   -0.290529    0.023420
     25          6           0        2.048179   -1.614173   -0.403434
     26          6           0        1.469045   -2.607682    0.391610
     27          1           0        0.366923   -3.051547    2.192894
     28          1           0        0.227134   -0.673162    2.906458
     29          1           0        1.260869    1.117778    1.490828
     30          1           0        2.561234   -1.845022   -1.329124
     31          1           0        1.531741   -3.645626    0.077308
     32          7           0        2.562294    0.770023   -0.809910
     33          8           0        3.125837    0.422487   -1.845417
     34          8           0        2.464747    1.928738   -0.411788
 ---------------------------------------------------------------------

 SCF Done:  E(RHF) =  -669.535303481     A.U. after   15 cycles
 E2 =    -0.2095782102D+01 EUMP2 =    -0.67163108558334D+03

 The electronic state is 1-A.
 Alpha  occ. eigenvalues --  -20.60988 -20.60968 -15.85997 -11.31353 -11.27936
 Alpha  occ. eigenvalues --  -11.27917 -11.27673 -11.26937 -11.26926 -11.21796
 Alpha  occ. eigenvalues --  -11.21424 -11.21363 -11.21311 -11.21303 -11.20946
 Alpha  occ. eigenvalues --   -1.60034  -1.39591  -1.19544  -1.08931  -1.08450
 Alpha  occ. eigenvalues --   -1.04941  -1.03544  -0.96008  -0.95766  -0.87032
 Alpha  occ. eigenvalues --   -0.86337  -0.82597  -0.79613  -0.78257  -0.77647
 Alpha  occ. eigenvalues --   -0.72224  -0.71358  -0.70646  -0.65191  -0.65171
 Alpha  occ. eigenvalues --   -0.64900  -0.62323  -0.60907  -0.59367  -0.57592
 Alpha  occ. eigenvalues --   -0.55462  -0.55320  -0.53246  -0.53013  -0.52680
 Alpha  occ. eigenvalues --   -0.52428  -0.49993  -0.49011  -0.48979  -0.47929
 Alpha  occ. eigenvalues --   -0.46691  -0.45821  -0.45776  -0.44784  -0.43780
 Alpha  occ. eigenvalues --   -0.37489  -0.36491
 Alpha virt. eigenvalues --    0.04858   0.11006   0.16264   0.20277   0.23020
 Alpha virt. eigenvalues --    0.23699   0.26009   0.26952   0.27195   0.28264
 Alpha virt. eigenvalues --    0.29033   0.30489   0.31387   0.31784   0.31845

 Mulliken charges:
               1
     1  C   -0.296396
     2  C   -0.308337
     3  C   -0.474901
     4  H    0.149136
     5  H    0.139809
     6  H    0.155243
     7  H    0.159848
     8  H    0.143925
     9  H    0.154283
    10  H    0.169805
    11  C   -0.300440
    12  C   -0.297797
    13  C   -0.475727
    14  H    0.151323
    15  H    0.152935
    16  H    0.152351
    17  H    0.145776
    18  H    0.152770
    19  H    0.157492
    20  H    0.158467
    21  C   -0.170977
    22  C   -0.218272
    23  C   -0.174062
    24  C    0.160179
    25  C   -0.171148
    26  C   -0.218966
    27  H    0.226848
    28  H    0.224527
    29  H    0.279468
    30  H    0.276455
    31  H    0.224533
    32  N    0.488517
    33  O   -0.458240
    34  O   -0.458423
 Sum of Mulliken charges =  -0.00000

 Dipole moment (field-independent basis, Debye):
    X=             -1.9491    Y=             -3.7021    Z=              2.8303  Tot=              5.0512
 Quadrupole moment (field-independent basis, Debye-Ang):
   XX=           -103.0725   YY=            -90.8815   ZZ=            -93.0231
   XY=             -8.4458   XZ=              5.0603   YZ=              0.5355

 Normal termination of Gaussian 16 at Thu May  6 12:21:36 2021.
