 Gaussian 16, Revision A.03,
 Gaussian 16:  EM64L-G16RevA.03 25-Dec-2016

 -------------
 #p 6-31g* mp2
 -------------

 ------------------------------------------------------
 Input file generated by CHIRIPA (05-May-2021 14:57:26)
 ------------------------------------------------------
 Symbolic Z-matrix:
 Charge =  0 Multiplicity = 1

                         Standard orientation:
 ---------------------------------------------------------------------
 Center     Atomic      Atomic             Coordinates (Angstroms)
 Number     Number       Type             X           Y           Z
 ---------------------------------------------------------------------
      1          6           0        5.752860    0.360200    0.345233
      2          6           0        5.114422    0.618250   -0.872276
      3          6           0        3.784954    0.234686   -1.072134
      4          6           0        3.120966   -0.407843   -0.028311
      5          6           0        3.729646   -0.678981    1.196141
      6          6           0        5.059657   -0.286452    1.373742
      7          1           0        6.785833    0.661643    0.491842
      8          1           0        5.650306    1.120287   -1.672796
      9          1           0        3.266510    0.422076   -2.004614
     10          1           0        3.169461   -1.181137    1.975531
     11          1           0        5.552941   -0.488155    2.320332
     12          7           0        1.713231   -0.818650   -0.228111
     13          8           0        1.150198   -1.383283    0.707208
     14          8           0        1.199537   -0.568229   -1.316249
     15          6           0       -1.871227    2.382077   -0.033244
     16          6           0       -1.778031    1.435135   -1.058494
     17          6           0       -2.594050    0.299958   -1.052872
     18          6           0       -3.496228    0.142730   -0.001851
     19          6           0       -3.612627    1.068352    1.033989
     20          6           0       -2.786613    2.195991    1.007890
     21          1           0       -1.233442    3.260982   -0.045565
     22          1           0       -1.068041    1.577047   -1.868321
     23          1           0       -2.542677   -0.448872   -1.833917
     24          1           0       -4.329974    0.899430    1.827901
     25          1           0       -2.861167    2.929748    1.805441
     26          7           0       -4.365401   -1.055041    0.014941
     27          8           0       -5.152121   -1.170378    0.952174
     28          8           0       -4.243481   -1.855838   -0.909450
 ---------------------------------------------------------------------

 SCF Done:  E(RHF) =  -868.338610241     A.U. after   16 cycles
 E2 =    -0.2599476776D+01 EUMP2 =    -0.87093808701690D+03

 The electronic state is 1-A.
 Alpha  occ. eigenvalues --  -20.61369 -20.61314 -20.59697 -20.59675 -15.86380
 Alpha  occ. eigenvalues --  -15.84735 -11.31677 -11.29968 -11.28259 -11.28207
 Alpha  occ. eigenvalues --  -11.27949 -11.27238 -11.27206 -11.26596 -11.26432
 Alpha  occ. eigenvalues --  -11.26339 -11.25659 -11.25450  -1.60399  -1.58761
 Alpha  occ. eigenvalues --   -1.39961  -1.38319  -1.19839  -1.18138  -1.09243
 Alpha  occ. eigenvalues --   -1.07590  -1.05230  -1.03511  -0.96092  -0.94441
 Alpha  occ. eigenvalues --   -0.86630  -0.84948  -0.82931  -0.81265  -0.77988
 Alpha  occ. eigenvalues --   -0.76309  -0.72611  -0.71715  -0.70969  -0.70940
 Alpha  occ. eigenvalues --   -0.70069  -0.69321  -0.65493  -0.65227  -0.63812
 Alpha  occ. eigenvalues --   -0.63546  -0.62578  -0.60868  -0.55724  -0.54122
 Alpha  occ. eigenvalues --   -0.53565  -0.53318  -0.51866  -0.51629  -0.49369
 Alpha  occ. eigenvalues --   -0.49331  -0.47725  -0.47710  -0.45377  -0.43754
 Alpha  occ. eigenvalues --   -0.37813  -0.36833  -0.36165  -0.35045
 Alpha virt. eigenvalues --    0.04522   0.06221   0.10823   0.12556   0.16027
 Alpha virt. eigenvalues --    0.17728   0.20977   0.22521   0.26891   0.27769
 Alpha virt. eigenvalues --    0.28556   0.29347   0.30556   0.31848   0.32284

 Mulliken charges:
               1
     1  C   -0.170573
     2  C   -0.218496
     3  C   -0.171971
     4  C    0.158187
     5  C   -0.170791
     6  C   -0.218523
     7  H    0.227040
     8  H    0.224081
     9  H    0.272959
    10  H    0.277431
    11  H    0.225208
    12  N    0.489522
    13  O   -0.453829
    14  O   -0.468591
    15  C   -0.174562
    16  C   -0.209875
    17  C   -0.160778
    18  C    0.158584
    19  C   -0.172006
    20  C   -0.218447
    21  H    0.218426
    22  H    0.226324
    23  H    0.278278
    24  H    0.271443
    25  H    0.217443
    26  N    0.488579
    27  O   -0.465092
    28  O   -0.459971
 Sum of Mulliken charges =  -0.00000

 Dipole moment (field-independent basis, Debye):
    X=              8.3531    Y=              5.4625    Z=              0.5847  Tot=              9.9978
 Quadrupole moment (field-independent basis, Debye-Ang):
   XX=            -96.0886   YY=           -105.4623   ZZ=            -97.2314
   XY=            -12.1287   XZ=              0.8091   YZ=             -1.0220

 Normal termination of Gaussian 16 at Thu May  6 06:48:14 2021.
