 Gaussian 16, Revision A.03,
 Gaussian 16:  EM64L-G16RevA.03 25-Dec-2016

 -------------
 #p 6-31g* mp2
 -------------

 ------------------------------------------------------
 Input file generated by CHIRIPA (05-May-2021 14:53:14)
 ------------------------------------------------------
 Symbolic Z-matrix:
 Charge =  0 Multiplicity = 1

                         Standard orientation:
 ---------------------------------------------------------------------
 Center     Atomic      Atomic             Coordinates (Angstroms)
 Number     Number       Type             X           Y           Z
 ---------------------------------------------------------------------
      1          6           0        2.394454    0.628343   -0.627573
      2          6           0        3.102556   -0.611690   -0.080860
      3          6           0        3.907585   -1.352002   -1.149345
      4          1           0        1.728905    0.330329   -1.449265
      5          1           0        3.141630    1.307413   -1.061146
      6          1           0        2.354411   -1.287590    0.352793
      7          1           0        3.766353   -0.310716    0.739753
      8          1           0        4.674991   -0.697836   -1.575671
      9          1           0        3.255027   -1.680260   -1.964830
     10          1           0        4.405496   -2.235063   -0.736854
     11          6           0        1.585531    1.379123    0.428695
     12          6           0        0.877429    2.619155   -0.118019
     13          6           0        0.072400    3.359468    0.950466
     14          1           0        0.838355    0.700052    0.862268
     15          1           0        2.251080    1.677137    1.250387
     16          1           0        0.213632    2.318181   -0.938631
     17          1           0        1.625574    3.295055   -0.551671
     18          1           0        0.724958    3.687726    1.765952
     19          1           0       -0.695006    2.705301    1.376793
     20          1           0       -0.425511    4.242528    0.537976
     21          6           0       -0.340431   -1.885304    1.995763
     22          6           0       -1.164659   -0.780000    2.231289
     23          6           0       -1.842287   -0.161951    1.176118
     24          6           0       -1.672071   -0.677713   -0.107745
     25          6           0       -0.857932   -1.777412   -0.374445
     26          6           0       -0.189963   -2.379610    0.695939
     27          1           0        0.182215   -2.359262    2.821353
     28          1           0       -1.283392   -0.393963    3.239715
     29          1           0       -2.486607    0.695098    1.330184
     30          1           0       -0.759358   -2.139554   -1.390592
     31          1           0        0.449491   -3.237861    0.510063
     32          7           0       -2.384333   -0.031801   -1.232860
     33          8           0       -2.217668   -0.505335   -2.354745
     34          8           0       -3.095780    0.935767   -0.971536
 ---------------------------------------------------------------------

 SCF Done:  E(RHF) =  -669.533033851     A.U. after   15 cycles
 E2 =    -0.2098757487D+01 EUMP2 =    -0.67163179133834D+03

 The electronic state is 1-A.
 Alpha  occ. eigenvalues --  -20.60959 -20.60947 -15.86008 -11.31427 -11.28002
 Alpha  occ. eigenvalues --  -11.27955 -11.27709 -11.27013 -11.26976 -11.21693
 Alpha  occ. eigenvalues --  -11.21421 -11.21344 -11.21324 -11.21128 -11.21006
 Alpha  occ. eigenvalues --   -1.60029  -1.39579  -1.19634  -1.08994  -1.08390
 Alpha  occ. eigenvalues --   -1.05039  -1.03544  -0.96003  -0.95813  -0.87032
 Alpha  occ. eigenvalues --   -0.86403  -0.82638  -0.79624  -0.78210  -0.77685
 Alpha  occ. eigenvalues --   -0.72220  -0.71371  -0.70691  -0.65251  -0.65133
 Alpha  occ. eigenvalues --   -0.65003  -0.62389  -0.60957  -0.59377  -0.57614
 Alpha  occ. eigenvalues --   -0.55534  -0.55342  -0.53445  -0.53090  -0.52679
 Alpha  occ. eigenvalues --   -0.52408  -0.49980  -0.48985  -0.48974  -0.47972
 Alpha  occ. eigenvalues --   -0.46714  -0.45714  -0.45430  -0.44961  -0.43757
 Alpha  occ. eigenvalues --   -0.37540  -0.36498
 Alpha virt. eigenvalues --    0.04804   0.10856   0.16256   0.20653   0.23050
 Alpha virt. eigenvalues --    0.23593   0.26458   0.26739   0.27727   0.27998
 Alpha virt. eigenvalues --    0.28605   0.30561   0.31152   0.31741   0.31967

 Mulliken charges:
               1
     1  C   -0.296869
     2  C   -0.305150
     3  C   -0.475671
     4  H    0.150236
     5  H    0.149858
     6  H    0.151025
     7  H    0.149680
     8  H    0.158040
     9  H    0.153590
    10  H    0.156318
    11  C   -0.308769
    12  C   -0.301377
    13  C   -0.473809
    14  H    0.161620
    15  H    0.144808
    16  H    0.156517
    17  H    0.152403
    18  H    0.151875
    19  H    0.147031
    20  H    0.165213
    21  C   -0.169105
    22  C   -0.218376
    23  C   -0.174678
    24  C    0.162037
    25  C   -0.171075
    26  C   -0.218137
    27  H    0.227699
    28  H    0.225580
    29  H    0.277241
    30  H    0.276816
    31  H    0.226368
    32  N    0.488218
    33  O   -0.459849
    34  O   -0.459306
 Sum of Mulliken charges =  -0.00000

 Dipole moment (field-independent basis, Debye):
    X=              2.2960    Y=             -2.3413    Z=              3.9608  Tot=              5.1421
 Quadrupole moment (field-independent basis, Debye-Ang):
   XX=           -103.2192   YY=            -89.8899   ZZ=            -94.2853
   XY=              1.5296   XZ=             -7.8949   YZ=             -0.7214

 Normal termination of Gaussian 16 at Thu May  6 17:07:18 2021.
