 Gaussian 16, Revision A.03,
 Gaussian 16:  EM64L-G16RevA.03 25-Dec-2016

 -------------
 #p 6-31g* mp2
 -------------

 ------------------------------------------------------
 Input file generated by CHIRIPA (05-May-2021 14:55:19)
 ------------------------------------------------------
 Symbolic Z-matrix:
 Charge =  0 Multiplicity = 1

                         Standard orientation:
 ---------------------------------------------------------------------
 Center     Atomic      Atomic             Coordinates (Angstroms)
 Number     Number       Type             X           Y           Z
 ---------------------------------------------------------------------
      1          6           0       -1.621805    2.174010    0.114612
      2          6           0       -1.428603    1.334828   -0.987644
      3          6           0       -2.093892    0.108067   -1.071283
      4          6           0       -2.948957   -0.249631   -0.030030
      5          6           0       -3.162268    0.564637    1.081166
      6          6           0       -2.486496    1.786918    1.143684
      7          1           0       -1.100920    3.125247    0.171381
      8          1           0       -0.757669    1.632861   -1.788312
      9          1           0       -1.962694   -0.560861   -1.913150
     10          1           0       -3.837374    0.240284    1.863754
     11          1           0       -2.638465    2.436619    2.000912
     12          7           0       -3.658817   -1.545977   -0.107395
     13          8           0       -4.406823   -1.838096    0.823084
     14          8           0       -3.453759   -2.245388   -1.097048
     15          6           0        4.091901   -0.426520    0.398984
     16          6           0        4.180086   -1.818732   -0.227080
     17          6           0        5.118145   -2.752683    0.538147
     18          1           0        5.097304    0.014408    0.440125
     19          1           0        3.749118   -0.520708    1.438707
     20          1           0        4.521276   -1.721835   -1.265742
     21          1           0        3.174329   -2.256319   -0.266911
     22          1           0        4.777779   -2.878951    1.571012
     23          1           0        6.132378   -2.341431    0.566505
     24          1           0        5.166242   -3.742408    0.073397
     25          6           0        3.157923    0.518624   -0.354751
     26          6           0        3.069739    1.910835    0.271315
     27          6           0        2.131681    2.844787   -0.493913
     28          1           0        3.500708    0.612811   -1.394473
     29          1           0        2.152521    0.077696   -0.395891
     30          1           0        4.075495    2.348423    0.311145
     31          1           0        2.728549    1.813939    1.309975
     32          1           0        1.117448    2.433534   -0.522271
     33          1           0        2.472047    2.971055   -1.526777
     34          1           0        2.083583    3.834512   -0.029164
 ---------------------------------------------------------------------

 SCF Done:  E(RHF) =  -669.534427743     A.U. after   15 cycles
 E2 =    -0.2092747809D+01 EUMP2 =    -0.67162717555259D+03

 The electronic state is 1-A.
 Alpha  occ. eigenvalues --  -20.60797 -20.60792 -15.85851 -11.31229 -11.27805
 Alpha  occ. eigenvalues --  -11.27799 -11.27506 -11.26804 -11.26783 -11.22299
 Alpha  occ. eigenvalues --  -11.22036 -11.21914 -11.21851 -11.21734 -11.21239
 Alpha  occ. eigenvalues --   -1.59873  -1.39426  -1.19409  -1.08922  -1.08793
 Alpha  occ. eigenvalues --   -1.04814  -1.04042  -0.96531  -0.95627  -0.87561
 Alpha  occ. eigenvalues --   -0.86209  -0.82458  -0.80133  -0.78690  -0.77505
 Alpha  occ. eigenvalues --   -0.72070  -0.71197  -0.70529  -0.65572  -0.65060
 Alpha  occ. eigenvalues --   -0.64827  -0.62195  -0.61405  -0.59905  -0.58102
 Alpha  occ. eigenvalues --   -0.55893  -0.55240  -0.53240  -0.53198  -0.52982
 Alpha  occ. eigenvalues --   -0.52778  -0.50442  -0.48834  -0.48823  -0.48422
 Alpha  occ. eigenvalues --   -0.47133  -0.46239  -0.46130  -0.44828  -0.44280
 Alpha  occ. eigenvalues --   -0.37340  -0.36400
 Alpha virt. eigenvalues --    0.05008   0.11080   0.16464   0.20845   0.22614
 Alpha virt. eigenvalues --    0.24077   0.26119   0.26444   0.26935   0.27809
 Alpha virt. eigenvalues --    0.29294   0.30560   0.31106   0.31260   0.31666

 Mulliken charges:
               1
     1  C   -0.171105
     2  C   -0.220252
     3  C   -0.172534
     4  C    0.158072
     5  C   -0.170788
     6  C   -0.219947
     7  H    0.229663
     8  H    0.226833
     9  H    0.276037
    10  H    0.275780
    11  H    0.223761
    12  N    0.488119
    13  O   -0.460336
    14  O   -0.460263
    15  C   -0.298651
    16  C   -0.300495
    17  C   -0.476049
    18  H    0.150146
    19  H    0.150784
    20  H    0.151788
    21  H    0.154058
    22  H    0.156090
    23  H    0.154977
    24  H    0.162091
    25  C   -0.300474
    26  C   -0.297470
    27  C   -0.486646
    28  H    0.149076
    29  H    0.150923
    30  H    0.154621
    31  H    0.153203
    32  H    0.153404
    33  H    0.156668
    34  H    0.158917
 Sum of Mulliken charges =  -0.00000

 Dipole moment (field-independent basis, Debye):
    X=              2.5619    Y=              4.4938    Z=              0.3131  Tot=              5.1822
 Quadrupole moment (field-independent basis, Debye-Ang):
   XX=           -108.6718   YY=            -98.1578   ZZ=            -90.9300
   XY=            -14.1302   XZ=             -3.7914   YZ=              1.0109

 Normal termination of Gaussian 16 at Wed May  5 17:21:01 2021.
