 Gaussian 16, Revision A.03,
 Gaussian 16:  EM64L-G16RevA.03 25-Dec-2016

 -------------
 #p 6-31g* mp2
 -------------

 ------------------------------------------------------
 Input file generated by CHIRIPA (05-May-2021 14:57:22)
 ------------------------------------------------------
 Symbolic Z-matrix:
 Charge =  0 Multiplicity = 1

                         Standard orientation:
 ---------------------------------------------------------------------
 Center     Atomic      Atomic             Coordinates (Angstroms)
 Number     Number       Type             X           Y           Z
 ---------------------------------------------------------------------
      1          6           0        1.609623    2.549198    0.677742
      2          6           0        1.077079    1.470094    1.390801
      3          6           0        1.526250    0.168406    1.149136
      4          6           0        2.513577   -0.018753    0.182985
      5          6           0        3.063791    1.035837   -0.543923
      6          6           0        2.599534    2.329014   -0.285645
      7          1           0        1.254836    3.557074    0.871926
      8          1           0        0.308204    1.638112    2.139564
      9          1           0        1.131292   -0.685132    1.686629
     10          1           0        3.829217    0.836951   -1.284183
     11          1           0        3.014929    3.165160   -0.840939
     12          7           0        2.997080   -1.392286   -0.081649
     13          8           0        3.867783   -1.530666   -0.938016
     14          8           0        2.496191   -2.304474    0.572309
     15          6           0       -2.680305    2.289752   -0.487988
     16          6           0       -3.700059    1.544884    0.113505
     17          6           0       -3.574307    0.160611    0.263578
     18          6           0       -2.410068   -0.449059   -0.201330
     19          6           0       -1.376503    0.265640   -0.804852
     20          6           0       -1.523820    1.648883   -0.944441
     21          1           0       -2.786368    3.364689   -0.600496
     22          1           0       -4.599311    2.039925    0.468930
     23          1           0       -4.348275   -0.440245    0.725491
     24          1           0       -0.491784   -0.255950   -1.149284
     25          1           0       -0.730241    2.224820   -1.411961
     26          7           0       -2.265524   -1.913982   -0.048003
     27          8           0       -1.229950   -2.427369   -0.465923
     28          8           0       -3.190542   -2.521062    0.487190
 ---------------------------------------------------------------------

 SCF Done:  E(RHF) =  -868.334047156     A.U. after   16 cycles
 E2 =    -0.2605933716D+01 EUMP2 =    -0.87093998087186D+03

 The electronic state is 1-A.
 Alpha  occ. eigenvalues --  -20.60829 -20.60777 -20.60739 -20.60651 -15.85851
 Alpha  occ. eigenvalues --  -15.85761 -11.31537 -11.31401 -11.28148 -11.27997
 Alpha  occ. eigenvalues --  -11.27984 -11.27932 -11.27925 -11.27787 -11.27285
 Alpha  occ. eigenvalues --  -11.27130 -11.27064 -11.26983  -1.59882  -1.59767
 Alpha  occ. eigenvalues --   -1.39426  -1.39303  -1.19784  -1.19582  -1.09088
 Alpha  occ. eigenvalues --   -1.08962  -1.05236  -1.04954  -0.95848  -0.95752
 Alpha  occ. eigenvalues --   -0.86568  -0.86389  -0.82632  -0.82579  -0.77631
 Alpha  occ. eigenvalues --   -0.77575  -0.72058  -0.71960  -0.71245  -0.71103
 Alpha  occ. eigenvalues --   -0.70825  -0.70702  -0.65357  -0.65239  -0.65142
 Alpha  occ. eigenvalues --   -0.65019  -0.62471  -0.62382  -0.55669  -0.55569
 Alpha  occ. eigenvalues --   -0.54043  -0.53229  -0.53116  -0.52846  -0.48836
 Alpha  occ. eigenvalues --   -0.48818  -0.48763  -0.48692  -0.44813  -0.44571
 Alpha  occ. eigenvalues --   -0.38146  -0.37701  -0.37251  -0.35639
 Alpha virt. eigenvalues --    0.04615   0.05134   0.10205   0.11602   0.16264
 Alpha virt. eigenvalues --    0.16385   0.20818   0.21365   0.26849   0.26985
 Alpha virt. eigenvalues --    0.27673   0.28210   0.30395   0.30790   0.31999

 Mulliken charges:
               1
     1  C   -0.178637
     2  C   -0.209861
     3  C   -0.176574
     4  C    0.156047
     5  C   -0.174295
     6  C   -0.222937
     7  H    0.222930
     8  H    0.226208
     9  H    0.283475
    10  H    0.277610
    11  H    0.223404
    12  N    0.487700
    13  O   -0.462152
    14  O   -0.447547
    15  C   -0.177064
    16  C   -0.219467
    17  C   -0.172886
    18  C    0.153947
    19  C   -0.169562
    20  C   -0.216315
    21  H    0.222549
    22  H    0.223124
    23  H    0.276281
    24  H    0.278102
    25  H    0.222842
    26  N    0.486467
    27  O   -0.452697
    28  O   -0.460692
 Sum of Mulliken charges =  -0.00000

 Dipole moment (field-independent basis, Debye):
    X=             -2.0659    Y=              9.6418    Z=              0.4859  Tot=              9.8726
 Quadrupole moment (field-independent basis, Debye-Ang):
   XX=           -105.9534   YY=           -110.2913   ZZ=           -101.9372
   XY=              1.2784   XZ=             -1.1189   YZ=             -1.4256

 Normal termination of Gaussian 16 at Thu May  6 09:41:39 2021.
