 Gaussian 16, Revision A.03,
 Gaussian 16:  EM64L-G16RevA.03 25-Dec-2016

 -------------
 #p 6-31g* mp2
 -------------

 ------------------------------------------------------
 Input file generated by CHIRIPA (05-May-2021 14:51:08)
 ------------------------------------------------------
 Symbolic Z-matrix:
 Charge =  0 Multiplicity = 1

                         Standard orientation:
 ---------------------------------------------------------------------
 Center     Atomic      Atomic             Coordinates (Angstroms)
 Number     Number       Type             X           Y           Z
 ---------------------------------------------------------------------
      1          6           0       -2.766522    0.747478   -0.114077
      2          6           0       -3.864930    1.808614   -0.040082
      3          6           0       -3.358154    3.147582    0.496701
      4          1           0       -2.336289    0.603832    0.886528
      5          1           0       -1.952946    1.115923   -0.754183
      6          1           0       -4.676815    1.437709    0.598579
      7          1           0       -4.292730    1.949612   -1.040943
      8          1           0       -2.563070    3.543230   -0.143538
      9          1           0       -2.949338    3.028418    1.505300
     10          1           0       -4.159663    3.891532    0.541216
     11          6           0       -3.257690   -0.596603   -0.648800
     12          6           0       -2.159282   -1.657739   -0.722795
     13          6           0       -2.666059   -2.996707   -1.259578
     14          1           0       -4.071267   -0.965048   -0.008694
     15          1           0       -3.687924   -0.452957   -1.649405
     16          1           0       -1.731483   -1.798737    0.278066
     17          1           0       -1.347397   -1.286833   -1.361456
     18          1           0       -3.074874   -2.877543   -2.268177
     19          1           0       -3.461142   -3.392355   -0.619339
     20          1           0       -1.864550   -3.740657   -1.304093
     21          6           0        2.438686   -0.545438    0.565072
     22          6           0        2.023473   -0.450537    2.033600
     23          6           0        0.875231   -1.396804    2.385610
     24          1           0        1.570339   -0.322760   -0.070014
     25          1           0        2.733003   -1.580032    0.340599
     26          1           0        1.731346    0.583871    2.255588
     27          1           0        2.892957   -0.673279    2.665264
     28          1           0        1.159496   -2.436201    2.192087
     29          1           0       -0.008714   -1.171908    1.780084
     30          1           0        0.594496   -1.312570    3.440101
     31          6           0        3.585526    0.394563    0.197806
     32          6           0        4.000740    0.299661   -1.270723
     33          6           0        5.148981    1.245930   -1.622733
     34          1           0        3.291210    1.429157    0.422278
     35          1           0        4.453873    0.171884    0.832891
     36          1           0        3.131256    0.522404   -1.902388
     37          1           0        4.292867   -0.734746   -1.492711
     38          1           0        6.032927    1.021032   -1.017207
     39          1           0        4.864717    2.285325   -1.429210
     40          1           0        5.429716    1.161695   -2.677224
 ---------------------------------------------------------------------

 SCF Done:  E(RHF) =  -470.733314943     A.U. after   11 cycles
 E2 =    -0.1583053471D+01 EUMP2 =    -0.47231636841428D+03

 The electronic state is 1-A.
 Alpha  occ. eigenvalues --  -11.21641 -11.21602 -11.21593 -11.21575 -11.21451
 Alpha  occ. eigenvalues --  -11.21384 -11.21378 -11.21316 -11.21106 -11.21070
 Alpha  occ. eigenvalues --  -11.21065 -11.21031  -1.08469  -1.08404  -1.03561
 Alpha  occ. eigenvalues --   -1.03505  -0.96003  -0.95962  -0.87027  -0.86974
 Alpha  occ. eigenvalues --   -0.79672  -0.79534  -0.78324  -0.78175  -0.65121
 Alpha  occ. eigenvalues --   -0.65019  -0.61007  -0.60866  -0.59398  -0.59304
 Alpha  occ. eigenvalues --   -0.57630  -0.57556  -0.55291  -0.55257  -0.52702
 Alpha  occ. eigenvalues --   -0.52658  -0.52453  -0.52373  -0.50002  -0.49878
 Alpha  occ. eigenvalues --   -0.48094  -0.47787  -0.46744  -0.46549  -0.45970
 Alpha  occ. eigenvalues --   -0.45744  -0.45695  -0.45432  -0.43810  -0.43765
 Alpha virt. eigenvalues --    0.21036   0.23223   0.23741   0.24377   0.25470
 Alpha virt. eigenvalues --    0.25664   0.27122   0.27894   0.28286   0.29296
 Alpha virt. eigenvalues --    0.30901   0.31353   0.31747   0.31906   0.32013

 Mulliken charges:
               1
     1  C   -0.300243
     2  C   -0.299611
     3  C   -0.475783
     4  H    0.150754
     5  H    0.148916
     6  H    0.152238
     7  H    0.152223
     8  H    0.154992
     9  H    0.155279
    10  H    0.160469
    11  C   -0.297889
    12  C   -0.307415
    13  C   -0.475180
    14  H    0.149686
    15  H    0.149776
    16  H    0.159581
    17  H    0.152026
    18  H    0.155041
    19  H    0.155214
    20  H    0.160677
    21  C   -0.299323
    22  C   -0.298977
    23  C   -0.483840
    24  H    0.151216
    25  H    0.149275
    26  H    0.151898
    27  H    0.151730
    28  H    0.154952
    29  H    0.163043
    30  H    0.159674
    31  C   -0.298348
    32  C   -0.299534
    33  C   -0.475690
    34  H    0.149559
    35  H    0.149582
    36  H    0.151599
    37  H    0.151906
    38  H    0.155206
    39  H    0.155169
    40  H    0.160150
 Sum of Mulliken charges =  -0.00000

 Dipole moment (field-independent basis, Debye):
    X=             -0.0278    Y=             -0.0073    Z=             -0.0048  Tot=              0.0292
 Quadrupole moment (field-independent basis, Debye-Ang):
   XX=            -84.9819   YY=            -85.5886   ZZ=            -84.1847
   XY=             -1.1628   XZ=              0.1769   YZ=             -0.5730

 Normal termination of Gaussian 16 at Thu May  6 02:05:52 2021.
