 Gaussian 16, Revision A.03,
 Gaussian 16:  EM64L-G16RevA.03 25-Dec-2016

 -------------
 #p 6-31g* mp2
 -------------

 ------------------------------------------------------
 Input file generated by CHIRIPA (05-May-2021 14:57:23)
 ------------------------------------------------------
 Symbolic Z-matrix:
 Charge =  0 Multiplicity = 1

                         Standard orientation:
 ---------------------------------------------------------------------
 Center     Atomic      Atomic             Coordinates (Angstroms)
 Number     Number       Type             X           Y           Z
 ---------------------------------------------------------------------
      1          6           0       -1.454148   -1.471535    0.940151
      2          6           0       -1.849764   -1.537503   -0.399870
      3          6           0       -2.952306   -0.806083   -0.851504
      4          6           0       -3.639445   -0.015348    0.068207
      5          6           0       -3.269869    0.071239    1.409552
      6          6           0       -2.164211   -0.668789    1.839001
      7          1           0       -0.596456   -2.043063    1.282374
      8          1           0       -1.300198   -2.160088   -1.100163
      9          1           0       -3.280274   -0.838747   -1.883390
     10          1           0       -3.837502    0.700692    2.084089
     11          1           0       -1.859244   -0.615628    2.880257
     12          7           0       -4.808306    0.763530   -0.398174
     13          8           0       -5.396961    1.452714    0.431975
     14          8           0       -5.113673    0.670083   -1.585042
     15          6           0        3.970879    2.602612    0.067294
     16          6           0        4.967971    1.651185    0.306278
     17          6           0        4.688910    0.286080    0.191561
     18          6           0        3.396137   -0.094000   -0.165604
     19          6           0        2.381283    0.829883   -0.410149
     20          6           0        2.682987    2.189652   -0.289528
     21          1           0        4.196455    3.660986    0.158701
     22          1           0        5.969054    1.968995    0.583544
     23          1           0        5.441921   -0.471701    0.370893
     24          1           0        1.392725    0.482511   -0.684929
     25          1           0        1.906651    2.926319   -0.475722
     26          7           0        3.088721   -1.536351   -0.290174
     27          8           0        1.941875   -1.845399   -0.606197
     28          8           0        4.000436   -2.330509   -0.069430
 ---------------------------------------------------------------------

 SCF Done:  E(RHF) =  -868.340699739     A.U. after   16 cycles
 E2 =    -0.2598957876D+01 EUMP2 =    -0.87093965761590D+03

 The electronic state is 1-A.
 Alpha  occ. eigenvalues --  -20.61780 -20.61701 -20.60560 -20.60552 -15.86775
 Alpha  occ. eigenvalues --  -15.85606 -11.31829 -11.30832 -11.28360 -11.28343
 Alpha  occ. eigenvalues --  -11.28037 -11.27413 -11.27336 -11.27306 -11.27280
 Alpha  occ. eigenvalues --  -11.26910 -11.26352 -11.26171  -1.60806  -1.59640
 Alpha  occ. eigenvalues --   -1.40371  -1.39196  -1.19973  -1.18972  -1.09424
 Alpha  occ. eigenvalues --   -1.08350  -1.05324  -1.04344  -0.96310  -0.95214
 Alpha  occ. eigenvalues --   -0.86736  -0.85710  -0.83156  -0.82053  -0.78237
 Alpha  occ. eigenvalues --   -0.77153  -0.73020  -0.72117  -0.71820  -0.71069
 Alpha  occ. eigenvalues --   -0.70968  -0.69951  -0.65628  -0.65315  -0.64585
 Alpha  occ. eigenvalues --   -0.64271  -0.62669  -0.61674  -0.55830  -0.54701
 Alpha  occ. eigenvalues --   -0.53678  -0.53410  -0.52698  -0.52381  -0.49768
 Alpha  occ. eigenvalues --   -0.49721  -0.48590  -0.48564  -0.45838  -0.44634
 Alpha  occ. eigenvalues --   -0.37939  -0.36944  -0.36870  -0.35980
 Alpha virt. eigenvalues --    0.04237   0.05370   0.10738   0.11643   0.15787
 Alpha virt. eigenvalues --    0.16925   0.20894   0.22096   0.26836   0.27448
 Alpha virt. eigenvalues --    0.28106   0.29005   0.30566   0.31782   0.31885

 Mulliken charges:
               1
     1  C   -0.173919
     2  C   -0.223370
     3  C   -0.175055
     4  C    0.156829
     5  C   -0.173284
     6  C   -0.221502
     7  H    0.239012
     8  H    0.237881
     9  H    0.274321
    10  H    0.273048
    11  H    0.221494
    12  N    0.488042
    13  O   -0.462507
    14  O   -0.461495
    15  C   -0.169851
    16  C   -0.218724
    17  C   -0.170756
    18  C    0.156557
    19  C   -0.172622
    20  C   -0.219105
    21  H    0.228360
    22  H    0.225413
    23  H    0.276136
    24  H    0.276118
    25  H    0.227426
    26  N    0.490329
    27  O   -0.473242
    28  O   -0.455535
 Sum of Mulliken charges =  -0.00000

 Dipole moment (field-independent basis, Debye):
    X=              5.5936    Y=              2.2894    Z=              2.0614  Tot=              6.3858
 Quadrupole moment (field-independent basis, Debye-Ang):
   XX=           -123.8867   YY=           -105.3987   ZZ=           -101.1875
   XY=             26.4158   XZ=             -3.5576   YZ=              0.4509

 Normal termination of Gaussian 16 at Wed May  5 21:00:38 2021.
