 Gaussian 16, Revision A.03,
 Gaussian 16:  EM64L-G16RevA.03 25-Dec-2016

 -------------
 #p 6-31g* mp2
 -------------

 ------------------------------------------------------
 Input file generated by CHIRIPA (05-May-2021 14:55:24)
 ------------------------------------------------------
 Symbolic Z-matrix:
 Charge =  0 Multiplicity = 1

                         Standard orientation:
 ---------------------------------------------------------------------
 Center     Atomic      Atomic             Coordinates (Angstroms)
 Number     Number       Type             X           Y           Z
 ---------------------------------------------------------------------
      1          6           0       -2.965900   -2.120152   -0.659993
      2          6           0       -3.951518   -1.432255    0.055461
      3          6           0       -3.811635   -0.067381    0.323977
      4          6           0       -2.668227    0.581194   -0.139983
      5          6           0       -1.668761   -0.076484   -0.855398
      6          6           0       -1.829670   -1.441268   -1.112341
      7          1           0       -3.082731   -3.180384   -0.864087
      8          1           0       -4.834979   -1.956913    0.407989
      9          1           0       -4.559252    0.489600    0.875573
     10          1           0       -0.799148    0.473628   -1.193878
     11          1           0       -1.062610   -1.972937   -1.668212
     12          7           0       -2.509009    2.026077    0.138157
     13          8           0       -1.492324    2.574587   -0.281515
     14          8           0       -3.403915    2.582707    0.770568
     15          6           0        3.978946   -0.208002   -0.261234
     16          6           0        4.943754    0.828632    0.315412
     17          6           0        5.998272    1.281203   -0.695018
     18          1           0        4.551523   -1.078160   -0.610411
     19          1           0        3.482859    0.215113   -1.145692
     20          1           0        5.436852    0.404185    1.199332
     21          1           0        4.368797    1.696343    0.663432
     22          1           0        5.522780    1.729263   -1.573511
     23          1           0        6.596904    0.429764   -1.034566
     24          1           0        6.677393    2.022179   -0.261879
     25          6           0        2.918893   -0.670230    0.736944
     26          6           0        1.954084   -1.706864    0.160298
     27          6           0        0.899567   -2.159435    1.170728
     28          1           0        3.414979   -1.093345    1.621402
     29          1           0        2.346316    0.199928    1.086122
     30          1           0        2.529042   -2.574574   -0.187722
     31          1           0        1.460986   -1.282417   -0.723622
     32          1           0        0.300935   -1.307997    1.510276
     33          1           0        1.375058   -2.607495    2.049222
     34          1           0        0.220445   -2.900412    0.737589
 ---------------------------------------------------------------------

 SCF Done:  E(RHF) =  -669.534983178     A.U. after   15 cycles
 E2 =    -0.2092946952D+01 EUMP2 =    -0.67162793013049D+03

 The electronic state is 1-A.
 Alpha  occ. eigenvalues --  -20.60810 -20.60803 -15.85862 -11.31225 -11.27767
 Alpha  occ. eigenvalues --  -11.27764 -11.27502 -11.26795 -11.26773 -11.22118
 Alpha  occ. eigenvalues --  -11.21616 -11.21597 -11.21506 -11.21416 -11.21050
 Alpha  occ. eigenvalues --   -1.59885  -1.39438  -1.19386  -1.08786  -1.08641
 Alpha  occ. eigenvalues --   -1.04795  -1.03740  -0.96170  -0.95619  -0.87190
 Alpha  occ. eigenvalues --   -0.86182  -0.82453  -0.79832  -0.78439  -0.77502
 Alpha  occ. eigenvalues --   -0.72080  -0.71209  -0.70492  -0.65301  -0.65024
 Alpha  occ. eigenvalues --   -0.64798  -0.62187  -0.61109  -0.59567  -0.57790
 Alpha  occ. eigenvalues --   -0.55486  -0.55279  -0.53192  -0.52903  -0.52753
 Alpha  occ. eigenvalues --   -0.52556  -0.50089  -0.48837  -0.48835  -0.48142
 Alpha  occ. eigenvalues --   -0.46870  -0.45980  -0.45882  -0.44844  -0.43997
 Alpha  occ. eigenvalues --   -0.37349  -0.36326
 Alpha virt. eigenvalues --    0.05003   0.11191   0.16441   0.19927   0.22879
 Alpha virt. eigenvalues --    0.24120   0.25569   0.26682   0.27082   0.28470
 Alpha virt. eigenvalues --    0.28936   0.30534   0.31099   0.31444   0.32339

 Mulliken charges:
               1
     1  C   -0.172231
     2  C   -0.217961
     3  C   -0.171292
     4  C    0.157998
     5  C   -0.172275
     6  C   -0.213123
     7  H    0.225625
     8  H    0.223624
     9  H    0.275607
    10  H    0.275254
    11  H    0.225365
    12  N    0.488140
    13  O   -0.460977
    14  O   -0.460065
    15  C   -0.298113
    16  C   -0.300620
    17  C   -0.475993
    18  H    0.148486
    19  H    0.148629
    20  H    0.151786
    21  H    0.156310
    22  H    0.156107
    23  H    0.153988
    24  H    0.161480
    25  C   -0.299850
    26  C   -0.301296
    27  C   -0.473862
    28  H    0.151143
    29  H    0.155774
    30  H    0.152046
    31  H    0.140596
    32  H    0.160698
    33  H    0.156321
    34  H    0.152684
 Sum of Mulliken charges =  -0.00000

 Dipole moment (field-independent basis, Debye):
    X=             -0.5436    Y=             -5.0309    Z=             -0.9058  Tot=              5.1406
 Quadrupole moment (field-independent basis, Debye-Ang):
   XX=            -88.0620   YY=           -101.1049   ZZ=            -94.2389
   XY=             12.8832   XZ=              1.1388   YZ=              0.2069

 Normal termination of Gaussian 16 at Thu May  6 01:34:06 2021.
