 Gaussian 16, Revision A.03,
 Gaussian 16:  EM64L-G16RevA.03 25-Dec-2016

 -------------
 #p 6-31g* mp2
 -------------

 ------------------------------------------------------
 Input file generated by CHIRIPA (05-May-2021 14:55:24)
 ------------------------------------------------------
 Symbolic Z-matrix:
 Charge =  0 Multiplicity = 1

                         Standard orientation:
 ---------------------------------------------------------------------
 Center     Atomic      Atomic             Coordinates (Angstroms)
 Number     Number       Type             X           Y           Z
 ---------------------------------------------------------------------
      1          6           0        1.244337    1.415100    1.999996
      2          6           0        2.326311    1.793180    1.198180
      3          6           0        2.855893    0.906358    0.256035
      4          6           0        2.276416   -0.356353    0.141756
      5          6           0        1.197871   -0.762466    0.926040
      6          6           0        0.684557    0.140730    1.861611
      7          1           0        0.839263    2.110364    2.729324
      8          1           0        2.763055    2.782226    1.303470
      9          1           0        3.693038    1.173092   -0.377573
     10          1           0        0.783704   -1.755195    0.798086
     11          1           0       -0.155769   -0.155613    2.482963
     12          7           0        2.828450   -1.303859   -0.852171
     13          8           0        2.300031   -2.410568   -0.933436
     14          8           0        3.779101   -0.921863   -1.531126
     15          6           0       -3.377874   -0.157238   -0.116423
     16          6           0       -3.028359   -1.631547    0.089092
     17          6           0       -4.199869   -2.445709    0.639092
     18          1           0       -3.707405    0.271646    0.839827
     19          1           0       -4.232152   -0.082453   -0.803455
     20          1           0       -2.174116   -1.703469    0.774447
     21          1           0       -2.699440   -2.056922   -0.867717
     22          1           0       -5.053227   -2.403713   -0.045464
     23          1           0       -4.524918   -2.048252    1.606031
     24          1           0       -3.928053   -3.496701    0.778349
     25          6           0       -2.216838    0.669729   -0.665829
     26          6           0       -2.566353    2.144039   -0.871344
     27          6           0       -1.394843    2.958201   -1.421343
     28          1           0       -1.362560    0.594945    0.021203
     29          1           0       -1.887308    0.240845   -1.622078
     30          1           0       -2.895271    2.569414    0.085466
     31          1           0       -3.420596    2.215961   -1.556699
     32          1           0       -1.069795    2.560743   -2.388283
     33          1           0       -0.541484    2.916204   -0.736787
     34          1           0       -1.666659    4.009192   -1.560601
 ---------------------------------------------------------------------

 SCF Done:  E(RHF) =  -669.534854034     A.U. after   15 cycles
 E2 =    -0.2094167002D+01 EUMP2 =    -0.67162902103617D+03

 The electronic state is 1-A.
 Alpha  occ. eigenvalues --  -20.60821 -20.60816 -15.85876 -11.31280 -11.27864
 Alpha  occ. eigenvalues --  -11.27848 -11.27631 -11.26904 -11.26874 -11.22030
 Alpha  occ. eigenvalues --  -11.21835 -11.21700 -11.21439 -11.21401 -11.21266
 Alpha  occ. eigenvalues --   -1.59895  -1.39447  -1.19479  -1.08871  -1.08703
 Alpha  occ. eigenvalues --   -1.04893  -1.03820  -0.96247  -0.95684  -0.87266
 Alpha  occ. eigenvalues --   -0.86277  -0.82521  -0.79894  -0.78529  -0.77543
 Alpha  occ. eigenvalues --   -0.72095  -0.71217  -0.70573  -0.65410  -0.65120
 Alpha  occ. eigenvalues --   -0.64864  -0.62228  -0.61233  -0.59615  -0.57863
 Alpha  occ. eigenvalues --   -0.55553  -0.55381  -0.53304  -0.52973  -0.52941
 Alpha  occ. eigenvalues --   -0.52651  -0.50204  -0.48858  -0.48846  -0.48195
 Alpha  occ. eigenvalues --   -0.46947  -0.46034  -0.45974  -0.44841  -0.44052
 Alpha  occ. eigenvalues --   -0.37440  -0.36366
 Alpha virt. eigenvalues --    0.04964   0.11094   0.16343   0.19900   0.22990
 Alpha virt. eigenvalues --    0.23672   0.25469   0.26641   0.27497   0.28116
 Alpha virt. eigenvalues --    0.29078   0.30624   0.31401   0.31549   0.32131

 Mulliken charges:
               1
     1  C   -0.170329
     2  C   -0.218716
     3  C   -0.170156
     4  C    0.159932
     5  C   -0.168397
     6  C   -0.222994
     7  H    0.226584
     8  H    0.224539
     9  H    0.276346
    10  H    0.277900
    11  H    0.225351
    12  N    0.488089
    13  O   -0.459929
    14  O   -0.460167
    15  C   -0.297998
    16  C   -0.299498
    17  C   -0.475870
    18  H    0.145027
    19  H    0.151824
    20  H    0.139932
    21  H    0.159075
    22  H    0.157909
    23  H    0.152972
    24  H    0.162234
    25  C   -0.309094
    26  C   -0.298313
    27  C   -0.477908
    28  H    0.158034
    29  H    0.152671
    30  H    0.147079
    31  H    0.152960
    32  H    0.158179
    33  H    0.153877
    34  H    0.158853
 Sum of Mulliken charges =  -0.00000

 Dipole moment (field-independent basis, Debye):
    X=             -1.8460    Y=              3.2730    Z=              3.4458  Tot=              5.0984
 Quadrupole moment (field-independent basis, Debye-Ang):
   XX=           -102.1646   YY=            -95.7696   ZZ=            -93.2022
   XY=             10.8698   XZ=              7.5283   YZ=             -1.1612

 Normal termination of Gaussian 16 at Thu May  6 03:11:48 2021.
