 Gaussian 16, Revision A.03,
 Gaussian 16:  EM64L-G16RevA.03 25-Dec-2016

 -------------
 #p 6-31g* mp2
 -------------

 ------------------------------------------------------
 Input file generated by CHIRIPA (05-May-2021 14:51:14)
 ------------------------------------------------------
 Symbolic Z-matrix:
 Charge =  0 Multiplicity = 1

                         Standard orientation:
 ---------------------------------------------------------------------
 Center     Atomic      Atomic             Coordinates (Angstroms)
 Number     Number       Type             X           Y           Z
 ---------------------------------------------------------------------
      1          6           0       -3.938650   -0.517119    0.006565
      2          6           0       -4.371877    0.545404   -1.004051
      3          6           0       -5.890534    0.706766   -1.077792
      4          1           0       -4.398337   -1.478206   -0.261656
      5          1           0       -4.328548   -0.250193    0.998596
      6          1           0       -3.980111    0.277277   -1.993618
      7          1           0       -3.910951    1.504032   -0.733503
      8          1           0       -6.294802    0.997826   -0.102880
      9          1           0       -6.364355   -0.235899   -1.370155
     10          1           0       -6.178125    1.471271   -1.806272
     11          6           0       -2.423203   -0.690028    0.091724
     12          6           0       -1.989976   -1.752551    1.102340
     13          6           0       -0.471319   -1.913913    1.176081
     14          1           0       -2.033305   -0.956954   -0.900307
     15          1           0       -1.963516    0.271060    0.359945
     16          1           0       -2.450901   -2.711178    0.831792
     17          1           0       -2.381742   -1.484424    2.091907
     18          1           0        0.002502   -0.971248    1.468445
     19          1           0       -0.067050   -2.204972    0.201170
     20          1           0       -0.183727   -2.678418    1.904562
     21          6           0        3.924897    0.431148   -0.063626
     22          6           0        4.256889   -0.745393   -0.982059
     23          6           0        5.749079   -1.078299   -1.000378
     24          1           0        4.494800    1.312867   -0.387237
     25          1           0        4.262041    0.197951    0.955859
     26          1           0        3.917973   -0.510615   -1.999226
     27          1           0        3.685985   -1.624364   -0.656341
     28          1           0        6.098146   -1.338281    0.004193
     29          1           0        6.331455   -0.218204   -1.346324
     30          1           0        5.964015   -1.922280   -1.663219
     31          6           0        2.436956    0.775999   -0.034664
     32          6           0        2.104964    1.952539    0.883769
     33          6           0        0.612773    2.285445    0.902089
     34          1           0        2.099812    1.009196   -1.054148
     35          1           0        1.867053   -0.105722    0.288947
     36          1           0        2.675869    2.831510    0.558051
     37          1           0        2.443879    1.717761    1.900937
     38          1           0        0.030399    1.425350    1.248034
     39          1           0        0.263706    2.545428   -0.102482
     40          1           0        0.397837    3.129427    1.564930
 ---------------------------------------------------------------------

 SCF Done:  E(RHF) =  -470.732025302     A.U. after   11 cycles
 E2 =    -0.1584306705D+01 EUMP2 =    -0.47231633200701D+03

 The electronic state is 1-A.
 Alpha  occ. eigenvalues --  -11.21624 -11.21585 -11.21574 -11.21555 -11.21370
 Alpha  occ. eigenvalues --  -11.21326 -11.21305 -11.21238 -11.21119 -11.21085
 Alpha  occ. eigenvalues --  -11.21050 -11.21036  -1.08435  -1.08367  -1.03568
 Alpha  occ. eigenvalues --   -1.03482  -0.96001  -0.95948  -0.87043  -0.86950
 Alpha  occ. eigenvalues --   -0.79702  -0.79503  -0.78320  -0.78084  -0.65160
 Alpha  occ. eigenvalues --   -0.64945  -0.61131  -0.60756  -0.59411  -0.59264
 Alpha  occ. eigenvalues --   -0.57651  -0.57519  -0.55293  -0.55250  -0.52707
 Alpha  occ. eigenvalues --   -0.52666  -0.52550  -0.52260  -0.49956  -0.49909
 Alpha  occ. eigenvalues --   -0.48232  -0.47774  -0.46804  -0.46454  -0.46011
 Alpha  occ. eigenvalues --   -0.45701  -0.45659  -0.45086  -0.43781  -0.43744
 Alpha virt. eigenvalues --    0.21236   0.22922   0.23621   0.24797   0.25799
 Alpha virt. eigenvalues --    0.26137   0.26891   0.27464   0.28729   0.29737
 Alpha virt. eigenvalues --    0.30315   0.31626   0.31690   0.31838   0.31982

 Mulliken charges:
               1
     1  C   -0.297787
     2  C   -0.299775
     3  C   -0.475690
     4  H    0.149412
     5  H    0.149346
     6  H    0.151783
     7  H    0.152489
     8  H    0.155170
     9  H    0.155066
    10  H    0.160169
    11  C   -0.304819
    12  C   -0.299477
    13  C   -0.483241
    14  H    0.149457
    15  H    0.156906
    16  H    0.152105
    17  H    0.151604
    18  H    0.161126
    19  H    0.156378
    20  H    0.160426
    21  C   -0.297537
    22  C   -0.299809
    23  C   -0.475639
    24  H    0.149165
    25  H    0.149200
    26  H    0.151636
    27  H    0.152300
    28  H    0.155156
    29  H    0.155058
    30  H    0.160028
    31  C   -0.306808
    32  C   -0.299364
    33  C   -0.483570
    34  H    0.148861
    35  H    0.159858
    36  H    0.151983
    37  H    0.151324
    38  H    0.161304
    39  H    0.156008
    40  H    0.160199
 Sum of Mulliken charges =  -0.00000

 Dipole moment (field-independent basis, Debye):
    X=             -0.0188    Y=             -0.0120    Z=              0.0030  Tot=              0.0225
 Quadrupole moment (field-independent basis, Debye-Ang):
   XX=            -87.2292   YY=            -84.0982   ZZ=            -83.6999
   XY=              0.6713   XZ=             -0.1163   YZ=              0.0043

 Normal termination of Gaussian 16 at Wed May  5 20:01:21 2021.
