 Gaussian 16, Revision A.03,
 Gaussian 16:  EM64L-G16RevA.03 25-Dec-2016

 -------------
 #p 6-31g* mp2
 -------------

 ------------------------------------------------------
 Input file generated by CHIRIPA (05-May-2021 14:51:10)
 ------------------------------------------------------
 Symbolic Z-matrix:
 Charge =  0 Multiplicity = 1

                         Standard orientation:
 ---------------------------------------------------------------------
 Center     Atomic      Atomic             Coordinates (Angstroms)
 Number     Number       Type             X           Y           Z
 ---------------------------------------------------------------------
      1          6           0       -2.209653   -0.108199    1.239224
      2          6           0       -1.319443    1.068881    1.639213
      3          6           0       -0.824749    0.972142    3.082720
      4          1           0       -3.069991   -0.157175    1.920667
      5          1           0       -1.650343   -1.044339    1.374167
      6          1           0       -1.879797    2.002614    1.502241
      7          1           0       -0.461224    1.115176    0.956619
      8          1           0       -0.242890    0.056528    3.230002
      9          1           0       -1.669523    0.949008    3.778724
     10          1           0       -0.190195    1.823648    3.347560
     11          6           0       -2.712062   -0.025753   -0.201094
     12          6           0       -3.602273   -1.202834   -0.601084
     13          6           0       -4.096967   -1.106095   -2.044591
     14          1           0       -3.271372    0.910387   -0.336038
     15          1           0       -1.851724    0.023222   -0.882538
     16          1           0       -4.460491   -1.249129    0.081510
     17          1           0       -3.041918   -2.136567   -0.464112
     18          1           0       -3.252192   -1.082960   -2.740595
     19          1           0       -4.678825   -0.190480   -2.191873
     20          1           0       -4.731520   -1.957600   -2.309431
     21          6           0        2.010057    0.508494   -0.949499
     22          6           0        2.232711    2.004387   -0.724302
     23          6           0        1.323550    2.874669   -1.592536
     24          1           0        2.179348    0.274553   -2.009478
     25          1           0        0.959132    0.265651   -0.739787
     26          1           0        3.283230    2.244085   -0.933041
     27          1           0        2.063057    2.234760    0.335301
     28          1           0        0.270546    2.664435   -1.379037
     29          1           0        1.497650    2.673814   -2.654585
     30          1           0        1.499412    3.940313   -1.415520
     31          6           0        2.911658   -0.374541   -0.088631
     32          6           0        2.689004   -1.870434   -0.313827
     33          6           0        3.598165   -2.740717    0.554408
     34          1           0        3.962583   -0.131698   -0.298342
     35          1           0        2.742368   -0.140600    0.971350
     36          1           0        2.858658   -2.100807   -1.373431
     37          1           0        1.638486   -2.110133   -0.105089
     38          1           0        3.424065   -2.539861    1.616456
     39          1           0        4.651170   -2.530483    0.340907
     40          1           0        3.422304   -3.806361    0.377390
 ---------------------------------------------------------------------

 SCF Done:  E(RHF) =  -470.733136017     A.U. after   11 cycles
 E2 =    -0.1584329789D+01 EUMP2 =    -0.47231746580611D+03

 The electronic state is 1-A.
 Alpha  occ. eigenvalues --  -11.21658 -11.21645 -11.21636 -11.21626 -11.21467
 Alpha  occ. eigenvalues --  -11.21450 -11.21407 -11.21390 -11.21143 -11.21112
 Alpha  occ. eigenvalues --  -11.21085 -11.21062  -1.08529  -1.08442  -1.03602
 Alpha  occ. eigenvalues --   -1.03542  -0.96028  -0.96010  -0.87050  -0.87022
 Alpha  occ. eigenvalues --   -0.79654  -0.79621  -0.78388  -0.78216  -0.65455
 Alpha  occ. eigenvalues --   -0.64830  -0.61127  -0.60817  -0.59399  -0.59365
 Alpha  occ. eigenvalues --   -0.57637  -0.57620  -0.55318  -0.55298  -0.52721
 Alpha  occ. eigenvalues --   -0.52700  -0.52453  -0.52433  -0.50039  -0.49899
 Alpha  occ. eigenvalues --   -0.48027  -0.47902  -0.46752  -0.46649  -0.46212
 Alpha  occ. eigenvalues --   -0.45801  -0.45790  -0.45246  -0.43835  -0.43820
 Alpha virt. eigenvalues --    0.19239   0.22996   0.23288   0.24671   0.25235
 Alpha virt. eigenvalues --    0.26465   0.26882   0.28092   0.28734   0.30172
 Alpha virt. eigenvalues --    0.30656   0.31429   0.31682   0.31716   0.32377

 Mulliken charges:
               1
     1  C   -0.297824
     2  C   -0.309903
     3  C   -0.475548
     4  H    0.150236
     5  H    0.148989
     6  H    0.152357
     7  H    0.162023
     8  H    0.154724
     9  H    0.155734
    10  H    0.160258
    11  C   -0.302666
    12  C   -0.299487
    13  C   -0.475875
    14  H    0.149889
    15  H    0.152507
    16  H    0.152164
    17  H    0.152002
    18  H    0.155629
    19  H    0.155269
    20  H    0.160369
    21  C   -0.305826
    22  C   -0.300880
    23  C   -0.477774
    24  H    0.150340
    25  H    0.154573
    26  H    0.152598
    27  H    0.152825
    28  H    0.157438
    29  H    0.155020
    30  H    0.160382
    31  C   -0.298668
    32  C   -0.299668
    33  C   -0.475737
    34  H    0.150082
    35  H    0.150174
    36  H    0.152163
    37  H    0.151044
    38  H    0.155247
    39  H    0.155453
    40  H    0.160365
 Sum of Mulliken charges =  -0.00000

 Dipole moment (field-independent basis, Debye):
    X=             -0.0033    Y=              0.0060    Z=             -0.0041  Tot=              0.0080
 Quadrupole moment (field-independent basis, Debye-Ang):
   XX=            -84.0250   YY=            -85.0969   ZZ=            -85.4928
   XY=             -0.0168   XZ=             -1.5658   YZ=              0.5275

 Normal termination of Gaussian 16 at Thu May  6 03:46:54 2021.
