 Gaussian 16, Revision A.03,
 Gaussian 16:  EM64L-G16RevA.03 25-Dec-2016

 -------------
 #p 6-31g* mp2
 -------------

 ------------------------------------------------------
 Input file generated by CHIRIPA (05-May-2021 14:51:13)
 ------------------------------------------------------
 Symbolic Z-matrix:
 Charge =  0 Multiplicity = 1

                         Standard orientation:
 ---------------------------------------------------------------------
 Center     Atomic      Atomic             Coordinates (Angstroms)
 Number     Number       Type             X           Y           Z
 ---------------------------------------------------------------------
      1          6           0       -3.502533   -0.570997    0.027371
      2          6           0       -3.937651    0.769244   -0.566273
      3          6           0       -5.431347    0.815534   -0.889573
      4          1           0       -3.751537   -1.375445   -0.678182
      5          1           0       -4.082419   -0.765304    0.940263
      6          1           0       -3.356140    0.961617   -1.477017
      7          1           0       -3.687409    1.570614    0.140693
      8          1           0       -6.026450    0.648905    0.014135
      9          1           0       -5.693299    0.036448   -1.612766
     10          1           0       -5.720718    1.782472   -1.312840
     11          6           0       -2.011889   -0.632709    0.355852
     12          6           0       -1.576771   -1.972949    0.949496
     13          6           0       -0.083075   -2.019239    1.272797
     14          1           0       -1.432004   -0.438402   -0.557040
     15          1           0       -1.762886    0.171739    1.061406
     16          1           0       -1.827013   -2.774320    0.242531
     17          1           0       -2.158282   -2.165322    1.860240
     18          1           0        0.178876   -1.240153    1.995989
     19          1           0        0.512027   -1.852611    0.369088
     20          1           0        0.206296   -2.986178    1.696063
     21          6           0        2.456421    1.278267   -0.379817
     22          6           0        2.337855    2.239484    0.803394
     23          6           0        1.734372    3.588422    0.411008
     24          1           0        3.072157    1.743508   -1.161716
     25          1           0        1.460756    1.122135   -0.817615
     26          1           0        3.333242    2.392674    1.239689
     27          1           0        1.722488    1.771823    1.582647
     28          1           0        0.730317    3.455012   -0.004534
     29          1           0        2.350222    4.079390   -0.349441
     30          1           0        1.658783    4.260062    1.271849
     31          6           0        3.058001   -0.074561   -0.003407
     32          6           0        3.176568   -1.035779   -1.186617
     33          6           0        3.780050   -2.384717   -0.794231
     34          1           0        4.053667    0.081571    0.434392
     35          1           0        2.442267   -0.539802    0.778493
     36          1           0        3.791933   -0.568117   -1.965870
     37          1           0        2.181181   -1.188967   -1.622913
     38          1           0        3.164200   -2.875684   -0.033783
     39          1           0        4.784105   -2.251306   -0.378688
     40          1           0        3.855639   -3.056355   -1.655072
 ---------------------------------------------------------------------

 SCF Done:  E(RHF) =  -470.732612224     A.U. after   11 cycles
 E2 =    -0.1584277858D+01 EUMP2 =    -0.47231689008159D+03

 The electronic state is 1-A.
 Alpha  occ. eigenvalues --  -11.21697 -11.21655 -11.21565 -11.21552 -11.21497
 Alpha  occ. eigenvalues --  -11.21428 -11.21307 -11.21192 -11.21176 -11.21109
 Alpha  occ. eigenvalues --  -11.21029 -11.21015  -1.08520  -1.08353  -1.03622
 Alpha  occ. eigenvalues --   -1.03472  -0.96074  -0.95912  -0.87110  -0.86921
 Alpha  occ. eigenvalues --   -0.79705  -0.79531  -0.78336  -0.78154  -0.65210
 Alpha  occ. eigenvalues --   -0.64974  -0.61148  -0.60770  -0.59432  -0.59286
 Alpha  occ. eigenvalues --   -0.57697  -0.57506  -0.55359  -0.55191  -0.52761
 Alpha  occ. eigenvalues --   -0.52625  -0.52543  -0.52311  -0.50037  -0.49822
 Alpha  occ. eigenvalues --   -0.48064  -0.47820  -0.46706  -0.46577  -0.46010
 Alpha  occ. eigenvalues --   -0.45830  -0.45594  -0.45419  -0.43864  -0.43715
 Alpha virt. eigenvalues --    0.20081   0.22992   0.23552   0.24780   0.24899
 Alpha virt. eigenvalues --    0.25954   0.27280   0.27754   0.28501   0.30116
 Alpha virt. eigenvalues --    0.30330   0.30941   0.31624   0.32043   0.32371

 Mulliken charges:
               1
     1  C   -0.298316
     2  C   -0.299808
     3  C   -0.475764
     4  H    0.149936
     5  H    0.149901
     6  H    0.151943
     7  H    0.152070
     8  H    0.155299
     9  H    0.155292
    10  H    0.160522
    11  C   -0.299370
    12  C   -0.300064
    13  C   -0.483247
    14  H    0.149520
    15  H    0.149720
    16  H    0.152417
    17  H    0.152379
    18  H    0.155598
    19  H    0.163368
    20  H    0.160925
    21  C   -0.298724
    22  C   -0.299636
    23  C   -0.475896
    24  H    0.149210
    25  H    0.149928
    26  H    0.151790
    27  H    0.151615
    28  H    0.155558
    29  H    0.155067
    30  H    0.159815
    31  C   -0.305927
    32  C   -0.301023
    33  C   -0.477424
    34  H    0.148962
    35  H    0.159630
    36  H    0.152435
    37  H    0.149984
    38  H    0.157322
    39  H    0.155280
    40  H    0.159713
 Sum of Mulliken charges =  -0.00000

 Dipole moment (field-independent basis, Debye):
    X=             -0.0478    Y=             -0.0318    Z=              0.0299  Tot=              0.0648
 Quadrupole moment (field-independent basis, Debye-Ang):
   XX=            -85.2120   YY=            -85.6340   ZZ=            -83.9782
   XY=              0.8738   XZ=             -0.6626   YZ=              0.3964

 Normal termination of Gaussian 16 at Wed May  5 21:33:55 2021.
