 Gaussian 16, Revision A.03,
 Gaussian 16:  EM64L-G16RevA.03 25-Dec-2016

 -------------
 #p 6-31g* mp2
 -------------

 ------------------------------------------------------
 Input file generated by CHIRIPA (05-May-2021 14:53:13)
 ------------------------------------------------------
 Symbolic Z-matrix:
 Charge =  0 Multiplicity = 1

                         Standard orientation:
 ---------------------------------------------------------------------
 Center     Atomic      Atomic             Coordinates (Angstroms)
 Number     Number       Type             X           Y           Z
 ---------------------------------------------------------------------
      1          6           0        4.512954   -0.223426   -0.313159
      2          6           0        4.779472    1.282203   -0.319011
      3          6           0        6.068618    1.651498   -1.053530
      4          1           0        5.363439   -0.738090    0.154539
      5          1           0        4.461376   -0.583643   -1.349971
      6          1           0        4.829155    1.639716    0.717489
      7          1           0        3.928168    1.793358   -0.786577
      8          1           0        6.025352    1.322441   -2.096818
      9          1           0        6.931459    1.167926   -0.584206
     10          1           0        6.239649    2.732490   -1.045559
     11          6           0        3.227717   -0.608317    0.417425
     12          6           0        2.961200   -2.113946    0.423276
     13          6           0        1.672054   -2.483241    1.157795
     14          1           0        3.279295   -0.248100    1.454236
     15          1           0        2.377232   -0.093653   -0.050274
     16          1           0        3.812504   -2.625101    0.890843
     17          1           0        2.911516   -2.471459   -0.613224
     18          1           0        0.809213   -1.999669    0.688471
     19          1           0        1.715320   -2.154184    2.201084
     20          1           0        1.501023   -3.564233    1.149824
     21          6           0       -2.211639    2.564449    0.790475
     22          6           0       -3.511653    2.432437    0.291418
     23          6           0       -3.972253    1.196385   -0.171799
     24          6           0       -3.102206    0.108388   -0.121087
     25          6           0       -1.801521    0.208035    0.370418
     26          6           0       -1.362220    1.453784    0.828316
     27          1           0       -1.862108    3.528410    1.148248
     28          1           0       -4.173519    3.293275    0.260828
     29          1           0       -4.973871    1.066056   -0.563198
     30          1           0       -1.164884   -0.668204    0.388232
     31          1           0       -0.352109    1.553358    1.215361
     32          7           0       -3.578549   -1.205298   -0.608658
     33          8           0       -2.792497   -2.148532   -0.553274
     34          8           0       -4.728939   -1.266856   -1.036970
 ---------------------------------------------------------------------

 SCF Done:  E(RHF) =  -669.535610293     A.U. after   15 cycles
 E2 =    -0.2091254645D+01 EUMP2 =    -0.67162686493719D+03

 The electronic state is 1-A.
 Alpha  occ. eigenvalues --  -20.60739 -20.60733 -15.85790 -11.31151 -11.27725
 Alpha  occ. eigenvalues --  -11.27708 -11.27468 -11.26744 -11.26721 -11.22023
 Alpha  occ. eigenvalues --  -11.21943 -11.21884 -11.21759 -11.21433 -11.21401
 Alpha  occ. eigenvalues --   -1.59814  -1.39367  -1.19326  -1.08845  -1.08723
 Alpha  occ. eigenvalues --   -1.04730  -1.03903  -0.96356  -0.95558  -0.87371
 Alpha  occ. eigenvalues --   -0.86128  -0.82389  -0.79969  -0.78682  -0.77435
 Alpha  occ. eigenvalues --   -0.72010  -0.71136  -0.70447  -0.65474  -0.64978
 Alpha  occ. eigenvalues --   -0.64738  -0.62120  -0.61267  -0.59711  -0.57970
 Alpha  occ. eigenvalues --   -0.55669  -0.55222  -0.53061  -0.53014  -0.52954
 Alpha  occ. eigenvalues --   -0.52652  -0.50290  -0.48769  -0.48766  -0.48284
 Alpha  occ. eigenvalues --   -0.46996  -0.46219  -0.46133  -0.44773  -0.44160
 Alpha  occ. eigenvalues --   -0.37310  -0.36332
 Alpha virt. eigenvalues --    0.05093   0.11320   0.16576   0.19659   0.22717
 Alpha virt. eigenvalues --    0.23709   0.25285   0.26456   0.26635   0.28215
 Alpha virt. eigenvalues --    0.29181   0.30190   0.31384   0.31557   0.31740

 Mulliken charges:
               1
     1  C   -0.298337
     2  C   -0.299889
     3  C   -0.475877
     4  H    0.151605
     5  H    0.152242
     6  H    0.150539
     7  H    0.150033
     8  H    0.156719
     9  H    0.156324
    10  H    0.160276
    11  C   -0.299075
    12  C   -0.300013
    13  C   -0.481080
    14  H    0.147346
    15  H    0.143569
    16  H    0.154091
    17  H    0.156460
    18  H    0.153299
    19  H    0.153405
    20  H    0.169265
    21  C   -0.170596
    22  C   -0.219106
    23  C   -0.169848
    24  C    0.158244
    25  C   -0.181891
    26  C   -0.224476
    27  H    0.225604
    28  H    0.223324
    29  H    0.275554
    30  H    0.291503
    31  H    0.225516
    32  N    0.486282
    33  O   -0.460555
    34  O   -0.460457
 Sum of Mulliken charges =  -0.00000

 Dipole moment (field-independent basis, Debye):
    X=              1.8084    Y=              4.5185    Z=              1.6953  Tot=              5.1538
 Quadrupole moment (field-independent basis, Debye-Ang):
   XX=           -101.4574   YY=            -93.1830   ZZ=            -95.2561
   XY=            -17.1321   XZ=             -3.6500   YZ=             -0.7552

 Normal termination of Gaussian 16 at Wed May  5 18:33:57 2021.
