 Gaussian 16, Revision A.03,
 Gaussian 16:  EM64L-G16RevA.03 25-Dec-2016

 -------------
 #p 6-31g* mp2
 -------------

 ------------------------------------------------------
 Input file generated by CHIRIPA (05-May-2021 14:53:13)
 ------------------------------------------------------
 Symbolic Z-matrix:
 Charge =  0 Multiplicity = 1

                         Standard orientation:
 ---------------------------------------------------------------------
 Center     Atomic      Atomic             Coordinates (Angstroms)
 Number     Number       Type             X           Y           Z
 ---------------------------------------------------------------------
      1          6           0        2.296626   -0.748006   -0.153112
      2          6           0        2.152381   -2.214701   -0.560524
      3          6           0        0.693841   -2.668065   -0.630640
      4          1           0        1.816695   -0.596418    0.823428
      5          1           0        1.750563   -0.119985   -0.870608
      6          1           0        2.699706   -2.839664    0.156744
      7          1           0        2.632879   -2.362857   -1.536120
      8          1           0        0.138970   -2.069350   -1.360201
      9          1           0        0.206177   -2.548867    0.342282
     10          1           0        0.613908   -3.719550   -0.923643
     11          6           0        3.748904   -0.279960   -0.078614
     12          6           0        3.893149    1.186735    0.328797
     13          6           0        5.351689    1.640098    0.398913
     14          1           0        4.294966   -0.907981    0.638882
     15          1           0        4.228835   -0.431549   -1.055155
     16          1           0        3.412651    1.334890    1.304394
     17          1           0        3.345824    1.811698   -0.388470
     18          1           0        5.839353    1.520900   -0.574008
     19          1           0        5.906560    1.041383    1.128474
     20          1           0        5.431621    2.691583    0.691916
     21          6           0       -2.134543    2.807209   -0.635566
     22          6           0       -2.339805    1.804617   -1.589084
     23          6           0       -2.466987    0.468356   -1.198217
     24          6           0       -2.383480    0.168979    0.160714
     25          6           0       -2.179597    1.145335    1.134597
     26          6           0       -2.055234    2.474954    0.720840
     27          1           0       -2.036840    3.842670   -0.948092
     28          1           0       -2.401813    2.059722   -2.643182
     29          1           0       -2.626445   -0.327717   -1.915335
     30          1           0       -2.122161    0.860181    2.178057
     31          1           0       -1.895884    3.251496    1.463563
     32          7           0       -2.516630   -1.242145    0.586623
     33          8           0       -2.439364   -1.479848    1.790021
     34          8           0       -2.695737   -2.083761   -0.291010
 ---------------------------------------------------------------------

 SCF Done:  E(RHF) =  -669.535841049     A.U. after   15 cycles
 E2 =    -0.2092605124D+01 EUMP2 =    -0.67162844617326D+03

 The electronic state is 1-A.
 Alpha  occ. eigenvalues --  -20.60844 -20.60831 -15.85845 -11.31220 -11.27789
 Alpha  occ. eigenvalues --  -11.27781 -11.27527 -11.26805 -11.26793 -11.21607
 Alpha  occ. eigenvalues --  -11.21246 -11.21128 -11.21105 -11.21060 -11.20221
 Alpha  occ. eigenvalues --   -1.59891  -1.39447  -1.19387  -1.08784  -1.08204
 Alpha  occ. eigenvalues --   -1.04792  -1.03235  -0.95672  -0.95609  -0.86670
 Alpha  occ. eigenvalues --   -0.86190  -0.82459  -0.79322  -0.78012  -0.77506
 Alpha  occ. eigenvalues --   -0.72085  -0.71205  -0.70500  -0.65046  -0.64843
 Alpha  occ. eigenvalues --   -0.64794  -0.62143  -0.60632  -0.59073  -0.57272
 Alpha  occ. eigenvalues --   -0.55296  -0.54947  -0.53121  -0.52887  -0.52322
 Alpha  occ. eigenvalues --   -0.52081  -0.49628  -0.48855  -0.48826  -0.47632
 Alpha  occ. eigenvalues --   -0.46370  -0.45580  -0.45467  -0.44730  -0.43480
 Alpha  occ. eigenvalues --   -0.37358  -0.36390
 Alpha virt. eigenvalues --    0.04997   0.11205   0.16490   0.21339   0.23033
 Alpha virt. eigenvalues --    0.24498   0.26722   0.27196   0.27539   0.27935
 Alpha virt. eigenvalues --    0.28638   0.30807   0.31358   0.31984   0.32413

 Mulliken charges:
               1
     1  C   -0.298301
     2  C   -0.301134
     3  C   -0.475660
     4  H    0.149514
     5  H    0.145959
     6  H    0.151806
     7  H    0.148519
     8  H    0.150407
     9  H    0.163953
    10  H    0.163302
    11  C   -0.297698
    12  C   -0.298802
    13  C   -0.475415
    14  H    0.150495
    15  H    0.148883
    16  H    0.150767
    17  H    0.149014
    18  H    0.155060
    19  H    0.156121
    20  H    0.158314
    21  C   -0.170616
    22  C   -0.218791
    23  C   -0.171814
    24  C    0.160340
    25  C   -0.170877
    26  C   -0.218076
    27  H    0.225715
    28  H    0.223463
    29  H    0.275738
    30  H    0.275428
    31  H    0.223613
    32  N    0.488261
    33  O   -0.461018
    34  O   -0.456470
 Sum of Mulliken charges =  -0.00000

 Dipole moment (field-independent basis, Debye):
    X=              0.3149    Y=              4.8879    Z=             -1.4670  Tot=              5.1130
 Quadrupole moment (field-independent basis, Debye-Ang):
   XX=            -99.1273   YY=            -93.1165   ZZ=            -89.8412
   XY=            -12.1819   XZ=              4.3973   YZ=              1.6720

 Normal termination of Gaussian 16 at Thu May  6 17:02:32 2021.
