 Gaussian 16, Revision A.03,
 Gaussian 16:  EM64L-G16RevA.03 25-Dec-2016

 -------------
 #p 6-31g* mp2
 -------------

 ------------------------------------------------------
 Input file generated by CHIRIPA (05-May-2021 14:51:09)
 ------------------------------------------------------
 Symbolic Z-matrix:
 Charge =  0 Multiplicity = 1

                         Standard orientation:
 ---------------------------------------------------------------------
 Center     Atomic      Atomic             Coordinates (Angstroms)
 Number     Number       Type             X           Y           Z
 ---------------------------------------------------------------------
      1          6           0       -2.776423   -0.437392    0.168664
      2          6           0       -1.940991   -0.235747    1.433328
      3          6           0       -0.516799   -0.774080    1.293083
      4          1           0       -2.809957   -1.508324   -0.074085
      5          1           0       -2.277286    0.058885   -0.675117
      6          1           0       -2.442259   -0.731082    2.274749
      7          1           0       -1.909601    0.834810    1.673203
      8          1           0        0.005532   -0.272473    0.472009
      9          1           0       -0.530153   -1.847262    1.076974
     10          1           0        0.062769   -0.619545    2.208550
     11          6           0       -4.202623    0.095649    0.293354
     12          6           0       -5.038055   -0.105997   -0.971311
     13          6           0       -6.462247    0.432336   -0.831065
     14          1           0       -4.701760   -0.400629    1.137135
     15          1           0       -4.169089    1.166580    0.536103
     16          1           0       -5.069445   -1.176553   -1.211185
     17          1           0       -4.536787    0.389338   -1.812732
     18          1           0       -6.448893    1.505518   -0.614956
     19          1           0       -6.984578   -0.069270   -0.009992
     20          1           0       -7.041815    0.277802   -1.746532
     21          6           0        3.223107    0.793635    0.122006
     22          6           0        3.631690    2.099259   -0.560921
     23          6           0        3.091134    3.336259    0.157009
     24          1           0        2.126900    0.740711    0.171746
     25          1           0        3.583025    0.802748    1.160164
     26          1           0        3.272305    2.087097   -1.597893
     27          1           0        4.727049    2.148994   -0.609212
     28          1           0        3.460151    3.375905    1.186988
     29          1           0        1.997142    3.313656    0.192689
     30          1           0        3.395122    4.258432   -0.348013
     31          6           0        3.755938   -0.451892   -0.584024
     32          6           0        3.347356   -1.757516    0.098904
     33          6           0        3.887912   -2.994516   -0.619027
     34          1           0        3.396021   -0.461003   -1.622182
     35          1           0        4.852146   -0.398966   -0.633763
     36          1           0        2.251996   -1.807250    0.147194
     37          1           0        3.706740   -1.745352    1.135876
     38          1           0        4.981903   -2.971913   -0.654707
     39          1           0        3.518894   -3.034161   -1.649005
     40          1           0        3.583923   -3.916688   -0.114005
 ---------------------------------------------------------------------

 SCF Done:  E(RHF) =  -470.732869127     A.U. after   11 cycles
 E2 =    -0.1583240007D+01 EUMP2 =    -0.47231610913409D+03

 The electronic state is 1-A.
 Alpha  occ. eigenvalues --  -11.21640 -11.21629 -11.21566 -11.21471 -11.21445
 Alpha  occ. eigenvalues --  -11.21384 -11.21326 -11.21265 -11.21112 -11.21092
 Alpha  occ. eigenvalues --  -11.21060 -11.20998  -1.08471  -1.08363  -1.03570
 Alpha  occ. eigenvalues --   -1.03467  -0.96027  -0.95921  -0.87046  -0.86940
 Alpha  occ. eigenvalues --   -0.79662  -0.79519  -0.78311  -0.78133  -0.65141
 Alpha  occ. eigenvalues --   -0.64977  -0.60981  -0.60862  -0.59384  -0.59289
 Alpha  occ. eigenvalues --   -0.57631  -0.57538  -0.55417  -0.55128  -0.52749
 Alpha  occ. eigenvalues --   -0.52604  -0.52448  -0.52351  -0.50056  -0.49806
 Alpha  occ. eigenvalues --   -0.48021  -0.47827  -0.46753  -0.46533  -0.45939
 Alpha  occ. eigenvalues --   -0.45761  -0.45685  -0.45339  -0.43808  -0.43713
 Alpha virt. eigenvalues --    0.21597   0.23013   0.24198   0.24264   0.25534
 Alpha virt. eigenvalues --    0.26600   0.26968   0.27572   0.27924   0.29545
 Alpha virt. eigenvalues --    0.30325   0.31558   0.31723   0.31935   0.32214

 Mulliken charges:
               1
     1  C   -0.298490
     2  C   -0.300688
     3  C   -0.479758
     4  H    0.149737
     5  H    0.149145
     6  H    0.152200
     7  H    0.152089
     8  H    0.158576
     9  H    0.155234
    10  H    0.162118
    11  C   -0.298290
    12  C   -0.299668
    13  C   -0.475733
    14  H    0.149699
    15  H    0.149744
    16  H    0.151983
    17  H    0.151869
    18  H    0.155242
    19  H    0.155253
    20  H    0.160334
    21  C   -0.305074
    22  C   -0.299157
    23  C   -0.475446
    24  H    0.156772
    25  H    0.149133
    26  H    0.151353
    27  H    0.151875
    28  H    0.155241
    29  H    0.154442
    30  H    0.160097
    31  C   -0.297724
    32  C   -0.305948
    33  C   -0.475466
    34  H    0.148610
    35  H    0.149262
    36  H    0.160891
    37  H    0.151206
    38  H    0.154762
    39  H    0.154737
    40  H    0.159838
 Sum of Mulliken charges =  -0.00000

 Dipole moment (field-independent basis, Debye):
    X=             -0.0474    Y=             -0.0104    Z=              0.0273  Tot=              0.0557
 Quadrupole moment (field-independent basis, Debye-Ang):
   XX=            -85.3881   YY=            -85.1207   ZZ=            -84.4995
   XY=              1.0154   XZ=              0.5044   YZ=             -0.7031

 Normal termination of Gaussian 16 at Wed May  5 15:08:19 2021.
