 Gaussian 16, Revision A.03,
 Gaussian 16:  EM64L-G16RevA.03 25-Dec-2016

 -------------
 #p 6-31g* mp2
 -------------

 ------------------------------------------------------
 Input file generated by CHIRIPA (05-May-2021 14:53:17)
 ------------------------------------------------------
 Symbolic Z-matrix:
 Charge =  0 Multiplicity = 1

                         Standard orientation:
 ---------------------------------------------------------------------
 Center     Atomic      Atomic             Coordinates (Angstroms)
 Number     Number       Type             X           Y           Z
 ---------------------------------------------------------------------
      1          6           0       -4.768586    0.009673   -0.221755
      2          6           0       -5.408098    1.386789   -0.041315
      3          6           0       -6.550966    1.641269   -1.024620
      4          1           0       -4.395912   -0.082472   -1.251108
      5          1           0       -5.539158   -0.763808   -0.097899
      6          1           0       -4.636273    2.157390   -0.164105
      7          1           0       -5.779122    1.475738    0.987784
      8          1           0       -7.341176    0.894086   -0.898574
      9          1           0       -6.191833    1.579610   -2.057008
     10          1           0       -6.993743    2.631376   -0.878009
     11          6           0       -3.624468   -0.259525    0.754081
     12          6           0       -2.984955   -1.636642    0.573641
     13          6           0       -1.842088   -1.891121    1.556946
     14          1           0       -2.853895    0.513955    0.630225
     15          1           0       -3.997141   -0.167380    1.783434
     16          1           0       -2.613931   -1.725591   -0.455458
     17          1           0       -3.756780   -2.407242    0.696431
     18          1           0       -2.201220   -1.829463    2.589333
     19          1           0       -1.051878   -1.143939    1.430899
     20          1           0       -1.399310   -2.881229    1.410335
     21          6           0        5.100978    1.665443    0.557889
     22          6           0        3.759190    2.045014    0.667663
     23          6           0        2.741116    1.184367    0.246521
     24          6           0        3.102349   -0.053975   -0.281978
     25          6           0        4.430033   -0.460881   -0.404353
     26          6           0        5.431534    0.415909    0.023175
     27          1           0        5.885405    2.340284    0.887523
     28          1           0        3.499526    3.014808    1.082536
     29          1           0        1.694253    1.452867    0.320028
     30          1           0        4.657797   -1.434051   -0.822062
     31          1           0        6.472736    0.118472   -0.063280
     32          7           0        2.033332   -0.973649   -0.731201
     33          8           0        2.377820   -2.059199   -1.193311
     34          8           0        0.871191   -0.591525   -0.612687
 ---------------------------------------------------------------------

 SCF Done:  E(RHF) =  -669.536129148     A.U. after   15 cycles
 E2 =    -0.2090972275D+01 EUMP2 =    -0.67162710142325D+03

 The electronic state is 1-A.
 Alpha  occ. eigenvalues --  -20.60957 -20.60952 -15.85986 -11.31303 -11.27869
 Alpha  occ. eigenvalues --  -11.27861 -11.27601 -11.26872 -11.26862 -11.21049
 Alpha  occ. eigenvalues --  -11.20634 -11.20611 -11.20460 -11.20352 -11.19672
 Alpha  occ. eigenvalues --   -1.60013  -1.39571  -1.19471  -1.08875  -1.07572
 Alpha  occ. eigenvalues --   -1.04867  -1.02616  -0.95721  -0.95076  -0.86268
 Alpha  occ. eigenvalues --   -0.86105  -0.82555  -0.78730  -0.77610  -0.77355
 Alpha  occ. eigenvalues --   -0.72217  -0.71325  -0.70581  -0.65129  -0.64870
 Alpha  occ. eigenvalues --   -0.64193  -0.62216  -0.59988  -0.58499  -0.56682
 Alpha  occ. eigenvalues --   -0.55371  -0.54353  -0.53197  -0.52959  -0.51779
 Alpha  occ. eigenvalues --   -0.51519  -0.49101  -0.48972  -0.48889  -0.47042
 Alpha  occ. eigenvalues --   -0.45795  -0.45036  -0.44872  -0.44686  -0.42894
 Alpha  occ. eigenvalues --   -0.37447  -0.36468
 Alpha virt. eigenvalues --    0.04895   0.11187   0.16367   0.21269   0.23662
 Alpha virt. eigenvalues --    0.25187   0.27090   0.27439   0.28110   0.28408
 Alpha virt. eigenvalues --    0.29013   0.30805   0.31947   0.32533   0.32698

 Mulliken charges:
               1
     1  C   -0.298094
     2  C   -0.298717
     3  C   -0.475239
     4  H    0.151573
     5  H    0.147838
     6  H    0.150045
     7  H    0.149984
     8  H    0.154609
     9  H    0.155233
    10  H    0.157708
    11  C   -0.297675
    12  C   -0.298936
    13  C   -0.477105
    14  H    0.149720
    15  H    0.144810
    16  H    0.162761
    17  H    0.145835
    18  H    0.143907
    19  H    0.167430
    20  H    0.160640
    21  C   -0.170597
    22  C   -0.218465
    23  C   -0.170674
    24  C    0.158327
    25  C   -0.170751
    26  C   -0.218524
    27  H    0.226050
    28  H    0.223904
    29  H    0.275139
    30  H    0.275890
    31  H    0.223867
    32  N    0.489786
    33  O   -0.458727
    34  O   -0.461552
 Sum of Mulliken charges =  -0.00000

 Dipole moment (field-independent basis, Debye):
    X=              4.0814    Y=              3.2143    Z=              1.4572  Tot=              5.3957
 Quadrupole moment (field-independent basis, Debye-Ang):
   XX=            -70.4986   YY=            -93.3097   ZZ=            -96.4310
   XY=              7.9880   XZ=              2.2741   YZ=              0.3292

 Normal termination of Gaussian 16 at Thu May  6 05:58:26 2021.
