 Gaussian 16, Revision A.03,
 Gaussian 16:  EM64L-G16RevA.03 25-Dec-2016

 -------------
 #p 6-31g* mp2
 -------------

 ------------------------------------------------------
 Input file generated by CHIRIPA (05-May-2021 14:55:19)
 ------------------------------------------------------
 Symbolic Z-matrix:
 Charge =  0 Multiplicity = 1

                         Standard orientation:
 ---------------------------------------------------------------------
 Center     Atomic      Atomic             Coordinates (Angstroms)
 Number     Number       Type             X           Y           Z
 ---------------------------------------------------------------------
      1          6           0        2.152546    2.046730    0.730864
      2          6           0        1.454655    1.045600    0.047337
      3          6           0        2.098077   -0.136428   -0.331298
      4          6           0        3.446149   -0.284740   -0.008816
      5          6           0        4.168692    0.694344    0.671342
      6          6           0        3.504953    1.868221    1.040139
      7          1           0        1.644829    2.961792    1.021175
      8          1           0        0.404299    1.181500   -0.194176
      9          1           0        1.581807   -0.927674   -0.861216
     10          1           0        5.215119    0.530084    0.898117
     11          1           0        4.049462    2.644013    1.570896
     12          7           0        4.138065   -1.531786   -0.404453
     13          8           0        5.326242   -1.638144   -0.108546
     14          8           0        3.479111   -2.379250   -1.002969
     15          6           0       -4.805014   -0.425128   -0.193452
     16          6           0       -4.817896   -1.534041    0.859227
     17          6           0       -5.903480   -2.579811    0.602972
     18          1           0       -5.788904    0.063199   -0.214468
     19          1           0       -4.657069   -0.872958   -1.185901
     20          1           0       -4.964389   -1.084126    1.849546
     21          1           0       -3.833801   -2.019659    0.877873
     22          1           0       -5.757568   -3.055561   -0.372207
     23          1           0       -6.894580   -2.114712    0.604987
     24          1           0       -5.894757   -3.363125    1.367303
     25          6           0       -3.725196    0.627911    0.049095
     26          6           0       -3.712312    1.736824   -1.003583
     27          6           0       -2.626729    2.782594   -0.747329
     28          1           0       -3.873141    1.075741    1.041545
     29          1           0       -2.741305    0.139585    0.070112
     30          1           0       -4.696408    2.222442   -1.022229
     31          1           0       -3.565820    1.286909   -1.993902
     32          1           0       -1.635628    2.317495   -0.749344
     33          1           0       -2.772641    3.258344    0.227850
     34          1           0       -2.635453    3.565910   -1.511660
 ---------------------------------------------------------------------

 SCF Done:  E(RHF) =  -669.535511261     A.U. after   15 cycles
 E2 =    -0.2090918557D+01 EUMP2 =    -0.67162642981783D+03

 The electronic state is 1-A.
 Alpha  occ. eigenvalues --  -20.60744 -20.60739 -15.85797 -11.31157 -11.27728
 Alpha  occ. eigenvalues --  -11.27725 -11.27459 -11.26738 -11.26719 -11.22404
 Alpha  occ. eigenvalues --  -11.22162 -11.22124 -11.22003 -11.21889 -11.21362
 Alpha  occ. eigenvalues --   -1.59820  -1.39374  -1.19329  -1.09067  -1.08723
 Alpha  occ. eigenvalues --   -1.04734  -1.04167  -0.96636  -0.95559  -0.87656
 Alpha  occ. eigenvalues --   -0.86132  -0.82394  -0.80242  -0.78849  -0.77444
 Alpha  occ. eigenvalues --   -0.72016  -0.71143  -0.70432  -0.65714  -0.64980
 Alpha  occ. eigenvalues --   -0.64753  -0.62131  -0.61529  -0.60009  -0.58225
 Alpha  occ. eigenvalues --   -0.55954  -0.55222  -0.53317  -0.53132  -0.53059
 Alpha  occ. eigenvalues --   -0.52771  -0.50577  -0.48784  -0.48771  -0.48537
 Alpha  occ. eigenvalues --   -0.47264  -0.46397  -0.46294  -0.44781  -0.44408
 Alpha  occ. eigenvalues --   -0.37306  -0.36337
 Alpha virt. eigenvalues --    0.05095   0.11308   0.16586   0.19093   0.22578
 Alpha virt. eigenvalues --    0.23667   0.25111   0.26472   0.27094   0.28316
 Alpha virt. eigenvalues --    0.28736   0.30050   0.31092   0.31531   0.31948

 Mulliken charges:
               1
     1  C   -0.173478
     2  C   -0.226707
     3  C   -0.173053
     4  C    0.159024
     5  C   -0.171213
     6  C   -0.218591
     7  H    0.226381
     8  H    0.235418
     9  H    0.275722
    10  H    0.275489
    11  H    0.223354
    12  N    0.488000
    13  O   -0.460549
    14  O   -0.460597
    15  C   -0.298913
    16  C   -0.300235
    17  C   -0.476168
    18  H    0.151315
    19  H    0.151110
    20  H    0.152216
    21  H    0.152667
    22  H    0.156422
    23  H    0.155548
    24  H    0.162106
    25  C   -0.298244
    26  C   -0.300085
    27  C   -0.480345
    28  H    0.150674
    29  H    0.144108
    30  H    0.155940
    31  H    0.154386
    32  H    0.146262
    33  H    0.156812
    34  H    0.165226
 Sum of Mulliken charges =  -0.00000

 Dipole moment (field-independent basis, Debye):
    X=             -2.6515    Y=              4.4025    Z=              1.3934  Tot=              5.3249
 Quadrupole moment (field-independent basis, Debye-Ang):
   XX=           -107.3236   YY=            -97.4650   ZZ=            -94.3073
   XY=             16.6293   XZ=              6.5926   YZ=              0.6499

 Normal termination of Gaussian 16 at Thu May  6 10:46:44 2021.
