 Gaussian 16, Revision A.03,
 Gaussian 16:  EM64L-G16RevA.03 25-Dec-2016

 -------------
 #p 6-31g* mp2
 -------------

 ------------------------------------------------------
 Input file generated by CHIRIPA (05-May-2021 14:53:15)
 ------------------------------------------------------
 Symbolic Z-matrix:
 Charge =  0 Multiplicity = 1

                         Standard orientation:
 ---------------------------------------------------------------------
 Center     Atomic      Atomic             Coordinates (Angstroms)
 Number     Number       Type             X           Y           Z
 ---------------------------------------------------------------------
      1          6           0       -2.899167   -0.584806   -0.217056
      2          6           0       -2.425735   -1.503027   -1.344316
      3          6           0       -2.927232   -2.938860   -1.187220
      4          1           0       -2.558342   -0.990521    0.745326
      5          1           0       -3.997556   -0.589293   -0.186769
      6          1           0       -1.328594   -1.495731   -1.373356
      7          1           0       -2.767564   -1.094976   -2.304141
      8          1           0       -4.021679   -2.966080   -1.180379
      9          1           0       -2.574532   -3.369112   -0.244306
     10          1           0       -2.577068   -3.578011   -2.003756
     11          6           0       -2.405940    0.853940   -0.360112
     12          6           0       -2.879372    1.772162    0.767148
     13          6           0       -2.377875    3.207994    0.610052
     14          1           0       -1.307552    0.858428   -0.390399
     15          1           0       -2.746766    1.259656   -1.322493
     16          1           0       -2.537543    1.364110    1.726973
     17          1           0       -3.976514    1.764865    0.796189
     18          1           0       -2.730575    3.638246   -0.332862
     19          1           0       -1.283429    3.235214    0.603211
     20          1           0       -2.728039    3.847146    1.426588
     21          6           0        3.046764    1.517838   -1.442576
     22          6           0        3.562988    0.221615   -1.343379
     23          6           0        3.030851   -0.686031   -0.422750
     24          6           0        1.978100   -0.262033    0.386715
     25          6           0        1.442110    1.022632    0.311616
     26          6           0        1.989835    1.913512   -0.616219
     27          1           0        3.466196    2.216407   -2.160541
     28          1           0        4.383786   -0.088424   -1.983857
     29          1           0        3.411379   -1.695518   -0.325014
     30          1           0        0.623612    1.302674    0.963578
     31          1           0        1.586925    2.919547   -0.691062
     32          7           0        1.406499   -1.214043    1.365158
     33          8           0        0.479267   -0.816000    2.066898
     34          8           0        1.896534   -2.340243    1.411794
 ---------------------------------------------------------------------

 SCF Done:  E(RHF) =  -669.535349073     A.U. after   15 cycles
 E2 =    -0.2094000572D+01 EUMP2 =    -0.67162934964496D+03

 The electronic state is 1-A.
 Alpha  occ. eigenvalues --  -20.60941 -20.60936 -15.85978 -11.31297 -11.27857
 Alpha  occ. eigenvalues --  -11.27837 -11.27583 -11.26856 -11.26844 -11.21541
 Alpha  occ. eigenvalues --  -11.21438 -11.21226 -11.21205 -11.20879 -11.20581
 Alpha  occ. eigenvalues --   -1.60004  -1.39559  -1.19468  -1.08864  -1.08190
 Alpha  occ. eigenvalues --   -1.04865  -1.03361  -0.95823  -0.95706  -0.86841
 Alpha  occ. eigenvalues --   -0.86260  -0.82543  -0.79432  -0.77990  -0.77582
 Alpha  occ. eigenvalues --   -0.72199  -0.71325  -0.70586  -0.65118  -0.65052
 Alpha  occ. eigenvalues --   -0.64654  -0.62222  -0.60721  -0.59206  -0.57420
 Alpha  occ. eigenvalues --   -0.55357  -0.55140  -0.53205  -0.52952  -0.52529
 Alpha  occ. eigenvalues --   -0.52244  -0.49766  -0.48956  -0.48950  -0.47745
 Alpha  occ. eigenvalues --   -0.46454  -0.45560  -0.45384  -0.44911  -0.43568
 Alpha  occ. eigenvalues --   -0.37429  -0.36401
 Alpha virt. eigenvalues --    0.04881   0.11117   0.16368   0.19435   0.23093
 Alpha virt. eigenvalues --    0.23964   0.25966   0.27013   0.27923   0.28224
 Alpha virt. eigenvalues --    0.29190   0.30718   0.31539   0.31904   0.32567

 Mulliken charges:
               1
     1  C   -0.303214
     2  C   -0.298087
     3  C   -0.476895
     4  H    0.166798
     5  H    0.147241
     6  H    0.148797
     7  H    0.148065
     8  H    0.153422
     9  H    0.162952
    10  H    0.158060
    11  C   -0.300947
    12  C   -0.304861
    13  C   -0.474329
    14  H    0.146441
    15  H    0.146210
    16  H    0.162447
    17  H    0.153884
    18  H    0.155642
    19  H    0.140051
    20  H    0.163390
    21  C   -0.170190
    22  C   -0.218366
    23  C   -0.170736
    24  C    0.158558
    25  C   -0.173972
    26  C   -0.220372
    27  H    0.226303
    28  H    0.223974
    29  H    0.275907
    30  H    0.280913
    31  H    0.225450
    32  N    0.488597
    33  O   -0.462097
    34  O   -0.459037
 Sum of Mulliken charges =  -0.00000

 Dipole moment (field-independent basis, Debye):
    X=              2.0496    Y=              3.2267    Z=             -3.3163  Tot=              5.0607
 Quadrupole moment (field-independent basis, Debye-Ang):
   XX=            -84.1227   YY=            -95.6602   ZZ=            -97.4377
   XY=              3.2004   XZ=             -7.4027   YZ=              3.0543

 Normal termination of Gaussian 16 at Wed May  5 15:40:16 2021.
