 Gaussian 16, Revision A.03,
 Gaussian 16:  EM64L-G16RevA.03 25-Dec-2016

 -------------
 #p 6-31g* mp2
 -------------

 ------------------------------------------------------
 Input file generated by CHIRIPA (05-May-2021 14:51:11)
 ------------------------------------------------------
 Symbolic Z-matrix:
 Charge =  0 Multiplicity = 1

                         Standard orientation:
 ---------------------------------------------------------------------
 Center     Atomic      Atomic             Coordinates (Angstroms)
 Number     Number       Type             X           Y           Z
 ---------------------------------------------------------------------
      1          6           0       -3.158586    0.414421   -0.274320
      2          6           0       -3.176196    1.924906   -0.037447
      3          6           0       -4.001764    2.677419   -1.081456
      4          1           0       -2.757517    0.211545   -1.276782
      5          1           0       -4.190647    0.037312   -0.268366
      6          1           0       -2.144321    2.298838   -0.042469
      7          1           0       -3.577091    2.124200    0.964641
      8          1           0       -5.040733    2.332355   -1.072783
      9          1           0       -3.599822    2.507985   -2.085615
     10          1           0       -4.000771    3.755555   -0.893089
     11          6           0       -2.337312   -0.351656    0.761229
     12          6           0       -2.319702   -1.862141    0.524355
     13          6           0       -1.494134   -2.614654    1.568364
     14          1           0       -1.305251    0.025453    0.755274
     15          1           0       -2.738381   -0.148780    1.763691
     16          1           0       -1.918807   -2.061435   -0.477733
     17          1           0       -3.351577   -2.236073    0.529377
     18          1           0       -1.896076   -2.445220    2.572524
     19          1           0       -0.455165   -2.269590    1.559691
     20          1           0       -1.495127   -3.692790    1.379997
     21          6           0        3.222222    0.562950   -0.316022
     22          6           0        3.169789    1.528687    0.868286
     23          6           0        4.124149    2.712509    0.708428
     24          1           0        4.250100    0.193702   -0.434630
     25          1           0        2.978333    1.109930   -1.237285
     26          1           0        3.412352    0.979749    1.787225
     27          1           0        2.141877    1.895531    0.984207
     28          1           0        3.880177    3.285130   -0.192229
     29          1           0        5.157871    2.364144    0.615350
     30          1           0        4.070445    3.390154    1.566200
     31          6           0        2.273676   -0.625715   -0.170886
     32          6           0        2.326109   -1.591452   -1.355195
     33          6           0        1.371748   -2.775273   -1.195336
     34          1           0        2.517565   -1.172695    0.750377
     35          1           0        1.245798   -0.256466   -0.052279
     36          1           0        3.354021   -1.958296   -1.471115
     37          1           0        2.083546   -1.042514   -2.274133
     38          1           0        0.338027   -2.426909   -1.102258
     39          1           0        1.615721   -3.347894   -0.294679
     40          1           0        1.425454   -3.452918   -2.053109
 ---------------------------------------------------------------------

 SCF Done:  E(RHF) =  -470.732820753     A.U. after   11 cycles
 E2 =    -0.1584329371D+01 EUMP2 =    -0.47231715012342D+03

 The electronic state is 1-A.
 Alpha  occ. eigenvalues --  -11.21645 -11.21644 -11.21634 -11.21588 -11.21474
 Alpha  occ. eigenvalues --  -11.21428 -11.21411 -11.21367 -11.21101 -11.21097
 Alpha  occ. eigenvalues --  -11.21050 -11.20974  -1.08502  -1.08433  -1.03605
 Alpha  occ. eigenvalues --   -1.03497  -0.96054  -0.95939  -0.87050  -0.86975
 Alpha  occ. eigenvalues --   -0.79635  -0.79598  -0.78343  -0.78231  -0.65279
 Alpha  occ. eigenvalues --   -0.64950  -0.61165  -0.60783  -0.59376  -0.59342
 Alpha  occ. eigenvalues --   -0.57647  -0.57572  -0.55433  -0.55147  -0.52709
 Alpha  occ. eigenvalues --   -0.52667  -0.52436  -0.52369  -0.50006  -0.49902
 Alpha  occ. eigenvalues --   -0.48073  -0.47783  -0.46781  -0.46520  -0.46105
 Alpha  occ. eigenvalues --   -0.45773  -0.45720  -0.45431  -0.43829  -0.43785
 Alpha virt. eigenvalues --    0.19725   0.23116   0.23556   0.24804   0.25253
 Alpha virt. eigenvalues --    0.26119   0.26586   0.27797   0.28992   0.29861
 Alpha virt. eigenvalues --    0.30420   0.30973   0.31369   0.31993   0.32076

 Mulliken charges:
               1
     1  C   -0.298032
     2  C   -0.299489
     3  C   -0.475712
     4  H    0.149065
     5  H    0.149902
     6  H    0.151181
     7  H    0.152226
     8  H    0.155366
     9  H    0.155094
    10  H    0.160339
    11  C   -0.303615
    12  C   -0.303907
    13  C   -0.478367
    14  H    0.153162
    15  H    0.150299
    16  H    0.154243
    17  H    0.152619
    18  H    0.154400
    19  H    0.159832
    20  H    0.160340
    21  C   -0.298125
    22  C   -0.299726
    23  C   -0.475748
    24  H    0.150137
    25  H    0.149531
    26  H    0.152241
    27  H    0.151580
    28  H    0.155197
    29  H    0.155317
    30  H    0.160508
    31  C   -0.304778
    32  C   -0.299176
    33  C   -0.483036
    34  H    0.150034
    35  H    0.154068
    36  H    0.152229
    37  H    0.151518
    38  H    0.162876
    39  H    0.156385
    40  H    0.160026
 Sum of Mulliken charges =  -0.00000

 Dipole moment (field-independent basis, Debye):
    X=              0.0174    Y=             -0.0078    Z=              0.0070  Tot=              0.0203
 Quadrupole moment (field-independent basis, Debye-Ang):
   XX=            -84.1931   YY=            -85.7671   ZZ=            -84.7044
   XY=             -0.5287   XZ=             -0.5187   YZ=              0.1277

 Normal termination of Gaussian 16 at Thu May  6 05:28:37 2021.
