 Gaussian 16, Revision A.03,
 Gaussian 16:  EM64L-G16RevA.03 25-Dec-2016

 -------------
 #p 6-31g* mp2
 -------------

 ------------------------------------------------------
 Input file generated by CHIRIPA (05-May-2021 14:53:15)
 ------------------------------------------------------
 Symbolic Z-matrix:
 Charge =  0 Multiplicity = 1

                         Standard orientation:
 ---------------------------------------------------------------------
 Center     Atomic      Atomic             Coordinates (Angstroms)
 Number     Number       Type             X           Y           Z
 ---------------------------------------------------------------------
      1          6           0       -2.307469   -1.187685   -0.492359
      2          6           0       -1.187135   -1.713254    0.405757
      3          6           0       -0.095032   -2.442838   -0.377066
      4          1           0       -2.749728   -2.027501   -1.045587
      5          1           0       -1.878436   -0.509989   -1.243394
      6          1           0       -1.618344   -2.388679    1.155742
      7          1           0       -0.747619   -0.872116    0.957054
      8          1           0        0.362182   -1.774858   -1.114195
      9          1           0       -0.513490   -3.300037   -0.914378
     10          1           0        0.695760   -2.810205    0.284408
     11          6           0       -3.406723   -0.455932    0.275694
     12          6           0       -4.527057    0.069637   -0.622423
     13          6           0       -5.619159    0.799221    0.160401
     14          1           0       -3.835756   -1.133628    1.026729
     15          1           0       -2.964463    0.383884    0.828922
     16          1           0       -4.966573   -0.771501   -1.173720
     17          1           0       -4.095848    0.745062   -1.372407
     18          1           0       -5.200702    1.656420    0.697713
     19          1           0       -6.076374    0.131241    0.897530
     20          1           0       -6.409952    1.166588   -0.501073
     21          6           0        0.390751    2.358141    0.258770
     22          6           0        1.144314    2.256670   -0.915269
     23          6           0        2.166987    1.309515   -1.022909
     24          6           0        2.410122    0.476131    0.067800
     25          6           0        1.676777    0.552805    1.250854
     26          6           0        0.658914    1.507385    1.336185
     27          1           0       -0.401817    3.096797    0.333722
     28          1           0        0.938279    2.916062   -1.753598
     29          1           0        2.765768    1.209408   -1.920048
     30          1           0        1.905595   -0.118393    2.069728
     31          1           0        0.075300    1.583930    2.249191
     32          7           0        3.490233   -0.530509   -0.034345
     33          8           0        3.684652   -1.253000    0.940768
     34          8           0        4.121954   -0.577963   -1.087585
 ---------------------------------------------------------------------

 SCF Done:  E(RHF) =  -669.534393460     A.U. after   15 cycles
 E2 =    -0.2095323449D+01 EUMP2 =    -0.67162971690882D+03

 The electronic state is 1-A.
 Alpha  occ. eigenvalues --  -20.60864 -20.60859 -15.85908 -11.31304 -11.27876
 Alpha  occ. eigenvalues --  -11.27864 -11.27633 -11.26911 -11.26890 -11.22003
 Alpha  occ. eigenvalues --  -11.21763 -11.21557 -11.21512 -11.21494 -11.20899
 Alpha  occ. eigenvalues --   -1.59927  -1.39482  -1.19502  -1.08881  -1.08669
 Alpha  occ. eigenvalues --   -1.04922  -1.03712  -0.96174  -0.95704  -0.87182
 Alpha  occ. eigenvalues --   -0.86295  -0.82547  -0.79805  -0.78493  -0.77577
 Alpha  occ. eigenvalues --   -0.72129  -0.71250  -0.70592  -0.65344  -0.65146
 Alpha  occ. eigenvalues --   -0.64897  -0.62251  -0.61182  -0.59549  -0.57781
 Alpha  occ. eigenvalues --   -0.55542  -0.55387  -0.53160  -0.52989  -0.52814
 Alpha  occ. eigenvalues --   -0.52575  -0.50137  -0.48891  -0.48883  -0.48099
 Alpha  occ. eigenvalues --   -0.46888  -0.46027  -0.45968  -0.44878  -0.43959
 Alpha  occ. eigenvalues --   -0.37443  -0.36359
 Alpha virt. eigenvalues --    0.04940   0.11003   0.16355   0.20795   0.22766
 Alpha virt. eigenvalues --    0.24012   0.25965   0.26703   0.27210   0.28135
 Alpha virt. eigenvalues --    0.28603   0.30718   0.31171   0.31580   0.31881

 Mulliken charges:
               1
     1  C   -0.297004
     2  C   -0.305456
     3  C   -0.481390
     4  H    0.150789
     5  H    0.148421
     6  H    0.150095
     7  H    0.154099
     8  H    0.153822
     9  H    0.156072
    10  H    0.168147
    11  C   -0.296669
    12  C   -0.299492
    13  C   -0.475166
    14  H    0.150715
    15  H    0.140926
    16  H    0.154433
    17  H    0.149457
    18  H    0.151166
    19  H    0.156708
    20  H    0.161223
    21  C   -0.170403
    22  C   -0.218651
    23  C   -0.172926
    24  C    0.163534
    25  C   -0.169833
    26  C   -0.220185
    27  H    0.226340
    28  H    0.224174
    29  H    0.276298
    30  H    0.276793
    31  H    0.225299
    32  N    0.488802
    33  O   -0.460465
    34  O   -0.459668
 Sum of Mulliken charges =  -0.00000

 Dipole moment (field-independent basis, Debye):
    X=             -3.6693    Y=              3.5378    Z=              0.3482  Tot=              5.1089
 Quadrupole moment (field-independent basis, Debye-Ang):
   XX=           -114.1631   YY=            -90.9696   ZZ=            -90.6682
   XY=              8.1042   XZ=             -0.0544   YZ=             -1.5769

 Normal termination of Gaussian 16 at Thu May  6 15:30:49 2021.
