 Gaussian 16, Revision A.03,
 Gaussian 16:  EM64L-G16RevA.03 25-Dec-2016

 -------------
 #p 6-31g* mp2
 -------------

 ------------------------------------------------------
 Input file generated by CHIRIPA (05-May-2021 14:53:12)
 ------------------------------------------------------
 Symbolic Z-matrix:
 Charge =  0 Multiplicity = 1

                         Standard orientation:
 ---------------------------------------------------------------------
 Center     Atomic      Atomic             Coordinates (Angstroms)
 Number     Number       Type             X           Y           Z
 ---------------------------------------------------------------------
      1          6           0        3.570679    0.699139   -0.041057
      2          6           0        3.439846    1.493291   -1.341130
      3          6           0        2.721583    2.829189   -1.148080
      4          1           0        2.569564    0.522003    0.375278
      5          1           0        4.113625    1.305052    0.697505
      6          1           0        2.898518    0.885522   -2.077470
      7          1           0        4.441378    1.668392   -1.754519
      8          1           0        3.262607    3.457707   -0.433336
      9          1           0        1.710980    2.670390   -0.758122
     10          1           0        2.639042    3.380417   -2.089990
     11          6           0        4.286558   -0.638766   -0.217851
     12          6           0        4.417392   -1.432918    1.082222
     13          6           0        5.135655   -2.768816    0.889171
     14          1           0        3.743613   -1.244679   -0.956413
     15          1           0        5.287674   -0.461629   -0.634186
     16          1           0        3.415860   -1.608018    1.495610
     17          1           0        4.958720   -0.825149    1.818562
     18          1           0        6.146257   -2.610016    0.499214
     19          1           0        4.594631   -3.397334    0.174427
     20          1           0        5.218196   -3.320044    1.831081
     21          6           0       -1.876541    1.804615    1.366480
     22          6           0       -3.151565    1.392589    1.767813
     23          6           0       -3.821774    0.380554    1.074161
     24          6           0       -3.184539   -0.200327   -0.021192
     25          6           0       -1.914813    0.188295   -0.445529
     26          6           0       -1.263316    1.202215    0.263036
     27          1           0       -1.363174    2.591522    1.911118
     28          1           0       -3.630233    1.858634    2.624390
     29          1           0       -4.809395    0.042260    1.363261
     30          1           0       -1.463249   -0.295097   -1.303339
     31          1           0       -0.273172    1.520177   -0.050909
     32          7           0       -3.884154   -1.272722   -0.763425
     33          8           0       -3.301140   -1.768594   -1.725112
     34          8           0       -5.002279   -1.597085   -0.369445
 ---------------------------------------------------------------------

 SCF Done:  E(RHF) =  -669.535488517     A.U. after   15 cycles
 E2 =    -0.2091121124D+01 EUMP2 =    -0.67162660964093D+03

 The electronic state is 1-A.
 Alpha  occ. eigenvalues --  -20.60765 -20.60760 -15.85819 -11.31184 -11.27758
 Alpha  occ. eigenvalues --  -11.27755 -11.27495 -11.26768 -11.26753 -11.22386
 Alpha  occ. eigenvalues --  -11.22124 -11.22086 -11.22005 -11.21880 -11.21351
 Alpha  occ. eigenvalues --   -1.59841  -1.39394  -1.19358  -1.09060  -1.08752
 Alpha  occ. eigenvalues --   -1.04764  -1.04150  -0.96611  -0.95586  -0.87626
 Alpha  occ. eigenvalues --   -0.86163  -0.82421  -0.80220  -0.78843  -0.77469
 Alpha  occ. eigenvalues --   -0.72037  -0.71164  -0.70464  -0.65728  -0.65010
 Alpha  occ. eigenvalues --   -0.64771  -0.62169  -0.61501  -0.59982  -0.58203
 Alpha  occ. eigenvalues --   -0.55933  -0.55254  -0.53287  -0.53104  -0.53074
 Alpha  occ. eigenvalues --   -0.52812  -0.50556  -0.48804  -0.48792  -0.48518
 Alpha  occ. eigenvalues --   -0.47250  -0.46386  -0.46289  -0.44800  -0.44391
 Alpha  occ. eigenvalues --   -0.37337  -0.36366
 Alpha virt. eigenvalues --    0.05069   0.11258   0.16540   0.18828   0.22706
 Alpha virt. eigenvalues --    0.23644   0.25315   0.26569   0.27240   0.28313
 Alpha virt. eigenvalues --    0.28683   0.30133   0.31084   0.31542   0.32109

 Mulliken charges:
               1
     1  C   -0.299365
     2  C   -0.300929
     3  C   -0.479241
     4  H    0.143921
     5  H    0.150954
     6  H    0.152826
     7  H    0.156611
     8  H    0.158563
     9  H    0.144919
    10  H    0.165665
    11  C   -0.298799
    12  C   -0.300236
    13  C   -0.476235
    14  H    0.151427
    15  H    0.151616
    16  H    0.152378
    17  H    0.151813
    18  H    0.155717
    19  H    0.157132
    20  H    0.161632
    21  C   -0.173421
    22  C   -0.218576
    23  C   -0.171074
    24  C    0.158981
    25  C   -0.173710
    26  C   -0.228614
    27  H    0.226279
    28  H    0.223478
    29  H    0.275611
    30  H    0.275910
    31  H    0.237715
    32  N    0.488055
    33  O   -0.460517
    34  O   -0.460488
 Sum of Mulliken charges =  -0.00000

 Dipole moment (field-independent basis, Debye):
    X=              2.6514    Y=              3.7544    Z=              2.5959  Tot=              5.2786
 Quadrupole moment (field-independent basis, Debye-Ang):
   XX=           -106.2910   YY=            -97.5817   ZZ=            -93.2636
   XY=            -12.0460   XZ=            -11.3216   YZ=             -0.2209

 Normal termination of Gaussian 16 at Thu May  6 07:18:47 2021.
