 Gaussian 16, Revision A.03,
 Gaussian 16:  EM64L-G16RevA.03 25-Dec-2016

 -------------
 #p 6-31g* mp2
 -------------

 ------------------------------------------------------
 Input file generated by CHIRIPA (05-May-2021 14:55:20)
 ------------------------------------------------------
 Symbolic Z-matrix:
 Charge =  0 Multiplicity = 1

                         Standard orientation:
 ---------------------------------------------------------------------
 Center     Atomic      Atomic             Coordinates (Angstroms)
 Number     Number       Type             X           Y           Z
 ---------------------------------------------------------------------
      1          6           0       -4.728502   -0.985424   -0.949319
      2          6           0       -4.664385    0.299245   -0.399740
      3          6           0       -3.515971    0.727208    0.272972
      4          6           0       -2.445426   -0.159473    0.377956
      5          6           0       -2.478877   -1.445547   -0.158872
      6          6           0       -3.637467   -1.852191   -0.827346
      7          1           0       -5.624570   -1.309595   -1.470252
      8          1           0       -5.510173    0.974524   -0.492936
      9          1           0       -3.439483    1.716348    0.707907
     10          1           0       -1.619692   -2.096188   -0.049849
     11          1           0       -3.684447   -2.850448   -1.253164
     12          7           0       -1.224265    0.282308    1.087883
     13          8           0       -0.294674   -0.517864    1.166765
     14          8           0       -1.219833    1.420383    1.551999
     15          6           0        3.746358   -0.327210   -0.588577
     16          6           0        4.427618   -1.129681    0.520437
     17          6           0        5.140730   -2.376152   -0.004511
     18          1           0        3.025152   -0.972148   -1.109018
     19          1           0        4.498284   -0.033910   -1.334216
     20          1           0        3.674869   -1.420198    1.264471
     21          1           0        5.147147   -0.482702    1.038424
     22          1           0        5.912131   -2.101352   -0.731163
     23          1           0        4.431488   -3.044176   -0.503833
     24          1           0        5.620785   -2.934873    0.804957
     25          6           0        3.029164    0.921855   -0.079460
     26          6           0        2.347905    1.724326   -1.188473
     27          6           0        1.634792    2.970799   -0.663526
     28          1           0        2.277239    0.628556    0.666180
     29          1           0        3.750371    1.566794    0.440983
     30          1           0        1.628375    1.077347   -1.706461
     31          1           0        3.100654    2.014844   -1.932507
     32          1           0        2.344034    3.638821   -0.164203
     33          1           0        0.863391    2.695998    0.063127
     34          1           0        1.154737    3.529519   -1.472994
 ---------------------------------------------------------------------

 SCF Done:  E(RHF) =  -669.537077611     A.U. after   15 cycles
 E2 =    -0.2092495721D+01 EUMP2 =    -0.67162957333227D+03

 The electronic state is 1-A.
 Alpha  occ. eigenvalues --  -20.61234 -20.61226 -15.86213 -11.31434 -11.27982
 Alpha  occ. eigenvalues --  -11.27975 -11.27701 -11.26963 -11.26952 -11.20559
 Alpha  occ. eigenvalues --  -11.20393 -11.20301 -11.20241 -11.19800 -11.19685
 Alpha  occ. eigenvalues --   -1.60261  -1.39821  -1.19588  -1.09014  -1.07193
 Alpha  occ. eigenvalues --   -1.04967  -1.02397  -0.95871  -0.94831  -0.86373
 Alpha  occ. eigenvalues --   -0.85851  -0.82711  -0.78472  -0.77777  -0.76978
 Alpha  occ. eigenvalues --   -0.72436  -0.71565  -0.70697  -0.65246  -0.64972
 Alpha  occ. eigenvalues --   -0.63804  -0.62315  -0.59794  -0.58230  -0.56449
 Alpha  occ. eigenvalues --   -0.55478  -0.54110  -0.53303  -0.53057  -0.51589
 Alpha  occ. eigenvalues --   -0.51260  -0.49253  -0.49231  -0.48739  -0.46784
 Alpha  occ. eigenvalues --   -0.45549  -0.45121  -0.44571  -0.44284  -0.42612
 Alpha  occ. eigenvalues --   -0.37557  -0.36561
 Alpha virt. eigenvalues --    0.04684   0.11095   0.16174   0.21217   0.24062
 Alpha virt. eigenvalues --    0.25392   0.27162   0.27708   0.28227   0.28956
 Alpha virt. eigenvalues --    0.29121   0.30836   0.32313   0.32514   0.32778

 Mulliken charges:
               1
     1  C   -0.170137
     2  C   -0.218627
     3  C   -0.170179
     4  C    0.158557
     5  C   -0.170536
     6  C   -0.218589
     7  H    0.226601
     8  H    0.224436
     9  H    0.276437
    10  H    0.275856
    11  H    0.224371
    12  N    0.488554
    13  O   -0.458768
    14  O   -0.457399
    15  C   -0.295327
    16  C   -0.300563
    17  C   -0.474703
    18  H    0.146359
    19  H    0.143399
    20  H    0.159192
    21  H    0.149673
    22  H    0.152406
    23  H    0.152239
    24  H    0.157525
    25  C   -0.310175
    26  C   -0.296446
    27  C   -0.486567
    28  H    0.179776
    29  H    0.143876
    30  H    0.144763
    31  H    0.145127
    32  H    0.151751
    33  H    0.176620
    34  H    0.150497
 Sum of Mulliken charges =  -0.00000

 Dipole moment (field-independent basis, Debye):
    X=             -4.7517    Y=             -1.6366    Z=             -2.2388  Tot=              5.5017
 Quadrupole moment (field-independent basis, Debye-Ang):
   XX=            -73.8811   YY=            -91.6380   ZZ=            -97.6073
   XY=              3.3632   XZ=              4.9130   YZ=              0.9022

 Normal termination of Gaussian 16 at Wed May  5 18:55:01 2021.
