 Gaussian 16, Revision A.03,
 Gaussian 16:  EM64L-G16RevA.03 25-Dec-2016

 -------------
 #p 6-31g* mp2
 -------------

 ------------------------------------------------------
 Input file generated by CHIRIPA (05-May-2021 14:57:26)
 ------------------------------------------------------
 Symbolic Z-matrix:
 Charge =  0 Multiplicity = 1

                         Standard orientation:
 ---------------------------------------------------------------------
 Center     Atomic      Atomic             Coordinates (Angstroms)
 Number     Number       Type             X           Y           Z
 ---------------------------------------------------------------------
      1          6           0       -6.046650    1.138705    0.420686
      2          6           0       -5.029924    1.618042   -0.411796
      3          6           0       -3.900237    0.837447   -0.674527
      4          6           0       -3.819602   -0.423445   -0.085511
      5          6           0       -4.815869   -0.928949    0.748280
      6          6           0       -5.936571   -0.131022    0.997051
      7          1           0       -6.920728    1.751822    0.619359
      8          1           0       -5.112727    2.603743   -0.860775
      9          1           0       -3.098368    1.183889   -1.315152
     10          1           0       -4.705028   -1.915608    1.181450
     11          1           0       -6.724627   -0.505865    1.643971
     12          7           0       -2.628409   -1.259000   -0.356263
     13          8           0       -2.581261   -2.366417    0.174814
     14          8           0       -1.764455   -0.790671   -1.094428
     15          6           0        2.393678    2.213333   -0.095505
     16          6           0        3.692582    2.423801    0.378910
     17          6           0        4.599857    1.363133    0.458809
     18          6           0        4.172758    0.099382    0.054073
     19          6           0        2.885373   -0.142154   -0.422992
     20          6           0        1.994921    0.933285   -0.494238
     21          1           0        1.695419    3.043023   -0.154211
     22          1           0        4.005019    3.416832    0.689262
     23          1           0        5.611379    1.497974    0.822207
     24          1           0        2.602972   -1.143356   -0.725088
     25          1           0        0.986798    0.766887   -0.863081
     26          7           0        5.124344   -1.031318    0.134079
     27          8           0        4.723543   -2.135144   -0.228637
     28          8           0        6.252980   -0.792325    0.557989
 ---------------------------------------------------------------------

 SCF Done:  E(RHF) =  -868.339320167     A.U. after   16 cycles
 E2 =    -0.2598497939D+01 EUMP2 =    -0.87093781810634D+03

 The electronic state is 1-A.
 Alpha  occ. eigenvalues --  -20.61634 -20.61557 -20.60086 -20.60065 -15.86634
 Alpha  occ. eigenvalues --  -15.85125 -11.31839 -11.30416 -11.28426 -11.28353
 Alpha  occ. eigenvalues --  -11.28084 -11.27380 -11.27333 -11.27026 -11.26851
 Alpha  occ. eigenvalues --  -11.26744 -11.26076 -11.25809  -1.60653  -1.59155
 Alpha  occ. eigenvalues --   -1.40216  -1.38709  -1.19992  -1.18578  -1.09412
 Alpha  occ. eigenvalues --   -1.08006  -1.05374  -1.03941  -0.96276  -0.94851
 Alpha  occ. eigenvalues --   -0.86778  -0.85358  -0.83119  -0.81659  -0.78189
 Alpha  occ. eigenvalues --   -0.76703  -0.72862  -0.71958  -0.71346  -0.71097
 Alpha  occ. eigenvalues --   -0.70477  -0.69723  -0.65650  -0.65372  -0.64225
 Alpha  occ. eigenvalues --   -0.63921  -0.62727  -0.61261  -0.55869  -0.54513
 Alpha  occ. eigenvalues --   -0.53707  -0.53463  -0.52318  -0.52007  -0.49629
 Alpha  occ. eigenvalues --   -0.49584  -0.48107  -0.48095  -0.45649  -0.44130
 Alpha  occ. eigenvalues --   -0.37955  -0.36970  -0.36604  -0.35544
 Alpha virt. eigenvalues --    0.04315   0.05787   0.10687   0.12092   0.15818
 Alpha virt. eigenvalues --    0.17291   0.20772   0.22254   0.26668   0.27336
 Alpha virt. eigenvalues --    0.28513   0.29022   0.30358   0.31465   0.32334

 Mulliken charges:
               1
     1  C   -0.170128
     2  C   -0.218307
     3  C   -0.171223
     4  C    0.158470
     5  C   -0.170179
     6  C   -0.218309
     7  H    0.227649
     8  H    0.224026
     9  H    0.271265
    10  H    0.277671
    11  H    0.225908
    12  N    0.491041
    13  O   -0.453506
    14  O   -0.471787
    15  C   -0.172459
    16  C   -0.218646
    17  C   -0.172762
    18  C    0.158058
    19  C   -0.172264
    20  C   -0.225829
    21  H    0.220189
    22  H    0.219396
    23  H    0.272849
    24  H    0.282286
    25  H    0.241137
    26  N    0.487906
    27  O   -0.458752
    28  O   -0.463700
 Sum of Mulliken charges =  -0.00000

 Dipole moment (field-independent basis, Debye):
    X=             -8.0181    Y=              6.7288    Z=              0.6912  Tot=             10.4902
 Quadrupole moment (field-independent basis, Debye-Ang):
   XX=            -98.3490   YY=           -102.8396   ZZ=           -104.0401
   XY=             10.4167   XZ=             -5.0523   YZ=             -1.7151

 Normal termination of Gaussian 16 at Thu May  6 00:26:50 2021.
