 Gaussian 16, Revision A.03,
 Gaussian 16:  EM64L-G16RevA.03 25-Dec-2016

 -------------
 #p 6-31g* mp2
 -------------

 ------------------------------------------------------
 Input file generated by CHIRIPA (05-May-2021 14:55:25)
 ------------------------------------------------------
 Symbolic Z-matrix:
 Charge =  0 Multiplicity = 1

                         Standard orientation:
 ---------------------------------------------------------------------
 Center     Atomic      Atomic             Coordinates (Angstroms)
 Number     Number       Type             X           Y           Z
 ---------------------------------------------------------------------
      1          6           0       -2.384223    1.664423    1.443539
      2          6           0       -1.379510    0.790909    1.872544
      3          6           0       -1.117948   -0.389740    1.170974
      4          6           0       -1.883747   -0.666819    0.039572
      5          6           0       -2.891554    0.183389   -0.412932
      6          6           0       -3.135714    1.358415    0.304179
      7          1           0       -2.580652    2.579396    1.994572
      8          1           0       -0.794313    1.025987    2.757037
      9          1           0       -0.346121   -1.083718    1.480968
     10          1           0       -3.458271   -0.078046   -1.298314
     11          1           0       -3.916615    2.034939   -0.031311
     12          7           0       -1.616054   -1.913742   -0.711375
     13          8           0       -2.304769   -2.134971   -1.705038
     14          8           0       -0.722590   -2.646242   -0.292085
     15          6           0        2.398563   -0.128974    0.038005
     16          6           0        3.741196   -0.808905    0.308217
     17          6           0        3.586440   -2.247697    0.801899
     18          1           0        1.797568   -0.139965    0.957585
     19          1           0        1.841858   -0.715102   -0.706259
     20          1           0        4.295788   -0.220920    1.050724
     21          1           0        4.339140   -0.796123   -0.612064
     22          1           0        3.055368   -2.854146    0.061100
     23          1           0        3.011770   -2.275674    1.733335
     24          1           0        4.558445   -2.714745    0.988806
     25          6           0        2.536773    1.309928   -0.456148
     26          6           0        1.194140    1.989860   -0.726360
     27          6           0        1.348896    3.428652   -1.220043
     28          1           0        3.093479    1.896057    0.288115
     29          1           0        3.137768    1.320920   -1.375730
     30          1           0        0.596196    1.977079    0.193920
     31          1           0        0.639548    1.401875   -1.468867
     32          1           0        1.923566    3.456629   -2.151478
     33          1           0        1.879968    4.035101   -0.479243
     34          1           0        0.376892    3.895700   -1.406949
 ---------------------------------------------------------------------

 SCF Done:  E(RHF) =  -669.533844061     A.U. after   15 cycles
 E2 =    -0.2095775459D+01 EUMP2 =    -0.67162961951945D+03

 The electronic state is 1-A.
 Alpha  occ. eigenvalues --  -20.60861 -20.60847 -15.85891 -11.31214 -11.27818
 Alpha  occ. eigenvalues --  -11.27759 -11.27557 -11.26812 -11.26779 -11.21504
 Alpha  occ. eigenvalues --  -11.21429 -11.21359 -11.21278 -11.21176 -11.20718
 Alpha  occ. eigenvalues --   -1.59920  -1.39474  -1.19413  -1.08812  -1.08370
 Alpha  occ. eigenvalues --   -1.04819  -1.03428  -0.95895  -0.95644  -0.86906
 Alpha  occ. eigenvalues --   -0.86211  -0.82487  -0.79503  -0.78274  -0.77477
 Alpha  occ. eigenvalues --   -0.72113  -0.71233  -0.70528  -0.65128  -0.64981
 Alpha  occ. eigenvalues --   -0.64812  -0.62174  -0.60840  -0.59281  -0.57497
 Alpha  occ. eigenvalues --   -0.55335  -0.55166  -0.53286  -0.52942  -0.52516
 Alpha  occ. eigenvalues --   -0.52265  -0.49829  -0.48874  -0.48871  -0.47770
 Alpha  occ. eigenvalues --   -0.46552  -0.45734  -0.45684  -0.44777  -0.43697
 Alpha  occ. eigenvalues --   -0.37363  -0.36270
 Alpha virt. eigenvalues --    0.04983   0.11151   0.16375   0.20681   0.23082
 Alpha virt. eigenvalues --    0.23930   0.25953   0.26948   0.27616   0.28194
 Alpha virt. eigenvalues --    0.29460   0.30668   0.31442   0.31763   0.32058

 Mulliken charges:
               1
     1  C   -0.168676
     2  C   -0.223323
     3  C   -0.163462
     4  C    0.158349
     5  C   -0.170899
     6  C   -0.218230
     7  H    0.226016
     8  H    0.223407
     9  H    0.278150
    10  H    0.275677
    11  H    0.223632
    12  N    0.487684
    13  O   -0.460127
    14  O   -0.459996
    15  C   -0.299966
    16  C   -0.299658
    17  C   -0.476436
    18  H    0.136079
    19  H    0.161135
    20  H    0.148214
    21  H    0.153299
    22  H    0.168147
    23  H    0.149278
    24  H    0.158885
    25  C   -0.297562
    26  C   -0.305219
    27  C   -0.474957
    28  H    0.145960
    29  H    0.151085
    30  H    0.155466
    31  H    0.152278
    32  H    0.156473
    33  H    0.152480
    34  H    0.156814
 Sum of Mulliken charges =  -0.00000

 Dipole moment (field-independent basis, Debye):
    X=             -1.0420    Y=              4.2271    Z=              2.5681  Tot=              5.0546
 Quadrupole moment (field-independent basis, Debye-Ang):
   XX=            -89.0878   YY=           -102.1593   ZZ=            -92.1609
   XY=             -9.0902   XZ=             -2.7355   YZ=             -1.5236

 Normal termination of Gaussian 16 at Thu May  6 19:24:29 2021.
