 Gaussian 16, Revision A.03,
 Gaussian 16:  EM64L-G16RevA.03 25-Dec-2016

 -------------
 #p 6-31g* mp2
 -------------

 ------------------------------------------------------
 Input file generated by CHIRIPA (05-May-2021 14:53:17)
 ------------------------------------------------------
 Symbolic Z-matrix:
 Charge =  0 Multiplicity = 1

                         Standard orientation:
 ---------------------------------------------------------------------
 Center     Atomic      Atomic             Coordinates (Angstroms)
 Number     Number       Type             X           Y           Z
 ---------------------------------------------------------------------
      1          6           0       -4.486572    0.110980   -0.603619
      2          6           0       -5.259176   -1.165499   -0.269450
      3          6           0       -6.062968   -1.697793   -1.456200
      4          1           0       -5.192468    0.880511   -0.944909
      5          1           0       -3.809931   -0.088234   -1.446154
      6          1           0       -5.933154   -0.964308    0.573101
      7          1           0       -4.551380   -1.932019    0.071267
      8          1           0       -5.401459   -1.926207   -2.298123
      9          1           0       -6.791084   -0.952998   -1.793437
     10          1           0       -6.607473   -2.610623   -1.195211
     11          6           0       -3.678126    0.655302    0.572755
     12          6           0       -2.905522    1.931781    0.238585
     13          6           0       -2.101730    2.464075    1.425335
     14          1           0       -4.354767    0.854516    1.415290
     15          1           0       -2.972230   -0.114228    0.914045
     16          1           0       -3.613318    2.698301   -0.102132
     17          1           0       -2.231544    1.730591   -0.603966
     18          1           0       -1.373614    1.719281    1.762573
     19          1           0       -2.763239    2.692489    2.267258
     20          1           0       -1.557225    3.376906    1.164347
     21          6           0        1.325447   -1.358857    1.342185
     22          6           0        1.079584   -0.207395    0.587064
     23          6           0        2.104777    0.388171   -0.153765
     24          6           0        3.369529   -0.196898   -0.116536
     25          6           0        3.645852   -1.343839    0.626068
     26          6           0        2.605539   -1.922411    1.359247
     27          1           0        0.523180   -1.814907    1.914708
     28          1           0        0.086431    0.232449    0.571943
     29          1           0        1.942113    1.279849   -0.746951
     30          1           0        4.646242   -1.759312    0.621426
     31          1           0        2.799381   -2.816626    1.944783
     32          7           0        4.462858    0.424606   -0.896770
     33          8           0        5.568355   -0.110247   -0.847323
     34          8           0        4.193610    1.434825   -1.542988
 ---------------------------------------------------------------------

 SCF Done:  E(RHF) =  -669.535397013     A.U. after   15 cycles
 E2 =    -0.2091327708D+01 EUMP2 =    -0.67162672472139D+03

 The electronic state is 1-A.
 Alpha  occ. eigenvalues --  -20.60752 -20.60747 -15.85806 -11.31174 -11.27748
 Alpha  occ. eigenvalues --  -11.27740 -11.27493 -11.26762 -11.26730 -11.22542
 Alpha  occ. eigenvalues --  -11.22307 -11.22226 -11.22077 -11.22056 -11.21566
 Alpha  occ. eigenvalues --   -1.59828  -1.39381  -1.19348  -1.09241  -1.08744
 Alpha  occ. eigenvalues --   -1.04754  -1.04311  -0.96755  -0.95578  -0.87766
 Alpha  occ. eigenvalues --   -0.86153  -0.82410  -0.80372  -0.79030  -0.77458
 Alpha  occ. eigenvalues --   -0.72025  -0.71151  -0.70460  -0.65947  -0.65001
 Alpha  occ. eigenvalues --   -0.64752  -0.62226  -0.61582  -0.60120  -0.58350
 Alpha  occ. eigenvalues --   -0.56080  -0.55243  -0.53425  -0.53197  -0.53073
 Alpha  occ. eigenvalues --   -0.52807  -0.50696  -0.48797  -0.48779  -0.48659
 Alpha  occ. eigenvalues --   -0.47428  -0.46571  -0.46491  -0.44786  -0.44557
 Alpha  occ. eigenvalues --   -0.37331  -0.36350
 Alpha virt. eigenvalues --    0.05080   0.11242   0.16547   0.18541   0.22759
 Alpha virt. eigenvalues --    0.23634   0.25500   0.26366   0.27125   0.28323
 Alpha virt. eigenvalues --    0.28916   0.30218   0.30950   0.31215   0.31920

 Mulliken charges:
               1
     1  C   -0.298849
     2  C   -0.299766
     3  C   -0.476213
     4  H    0.152693
     5  H    0.150394
     6  H    0.153025
     7  H    0.149920
     8  H    0.156271
     9  H    0.156741
    10  H    0.161647
    11  C   -0.297586
    12  C   -0.303234
    13  C   -0.479301
    14  H    0.153067
    15  H    0.140617
    16  H    0.158315
    17  H    0.148999
    18  H    0.146959
    19  H    0.160650
    20  H    0.165610
    21  C   -0.172431
    22  C   -0.226228
    23  C   -0.172535
    24  C    0.158827
    25  C   -0.171058
    26  C   -0.218425
    27  H    0.225401
    28  H    0.234534
    29  H    0.275837
    30  H    0.275599
    31  H    0.223366
    32  N    0.488067
    33  O   -0.460520
    34  O   -0.460391
 Sum of Mulliken charges =  -0.00000

 Dipole moment (field-independent basis, Debye):
    X=             -4.0596    Y=             -2.1204    Z=              2.7253  Tot=              5.3295
 Quadrupole moment (field-independent basis, Debye-Ang):
   XX=           -117.9289   YY=            -91.3480   ZZ=            -96.0900
   XY=            -10.3016   XZ=             10.2935   YZ=             -1.7923

 Normal termination of Gaussian 16 at Thu May  6 09:06:06 2021.
