 Gaussian 16, Revision A.03,
 Gaussian 16:  EM64L-G16RevA.03 25-Dec-2016

 -------------
 #p 6-31g* mp2
 -------------

 ------------------------------------------------------
 Input file generated by CHIRIPA (05-May-2021 14:57:26)
 ------------------------------------------------------
 Symbolic Z-matrix:
 Charge =  0 Multiplicity = 1

                         Standard orientation:
 ---------------------------------------------------------------------
 Center     Atomic      Atomic             Coordinates (Angstroms)
 Number     Number       Type             X           Y           Z
 ---------------------------------------------------------------------
      1          6           0       -6.269807   -0.200832   -0.759111
      2          6           0       -5.648122   -1.365312   -0.296492
      3          6           0       -4.350505   -1.319493    0.221812
      4          6           0       -3.700938   -0.086741    0.262742
      5          6           0       -4.293564    1.090841   -0.190452
      6          6           0       -5.591739    1.021373   -0.704710
      7          1           0       -7.278044   -0.245611   -1.160171
      8          1           0       -6.172313   -2.315883   -0.337513
      9          1           0       -3.845592   -2.205656    0.586773
     10          1           0       -3.745677    2.023762   -0.136626
     11          1           0       -6.072072    1.927331   -1.063272
     12          7           0       -2.326913   -0.025717    0.809306
     13          8           0       -1.776044    1.072713    0.834446
     14          8           0       -1.826840   -1.077471    1.202213
     15          6           0        2.755862    2.331143   -0.138831
     16          6           0        2.044606    1.172745   -0.468607
     17          6           0        2.683466   -0.070607   -0.490528
     18          6           0        4.040654   -0.119209   -0.175931
     19          6           0        4.776572    1.017072    0.156604
     20          6           0        4.117175    2.249752    0.172174
     21          1           0        2.251603    3.292864   -0.124269
     22          1           0        0.987311    1.232950   -0.710576
     23          1           0        2.156904   -0.983157   -0.742325
     24          1           0        5.829680    0.925394    0.393196
     25          1           0        4.672069    3.147727    0.428650
     26          7           0        4.727856   -1.429842   -0.195776
     27          8           0        5.924262   -1.445928    0.085277
     28          8           0        4.057068   -2.416212   -0.492009
 ---------------------------------------------------------------------

 SCF Done:  E(RHF) =  -868.339553492     A.U. after   16 cycles
 E2 =    -0.2598419495D+01 EUMP2 =    -0.87093797298666D+03

 The electronic state is 1-A.
 Alpha  occ. eigenvalues --  -20.61619 -20.61564 -20.59907 -20.59895 -15.86619
 Alpha  occ. eigenvalues --  -15.84948 -11.31772 -11.30143 -11.28339 -11.28287
 Alpha  occ. eigenvalues --  -11.28008 -11.27288 -11.27253 -11.26731 -11.26596
 Alpha  occ. eigenvalues --  -11.26379 -11.25748 -11.25504  -1.60661  -1.58981
 Alpha  occ. eigenvalues --   -1.40218  -1.38539  -1.19923  -1.18284  -1.09356
 Alpha  occ. eigenvalues --   -1.07715  -1.05292  -1.03646  -0.96225  -0.94584
 Alpha  occ. eigenvalues --   -0.86699  -0.85055  -0.83063  -0.81412  -0.78139
 Alpha  occ. eigenvalues --   -0.76480  -0.72839  -0.71973  -0.71175  -0.71024
 Alpha  occ. eigenvalues --   -0.70299  -0.69408  -0.65577  -0.65288  -0.63934
 Alpha  occ. eigenvalues --   -0.63629  -0.62641  -0.60990  -0.55794  -0.54175
 Alpha  occ. eigenvalues --   -0.53634  -0.53378  -0.52001  -0.51730  -0.49607
 Alpha  occ. eigenvalues --   -0.49570  -0.47936  -0.47914  -0.45663  -0.43983
 Alpha  occ. eigenvalues --   -0.37889  -0.36885  -0.36266  -0.35231
 Alpha virt. eigenvalues --    0.04350   0.06026   0.10772   0.12418   0.15879
 Alpha virt. eigenvalues --    0.17571   0.20942   0.22568   0.26870   0.27768
 Alpha virt. eigenvalues --    0.28559   0.29344   0.30528   0.31921   0.32218

 Mulliken charges:
               1
     1  C   -0.169916
     2  C   -0.218445
     3  C   -0.170393
     4  C    0.157407
     5  C   -0.171240
     6  C   -0.218403
     7  H    0.227733
     8  H    0.226034
     9  H    0.277826
    10  H    0.273429
    11  H    0.224567
    12  N    0.487692
    13  O   -0.468446
    14  O   -0.455061
    15  C   -0.171821
    16  C   -0.215147
    17  C   -0.170520
    18  C    0.157702
    19  C   -0.173021
    20  C   -0.218863
    21  H    0.223706
    22  H    0.234918
    23  H    0.276288
    24  H    0.271891
    25  H    0.219181
    26  N    0.488215
    27  O   -0.464032
    28  O   -0.461281
 Sum of Mulliken charges =  -0.00000

 Dipole moment (field-independent basis, Debye):
    X=             -7.7937    Y=              4.3028    Z=             -1.8455  Tot=              9.0919
 Quadrupole moment (field-independent basis, Debye-Ang):
   XX=            -86.0886   YY=           -100.6638   ZZ=           -107.0156
   XY=             22.8096   XZ=              8.1686   YZ=             -1.0800

 Normal termination of Gaussian 16 at Thu May  6 11:27:54 2021.
