 Gaussian 16, Revision A.03,
 Gaussian 16:  EM64L-G16RevA.03 25-Dec-2016

 -------------
 #p 6-31g* mp2
 -------------

 ------------------------------------------------------
 Input file generated by CHIRIPA (05-May-2021 14:51:11)
 ------------------------------------------------------
 Symbolic Z-matrix:
 Charge =  0 Multiplicity = 1

                         Standard orientation:
 ---------------------------------------------------------------------
 Center     Atomic      Atomic             Coordinates (Angstroms)
 Number     Number       Type             X           Y           Z
 ---------------------------------------------------------------------
      1          6           0       -2.880550    0.732336   -0.391151
      2          6           0       -3.990551    0.896788    0.647520
      3          6           0       -4.360031    2.360311    0.891194
      4          1           0       -1.991614    1.286053   -0.059285
      5          1           0       -3.200930    1.192799   -1.335992
      6          1           0       -3.668729    0.434934    1.589718
      7          1           0       -4.876884    0.342456    0.313235
      8          1           0       -4.706261    2.829635   -0.035338
      9          1           0       -3.491241    2.922638    1.248398
     10          1           0       -5.155361    2.454752    1.637110
     11          6           0       -2.500102   -0.725135   -0.645644
     12          6           0       -1.390101   -0.889587   -1.684315
     13          6           0       -1.020622   -2.353111   -1.927989
     14          1           0       -2.179722   -1.185599    0.299197
     15          1           0       -3.389038   -1.278853   -0.977510
     16          1           0       -0.503768   -0.335256   -1.350031
     17          1           0       -1.711924   -0.427733   -2.626514
     18          1           0       -1.889411   -2.915438   -2.285193
     19          1           0       -0.674391   -2.822435   -1.001458
     20          1           0       -0.225291   -2.447551   -2.673905
     21          6           0        3.097273    0.197778   -0.095828
     22          6           0        3.694611    1.601621    0.006139
     23          6           0        4.505942    1.990076   -1.230244
     24          1           0        3.907547   -0.528445   -0.247488
     25          1           0        2.457467    0.142975   -0.987478
     26          1           0        4.332003    1.654168    0.898095
     27          1           0        2.882838    2.324566    0.157765
     28          1           0        3.877732    1.965702   -2.126547
     29          1           0        5.335131    1.291496   -1.382010
     30          1           0        4.923772    2.997256   -1.136090
     31          6           0        2.283379   -0.204978    1.132623
     32          6           0        1.686041   -1.608821    1.030657
     33          6           0        0.874711   -1.997276    2.267039
     34          1           0        2.923185   -0.150176    2.024274
     35          1           0        1.473106    0.521245    1.284283
     36          1           0        2.497814   -2.331766    0.879031
     37          1           0        1.048649   -1.661369    0.138701
     38          1           0        0.045522   -1.298696    2.418805
     39          1           0        1.502920   -1.972902    3.163342
     40          1           0        0.456880   -3.004456    2.172886
 ---------------------------------------------------------------------

 SCF Done:  E(RHF) =  -470.732809719     A.U. after   11 cycles
 E2 =    -0.1584326448D+01 EUMP2 =    -0.47231713616730D+03

 The electronic state is 1-A.
 Alpha  occ. eigenvalues --  -11.21669 -11.21639 -11.21623 -11.21570 -11.21455
 Alpha  occ. eigenvalues --  -11.21436 -11.21396 -11.21377 -11.21134 -11.21101
 Alpha  occ. eigenvalues --  -11.21101 -11.21083  -1.08515  -1.08430  -1.03633
 Alpha  occ. eigenvalues --   -1.03510  -0.96040  -0.96003  -0.87053  -0.87017
 Alpha  occ. eigenvalues --   -0.79650  -0.79616  -0.78305  -0.78267  -0.65434
 Alpha  occ. eigenvalues --   -0.64843  -0.61322  -0.60627  -0.59395  -0.59367
 Alpha  occ. eigenvalues --   -0.57685  -0.57578  -0.55362  -0.55272  -0.52718
 Alpha  occ. eigenvalues --   -0.52699  -0.52458  -0.52426  -0.50067  -0.49870
 Alpha  occ. eigenvalues --   -0.48027  -0.47875  -0.46690  -0.46609  -0.45968
 Alpha  occ. eigenvalues --   -0.45785  -0.45748  -0.45564  -0.43832  -0.43810
 Alpha virt. eigenvalues --    0.19177   0.22848   0.23520   0.24708   0.25503
 Alpha virt. eigenvalues --    0.26259   0.26672   0.28330   0.28849   0.29261
 Alpha virt. eigenvalues --    0.30991   0.31442   0.31655   0.31902   0.32222

 Mulliken charges:
               1
     1  C   -0.298337
     2  C   -0.299702
     3  C   -0.475727
     4  H    0.148937
     5  H    0.149748
     6  H    0.151942
     7  H    0.152198
     8  H    0.155255
     9  H    0.155110
    10  H    0.160485
    11  C   -0.300432
    12  C   -0.304559
    13  C   -0.479413
    14  H    0.151992
    15  H    0.150191
    16  H    0.153836
    17  H    0.152949
    18  H    0.156176
    19  H    0.158136
    20  H    0.160624
    21  C   -0.300452
    22  C   -0.299533
    23  C   -0.475779
    24  H    0.150043
    25  H    0.150791
    26  H    0.152055
    27  H    0.151805
    28  H    0.155358
    29  H    0.155224
    30  H    0.160340
    31  C   -0.297594
    32  C   -0.310496
    33  C   -0.476871
    34  H    0.149715
    35  H    0.148578
    36  H    0.152092
    37  H    0.164448
    38  H    0.154973
    39  H    0.155757
    40  H    0.160141
 Sum of Mulliken charges =  -0.00000

 Dipole moment (field-independent basis, Debye):
    X=             -0.0099    Y=             -0.0197    Z=             -0.0170  Tot=              0.0278
 Quadrupole moment (field-independent basis, Debye-Ang):
   XX=            -83.9987   YY=            -85.7996   ZZ=            -84.8293
   XY=             -0.1761   XZ=              1.5037   YZ=             -0.0428

 Normal termination of Gaussian 16 at Wed May  5 18:14:43 2021.
