 Gaussian 16, Revision A.03,
 Gaussian 16:  EM64L-G16RevA.03 25-Dec-2016

 -------------
 #p 6-31g* mp2
 -------------

 ------------------------------------------------------
 Input file generated by CHIRIPA (05-May-2021 14:57:21)
 ------------------------------------------------------
 Symbolic Z-matrix:
 Charge =  0 Multiplicity = 1

                         Standard orientation:
 ---------------------------------------------------------------------
 Center     Atomic      Atomic             Coordinates (Angstroms)
 Number     Number       Type             X           Y           Z
 ---------------------------------------------------------------------
      1          6           0        1.912604   -1.989081    1.368793
      2          6           0        1.518058   -1.817939    0.037792
      3          6           0        2.073804   -0.799407   -0.742137
      4          6           0        3.025830    0.033533   -0.156348
      5          6           0        3.439548   -0.111575    1.166933
      6          6           0        2.870401   -1.136855    1.928129
      7          1           0        1.475682   -2.782921    1.967385
      8          1           0        0.774429   -2.478294   -0.399233
      9          1           0        1.786557   -0.644498   -1.775050
     10          1           0        4.183029    0.562444    1.574797
     11          1           0        3.178718   -1.267416    2.961541
     12          7           0        3.621266    1.115378   -0.972108
     13          8           0        4.458149    1.835908   -0.432571
     14          8           0        3.239812    1.222314   -2.135592
     15          6           0       -2.979255    2.288289    1.351781
     16          6           0       -2.420638    1.132767    1.907872
     17          6           0       -2.386676   -0.060483    1.180172
     18          6           0       -2.922710   -0.062459   -0.106667
     19          6           0       -3.486086    1.072284   -0.688264
     20          6           0       -3.509261    2.254420    0.057770
     21          1           0       -3.001447    3.210918    1.924199
     22          1           0       -2.008292    1.156132    2.912595
     23          1           0       -1.960226   -0.969638    1.586369
     24          1           0       -3.889362    1.018032   -1.692178
     25          1           0       -3.943719    3.150285   -0.376646
     26          7           0       -2.892466   -1.319817   -0.886756
     27          8           0       -3.371274   -1.295417   -2.018473
     28          8           0       -2.390524   -2.305924   -0.351701
 ---------------------------------------------------------------------

 SCF Done:  E(RHF) =  -868.339694587     A.U. after   16 cycles
 E2 =    -0.2599251871D+01 EUMP2 =    -0.87093894645780D+03

 The electronic state is 1-A.
 Alpha  occ. eigenvalues --  -20.61496 -20.61427 -20.60680 -20.60668 -15.86491
 Alpha  occ. eigenvalues --  -15.85724 -11.31606 -11.31032 -11.28188 -11.28121
 Alpha  occ. eigenvalues --  -11.27832 -11.27609 -11.27492 -11.27273 -11.27121
 Alpha  occ. eigenvalues --  -11.27073 -11.26645 -11.26391  -1.60528  -1.59754
 Alpha  occ. eigenvalues --   -1.40090  -1.39308  -1.19755  -1.19178  -1.09193
 Alpha  occ. eigenvalues --   -1.08584  -1.05123  -1.04547  -0.96071  -0.95434
 Alpha  occ. eigenvalues --   -0.86534  -0.85940  -0.82917  -0.82250  -0.77999
 Alpha  occ. eigenvalues --   -0.77306  -0.72720  -0.71942  -0.71838  -0.71078
 Alpha  occ. eigenvalues --   -0.70863  -0.70281  -0.65415  -0.65127  -0.64815
 Alpha  occ. eigenvalues --   -0.64496  -0.62484  -0.61865  -0.55626  -0.55051
 Alpha  occ. eigenvalues --   -0.53463  -0.53224  -0.52904  -0.52597  -0.49489
 Alpha  occ. eigenvalues --   -0.49445  -0.48703  -0.48693  -0.45541  -0.44727
 Alpha  occ. eigenvalues --   -0.37715  -0.37187  -0.36711  -0.36139
 Alpha virt. eigenvalues --    0.04497   0.05179   0.10897   0.11519   0.16021
 Alpha virt. eigenvalues --    0.16696   0.20965   0.21821   0.26850   0.27470
 Alpha virt. eigenvalues --    0.28079   0.28693   0.30731   0.31368   0.32063

 Mulliken charges:
               1
     1  C   -0.176878
     2  C   -0.224912
     3  C   -0.173787
     4  C    0.158663
     5  C   -0.173203
     6  C   -0.219598
     7  H    0.226463
     8  H    0.243652
     9  H    0.277603
    10  H    0.273669
    11  H    0.220966
    12  N    0.487856
    13  O   -0.462311
    14  O   -0.459786
    15  C   -0.169307
    16  C   -0.217659
    17  C   -0.168233
    18  C    0.157270
    19  C   -0.169876
    20  C   -0.217855
    21  H    0.227918
    22  H    0.223327
    23  H    0.270016
    24  H    0.276939
    25  H    0.226104
    26  N    0.488278
    27  O   -0.455518
    28  O   -0.469802
 Sum of Mulliken charges =  -0.00000

 Dipole moment (field-independent basis, Debye):
    X=             -2.4392    Y=              0.6946    Z=              5.5073  Tot=              6.0632
 Quadrupole moment (field-independent basis, Debye-Ang):
   XX=           -115.6968   YY=           -104.9799   ZZ=           -100.8570
   XY=            -25.6187   XZ=              5.4368   YZ=             -0.4954

 Normal termination of Gaussian 16 at Thu May  6 17:49:52 2021.
