 Gaussian 16, Revision A.03,
 Gaussian 16:  EM64L-G16RevA.03 25-Dec-2016

 -------------
 #p 6-31g* mp2
 -------------

 ------------------------------------------------------
 Input file generated by CHIRIPA (05-May-2021 14:55:23)
 ------------------------------------------------------
 Symbolic Z-matrix:
 Charge =  0 Multiplicity = 1

                         Standard orientation:
 ---------------------------------------------------------------------
 Center     Atomic      Atomic             Coordinates (Angstroms)
 Number     Number       Type             X           Y           Z
 ---------------------------------------------------------------------
      1          6           0        3.495389   -2.103309    0.360837
      2          6           0        2.415584   -1.600479    1.094121
      3          6           0        2.050516   -0.255087    0.988332
      4          6           0        2.790506    0.562935    0.135955
      5          6           0        3.871346    0.091678   -0.607678
      6          6           0        4.218549   -1.257117   -0.486229
      7          1           0        3.772043   -3.149764    0.449099
      8          1           0        1.852166   -2.255325    1.752743
      9          1           0        1.218983    0.160415    1.544506
     10          1           0        4.413997    0.768883   -1.256015
     11          1           0        5.057602   -1.644872   -1.056913
     12          7           0        2.413481    1.989043    0.015672
     13          8           0        3.081448    2.689102   -0.742204
     14          8           0        1.457142    2.379764    0.681546
     15          6           0       -4.191143   -0.156348    0.272550
     16          6           0       -5.435251    0.355228   -0.454409
     17          6           0       -6.506053    0.878815    0.503210
     18          1           0       -4.483397   -0.953754    0.969456
     19          1           0       -3.772551    0.655126    0.883851
     20          1           0       -5.850576   -0.456569   -1.065233
     21          1           0       -5.139974    1.151378   -1.149802
     22          1           0       -6.114376    1.706007    1.103995
     23          1           0       -6.829015    0.088924    1.189045
     24          1           0       -7.386569    1.239499   -0.037584
     25          6           0       -3.111626   -0.683064   -0.671346
     26          6           0       -1.867517   -1.194640    0.055613
     27          6           0       -0.796715   -1.718226   -0.902005
     28          1           0       -3.530217   -1.494537   -1.282646
     29          1           0       -2.819373    0.114342   -1.368251
     30          1           0       -2.162794   -1.990790    0.751008
     31          1           0       -1.452193   -0.382842    0.666438
     32          1           0       -0.473753   -0.928336   -1.587840
     33          1           0       -1.188393   -2.545419   -1.502789
     34          1           0        0.083801   -2.078911   -0.361211
 ---------------------------------------------------------------------

 SCF Done:  E(RHF) =  -669.534540177     A.U. after   15 cycles
 E2 =    -0.2093019618D+01 EUMP2 =    -0.67162755979569D+03

 The electronic state is 1-A.
 Alpha  occ. eigenvalues --  -20.60821 -20.60812 -15.85872 -11.31229 -11.27799
 Alpha  occ. eigenvalues --  -11.27796 -11.27549 -11.26811 -11.26795 -11.21755
 Alpha  occ. eigenvalues --  -11.21478 -11.21366 -11.21273 -11.21098 -11.20937
 Alpha  occ. eigenvalues --   -1.59894  -1.39448  -1.19414  -1.08808  -1.08400
 Alpha  occ. eigenvalues --   -1.04829  -1.03520  -0.95963  -0.95636  -0.86979
 Alpha  occ. eigenvalues --   -0.86215  -0.82477  -0.79601  -0.78212  -0.77523
 Alpha  occ. eigenvalues --   -0.72091  -0.71217  -0.70517  -0.65070  -0.65034
 Alpha  occ. eigenvalues --   -0.64812  -0.62187  -0.60910  -0.59390  -0.57613
 Alpha  occ. eigenvalues --   -0.55321  -0.55237  -0.53415  -0.52910  -0.52507
 Alpha  occ. eigenvalues --   -0.52226  -0.49883  -0.48849  -0.48845  -0.47915
 Alpha  occ. eigenvalues --   -0.46627  -0.45754  -0.45660  -0.44853  -0.43780
 Alpha  occ. eigenvalues --   -0.37384  -0.36308
 Alpha virt. eigenvalues --    0.05002   0.11112   0.16440   0.20728   0.22993
 Alpha virt. eigenvalues --    0.24232   0.25942   0.26927   0.27397   0.28235
 Alpha virt. eigenvalues --    0.28912   0.30014   0.31474   0.31613   0.32490

 Mulliken charges:
               1
     1  C   -0.170421
     2  C   -0.222389
     3  C   -0.165944
     4  C    0.158378
     5  C   -0.170697
     6  C   -0.218239
     7  H    0.226060
     8  H    0.224817
     9  H    0.277476
    10  H    0.275757
    11  H    0.223717
    12  N    0.487973
    13  O   -0.460141
    14  O   -0.461070
    15  C   -0.299181
    16  C   -0.299941
    17  C   -0.475933
    18  H    0.147473
    19  H    0.152955
    20  H    0.150818
    21  H    0.154136
    22  H    0.156787
    23  H    0.153968
    24  H    0.160309
    25  C   -0.297826
    26  C   -0.302979
    27  C   -0.480282
    28  H    0.148715
    29  H    0.154092
    30  H    0.147839
    31  H    0.152292
    32  H    0.158284
    33  H    0.153239
    34  H    0.159958
 Sum of Mulliken charges =  -0.00000

 Dipole moment (field-independent basis, Debye):
    X=              1.3902    Y=             -4.9475    Z=              0.4023  Tot=              5.1548
 Quadrupole moment (field-independent basis, Debye-Ang):
   XX=            -85.3144   YY=           -100.4489   ZZ=            -93.3334
   XY=            -12.4462   XZ=             -0.9350   YZ=             -1.3317

 Normal termination of Gaussian 16 at Thu May  6 09:26:38 2021.
