 Gaussian 16, Revision A.03,
 Gaussian 16:  EM64L-G16RevA.03 25-Dec-2016

 -------------
 #p 6-31g* mp2
 -------------

 ------------------------------------------------------
 Input file generated by CHIRIPA (05-May-2021 14:51:11)
 ------------------------------------------------------
 Symbolic Z-matrix:
 Charge =  0 Multiplicity = 1

                         Standard orientation:
 ---------------------------------------------------------------------
 Center     Atomic      Atomic             Coordinates (Angstroms)
 Number     Number       Type             X           Y           Z
 ---------------------------------------------------------------------
      1          6           0        4.400556    0.047327   -0.324583
      2          6           0        5.186854    1.193502    0.312602
      3          6           0        6.446887    1.555199   -0.474346
      4          1           0        5.050495   -0.834791   -0.404535
      5          1           0        4.125332    0.326853   -1.350990
      6          1           0        5.459321    0.912451    1.337974
      7          1           0        4.534910    2.072936    0.391221
      8          1           0        6.189930    1.861141   -1.493646
      9          1           0        7.119593    0.694063   -0.541514
     10          1           0        6.993704    2.376777   -0.001207
     11          6           0        3.138194   -0.325804    0.450624
     12          6           0        2.351897   -1.471979   -0.186561
     13          6           0        1.091864   -1.833676    0.600386
     14          1           0        3.413419   -0.605330    1.477031
     15          1           0        2.488256    0.556314    0.530575
     16          1           0        3.003841   -2.351413   -0.265181
     17          1           0        2.079430   -1.190928   -1.211933
     18          1           0        0.419157   -0.972540    0.667555
     19          1           0        1.348820   -2.139618    1.619687
     20          1           0        0.545047   -2.655254    0.127247
     21          6           0       -3.829069   -0.551763   -0.382998
     22          6           0       -2.932306   -1.602825    0.272036
     23          6           0       -3.062893   -2.980041   -0.379129
     24          1           0       -4.874167   -0.886307   -0.330149
     25          1           0       -3.577723   -0.479103   -1.450210
     26          1           0       -3.184325   -1.672493    1.337986
     27          1           0       -1.889240   -1.265650    0.217791
     28          1           0       -2.791657   -2.932453   -1.438736
     29          1           0       -4.094100   -3.341607   -0.312177
     30          1           0       -2.413227   -3.716083    0.104643
     31          6           0       -3.709682    0.830240    0.256957
     32          6           0       -4.606444    1.881302   -0.398077
     33          6           0       -4.475858    3.258519    0.253089
     34          1           0       -3.961028    0.757580    1.324169
     35          1           0       -2.664582    1.164784    0.204108
     36          1           0       -5.649510    1.544127   -0.343832
     37          1           0       -4.354426    1.950970   -1.464026
     38          1           0       -3.444650    3.620085    0.186136
     39          1           0       -4.747092    3.210930    1.312696
     40          1           0       -5.125524    3.994560   -0.230684
 ---------------------------------------------------------------------

 SCF Done:  E(RHF) =  -470.732966142     A.U. after   11 cycles
 E2 =    -0.1582772407D+01 EUMP2 =    -0.47231573854892D+03

 The electronic state is 1-A.
 Alpha  occ. eigenvalues --  -11.21633 -11.21621 -11.21590 -11.21457 -11.21433
 Alpha  occ. eigenvalues --  -11.21374 -11.21373 -11.21301 -11.21094 -11.21087
 Alpha  occ. eigenvalues --  -11.21067 -11.21016  -1.08460  -1.08386  -1.03570
 Alpha  occ. eigenvalues --   -1.03472  -0.96024  -0.95929  -0.87035  -0.86955
 Alpha  occ. eigenvalues --   -0.79682  -0.79495  -0.78284  -0.78183  -0.65123
 Alpha  occ. eigenvalues --   -0.64997  -0.61066  -0.60800  -0.59446  -0.59241
 Alpha  occ. eigenvalues --   -0.57630  -0.57538  -0.55352  -0.55191  -0.52738
 Alpha  occ. eigenvalues --   -0.52592  -0.52469  -0.52336  -0.50062  -0.49819
 Alpha  occ. eigenvalues --   -0.48014  -0.47795  -0.46801  -0.46444  -0.45870
 Alpha  occ. eigenvalues --   -0.45757  -0.45704  -0.45512  -0.43795  -0.43739
 Alpha virt. eigenvalues --    0.21766   0.23078   0.23592   0.24788   0.25729
 Alpha virt. eigenvalues --    0.26790   0.27052   0.27105   0.27764   0.29085
 Alpha virt. eigenvalues --    0.30788   0.30992   0.31698   0.31728   0.32424

 Mulliken charges:
               1
     1  C   -0.298286
     2  C   -0.299667
     3  C   -0.475722
     4  H    0.149767
     5  H    0.149462
     6  H    0.152014
     7  H    0.151922
     8  H    0.155173
     9  H    0.155226
    10  H    0.160334
    11  C   -0.298580
    12  C   -0.299699
    13  C   -0.480162
    14  H    0.149732
    15  H    0.149610
    16  H    0.152139
    17  H    0.151728
    18  H    0.157724
    19  H    0.155660
    20  H    0.162731
    21  C   -0.297758
    22  C   -0.307445
    23  C   -0.475963
    24  H    0.149266
    25  H    0.148917
    26  H    0.151281
    27  H    0.161927
    28  H    0.154485
    29  H    0.154860
    30  H    0.160350
    31  C   -0.298024
    32  C   -0.299573
    33  C   -0.475657
    34  H    0.149660
    35  H    0.148362
    36  H    0.152071
    37  H    0.151786
    38  H    0.154911
    39  H    0.155229
    40  H    0.160209
 Sum of Mulliken charges =  -0.00000

 Dipole moment (field-independent basis, Debye):
    X=              0.0411    Y=             -0.0103    Z=              0.0146  Tot=              0.0448
 Quadrupole moment (field-independent basis, Debye-Ang):
   XX=            -84.9370   YY=            -85.5581   ZZ=            -84.4104
   XY=             -0.5705   XZ=              0.2261   YZ=             -0.7740

 Normal termination of Gaussian 16 at Thu May  6 03:50:24 2021.
