 Gaussian 16, Revision A.03,
 Gaussian 16:  EM64L-G16RevA.03 25-Dec-2016

 -------------
 #p 6-31g* mp2
 -------------

 ------------------------------------------------------
 Input file generated by CHIRIPA (05-May-2021 14:55:20)
 ------------------------------------------------------
 Symbolic Z-matrix:
 Charge =  0 Multiplicity = 1

                         Standard orientation:
 ---------------------------------------------------------------------
 Center     Atomic      Atomic             Coordinates (Angstroms)
 Number     Number       Type             X           Y           Z
 ---------------------------------------------------------------------
      1          6           0       -2.367995    2.509014    0.328087
      2          6           0       -2.042285    1.591817    1.332669
      3          6           0       -2.451294    0.258400    1.236454
      4          6           0       -3.187985   -0.125243    0.116903
      5          6           0       -3.528165    0.764925   -0.900529
      6          6           0       -3.108590    2.093373   -0.783346
      7          1           0       -2.046164    3.542914    0.410973
      8          1           0       -1.467239    1.911791    2.196951
      9          1           0       -2.212964   -0.472537    1.999572
     10          1           0       -4.102551    0.416264   -1.750196
     11          1           0       -3.362990    2.803492   -1.565048
     12          7           0       -3.626576   -1.534242    0.003946
     13          8           0       -4.274630   -1.847161   -0.992420
     14          8           0       -3.313987   -2.299017    0.913915
     15          6           0        4.692456    0.000945   -0.434805
     16          6           0        5.792777   -0.389558    0.552507
     17          6           0        7.196279   -0.107704    0.015354
     18          1           0        4.842762   -0.544948   -1.376269
     19          1           0        4.786684    1.069170   -0.674414
     20          1           0        5.695654   -1.456416    0.791248
     21          1           0        5.639723    0.157184    1.491796
     22          1           0        7.317441    0.957710   -0.205582
     23          1           0        7.373689   -0.665058   -0.910110
     24          1           0        7.967450   -0.394343    0.737151
     25          6           0        3.283734   -0.274806    0.087875
     26          6           0        2.183414    0.115697   -0.899438
     27          6           0        0.779911   -0.166158   -0.362284
     28          1           0        3.189507   -1.343031    0.327482
     29          1           0        3.133428    0.271087    1.029338
     30          1           0        2.336468   -0.431045   -1.838726
     31          1           0        2.280536    1.182555   -1.138179
     32          1           0        0.602501    0.391196    0.563179
     33          1           0        0.658749   -1.231572   -0.141348
     34          1           0        0.008739    0.120481   -1.084082
 ---------------------------------------------------------------------

 SCF Done:  E(RHF) =  -669.534715886     A.U. after   15 cycles
 E2 =    -0.2092731920D+01 EUMP2 =    -0.67162744780655D+03

 The electronic state is 1-A.
 Alpha  occ. eigenvalues --  -20.60751 -20.60746 -15.85806 -11.31170 -11.27759
 Alpha  occ. eigenvalues --  -11.27726 -11.27493 -11.26780 -11.26741 -11.21721
 Alpha  occ. eigenvalues --  -11.21703 -11.21540 -11.21480 -11.21179 -11.21079
 Alpha  occ. eigenvalues --   -1.59826  -1.39380  -1.19356  -1.08748  -1.08553
 Alpha  occ. eigenvalues --   -1.04769  -1.03633  -0.96084  -0.95579  -0.87102
 Alpha  occ. eigenvalues --   -0.86160  -0.82418  -0.79707  -0.78373  -0.77461
 Alpha  occ. eigenvalues --   -0.72025  -0.71147  -0.70464  -0.65190  -0.65010
 Alpha  occ. eigenvalues --   -0.64771  -0.62114  -0.61042  -0.59463  -0.57696
 Alpha  occ. eigenvalues --   -0.55417  -0.55264  -0.53485  -0.52858  -0.52532
 Alpha  occ. eigenvalues --   -0.52321  -0.50006  -0.48784  -0.48778  -0.48027
 Alpha  occ. eigenvalues --   -0.46741  -0.45915  -0.45841  -0.44784  -0.43875
 Alpha  occ. eigenvalues --   -0.37324  -0.36275
 Alpha virt. eigenvalues --    0.05078   0.11236   0.16506   0.21251   0.22760
 Alpha virt. eigenvalues --    0.24182   0.26428   0.26863   0.27473   0.28053
 Alpha virt. eigenvalues --    0.28457   0.30545   0.31461   0.31717   0.31943

 Mulliken charges:
               1
     1  C   -0.170499
     2  C   -0.216894
     3  C   -0.165999
     4  C    0.159857
     5  C   -0.172490
     6  C   -0.218803
     7  H    0.225381
     8  H    0.222862
     9  H    0.275711
    10  H    0.275615
    11  H    0.223411
    12  N    0.488014
    13  O   -0.460700
    14  O   -0.460480
    15  C   -0.298119
    16  C   -0.299660
    17  C   -0.475727
    18  H    0.150795
    19  H    0.148096
    20  H    0.153118
    21  H    0.150779
    22  H    0.154502
    23  H    0.155856
    24  H    0.160578
    25  C   -0.298042
    26  C   -0.300592
    27  C   -0.476280
    28  H    0.151870
    29  H    0.146150
    30  H    0.153390
    31  H    0.148333
    32  H    0.149114
    33  H    0.158694
    34  H    0.162159
 Sum of Mulliken charges =  -0.00000

 Dipole moment (field-independent basis, Debye):
    X=              1.4980    Y=              4.9347    Z=              0.4011  Tot=              5.1727
 Quadrupole moment (field-independent basis, Debye-Ang):
   XX=           -105.5915   YY=            -95.5366   ZZ=            -90.9706
   XY=            -17.0182   XZ=              1.3338   YZ=             -0.0641

 Normal termination of Gaussian 16 at Thu May  6 12:26:33 2021.
