 Gaussian 16, Revision A.03,
 Gaussian 16:  EM64L-G16RevA.03 25-Dec-2016

 -------------
 #p 6-31g* mp2
 -------------

 ------------------------------------------------------
 Input file generated by CHIRIPA (05-May-2021 14:53:12)
 ------------------------------------------------------
 Symbolic Z-matrix:
 Charge =  0 Multiplicity = 1

                         Standard orientation:
 ---------------------------------------------------------------------
 Center     Atomic      Atomic             Coordinates (Angstroms)
 Number     Number       Type             X           Y           Z
 ---------------------------------------------------------------------
      1          6           0       -3.719761    0.046785   -0.478542
      2          6           0       -4.779325    1.016891    0.045101
      3          6           0       -5.483995    1.783384   -1.074597
      4          1           0       -2.978024    0.605732   -1.065355
      5          1           0       -4.193285   -0.664481   -1.169391
      6          1           0       -4.304204    1.725253    0.735825
      7          1           0       -5.518521    0.455598    0.630896
      8          1           0       -5.983744    1.091204   -1.759972
      9          1           0       -4.762528    2.368073   -1.654446
     10          1           0       -6.237342    2.471112   -0.677914
     11          6           0       -3.006540   -0.726875    0.628929
     12          6           0       -1.946976   -1.696982    0.105286
     13          6           0       -1.242306   -2.463474    1.224984
     14          1           0       -2.533016   -0.015610    1.319778
     15          1           0       -3.748277   -1.285823    1.215742
     16          1           0       -1.207781   -1.135688   -0.480509
     17          1           0       -2.422097   -2.405344   -0.585438
     18          1           0       -1.963773   -3.048163    1.804833
     19          1           0       -0.742557   -1.771294    1.910358
     20          1           0       -0.488959   -3.151203    0.828300
     21          6           0        2.677851    2.618885    0.849943
     22          6           0        3.207931    2.345578   -0.415299
     23          6           0        3.185402    1.045453   -0.928829
     24          6           0        2.622590    0.038159   -0.146594
     25          6           0        2.086500    0.278793    1.117524
     26          6           0        2.119811    1.586441    1.610975
     27          1           0        2.699540    3.631777    1.241067
     28          1           0        3.641944    3.145413   -1.008546
     29          1           0        3.588750    0.805922   -1.905227
     30          1           0        1.660504   -0.539337    1.685512
     31          1           0        1.707408    1.795766    2.593906
     32          7           0        2.593032   -1.342208   -0.679616
     33          8           0        2.091580   -2.212062    0.029282
     34          8           0        3.071877   -1.528148   -1.796205
 ---------------------------------------------------------------------

 SCF Done:  E(RHF) =  -669.535841508     A.U. after   15 cycles
 E2 =    -0.2092013146D+01 EUMP2 =    -0.67162785465350D+03

 The electronic state is 1-A.
 Alpha  occ. eigenvalues --  -20.60894 -20.60885 -15.85925 -11.31265 -11.27829
 Alpha  occ. eigenvalues --  -11.27815 -11.27570 -11.26841 -11.26831 -11.21550
 Alpha  occ. eigenvalues --  -11.21235 -11.21162 -11.21104 -11.21048 -11.20375
 Alpha  occ. eigenvalues --   -1.59954  -1.39509  -1.19434  -1.08836  -1.08207
 Alpha  occ. eigenvalues --   -1.04832  -1.03242  -0.95734  -0.95623  -0.86704
 Alpha  occ. eigenvalues --   -0.86230  -0.82508  -0.79323  -0.78014  -0.77554
 Alpha  occ. eigenvalues --   -0.72157  -0.71272  -0.70543  -0.65092  -0.64895
 Alpha  occ. eigenvalues --   -0.64794  -0.62191  -0.60648  -0.59041  -0.57259
 Alpha  occ. eigenvalues --   -0.55349  -0.54996  -0.53164  -0.52923  -0.52316
 Alpha  occ. eigenvalues --   -0.52103  -0.49678  -0.48905  -0.48889  -0.47622
 Alpha  occ. eigenvalues --   -0.46386  -0.45552  -0.45497  -0.44892  -0.43464
 Alpha  occ. eigenvalues --   -0.37413  -0.36431
 Alpha virt. eigenvalues --    0.04947   0.11170   0.16423   0.20815   0.22995
 Alpha virt. eigenvalues --    0.24149   0.26274   0.27036   0.27672   0.27757
 Alpha virt. eigenvalues --    0.29266   0.30757   0.31470   0.31903   0.32438

 Mulliken charges:
               1
     1  C   -0.297862
     2  C   -0.298997
     3  C   -0.475444
     4  H    0.148705
     5  H    0.150793
     6  H    0.149126
     7  H    0.152054
     8  H    0.156084
     9  H    0.154247
    10  H    0.159227
    11  C   -0.296920
    12  C   -0.299045
    13  C   -0.477139
    14  H    0.143338
    15  H    0.149203
    16  H    0.150293
    17  H    0.153579
    18  H    0.149794
    19  H    0.139822
    20  H    0.185744
    21  C   -0.170557
    22  C   -0.218670
    23  C   -0.170683
    24  C    0.156967
    25  C   -0.173470
    26  C   -0.219652
    27  H    0.225907
    28  H    0.223731
    29  H    0.275777
    30  H    0.281200
    31  H    0.223844
    32  N    0.489769
    33  O   -0.461294
    34  O   -0.459471
 Sum of Mulliken charges =  -0.00000

 Dipole moment (field-independent basis, Debye):
    X=              0.2559    Y=              4.7359    Z=              1.7847  Tot=              5.0675
 Quadrupole moment (field-independent basis, Debye-Ang):
   XX=            -94.0627   YY=            -93.8208   ZZ=            -92.7441
   XY=             14.7608   XZ=              2.5793   YZ=             -1.5041

 Normal termination of Gaussian 16 at Thu May  6 13:38:00 2021.
