 Gaussian 16, Revision A.03,
 Gaussian 16:  EM64L-G16RevA.03 25-Dec-2016

 -------------
 #p 6-31g* mp2
 -------------

 ------------------------------------------------------
 Input file generated by CHIRIPA (05-May-2021 14:53:11)
 ------------------------------------------------------
 Symbolic Z-matrix:
 Charge =  0 Multiplicity = 1

                         Standard orientation:
 ---------------------------------------------------------------------
 Center     Atomic      Atomic             Coordinates (Angstroms)
 Number     Number       Type             X           Y           Z
 ---------------------------------------------------------------------
      1          6           0        3.812991    0.859877    0.256441
      2          6           0        3.133667    2.162477   -0.167512
      3          6           0        3.708900    3.387792    0.543478
      4          1           0        3.709977    0.736913    1.343277
      5          1           0        4.889950    0.932327    0.050761
      6          1           0        2.058099    2.087066    0.037629
      7          1           0        3.238144    2.282259   -1.253492
      8          1           0        4.777613    3.490972    0.329454
      9          1           0        3.590864    3.294670    1.627911
     10          1           0        3.208849    4.307976    0.225561
     11          6           0        3.248838   -0.373993   -0.445716
     12          6           0        3.928162   -1.676594   -0.021763
     13          6           0        3.352929   -2.901908   -0.732753
     14          1           0        2.171879   -0.446443   -0.240036
     15          1           0        3.351852   -0.251029   -1.532552
     16          1           0        3.823685   -1.796375    1.064217
     17          1           0        5.003730   -1.601182   -0.226904
     18          1           0        3.470965   -2.808786   -1.817187
     19          1           0        2.284216   -3.005089   -0.518730
     20          1           0        3.852980   -3.822092   -0.414837
     21          6           0       -0.635104   -1.348882    0.790539
     22          6           0       -0.762634   -0.866704   -0.516274
     23          6           0       -1.934618   -0.222882   -0.924313
     24          6           0       -2.963811   -0.077742    0.004657
     25          6           0       -2.866944   -0.547270    1.313645
     26          6           0       -1.685813   -1.187909    1.699725
     27          1           0        0.278875   -1.847783    1.098984
     28          1           0        0.051727   -0.990308   -1.224499
     29          1           0       -2.059992    0.160002   -1.929848
     30          1           0       -3.695944   -0.409203    1.997102
     31          1           0       -1.589562   -1.561369    2.715260
     32          7           0       -4.209380    0.602159   -0.415692
     33          8           0       -5.101576    0.717487    0.421759
     34          8           0       -4.269877    1.006863   -1.574653
 ---------------------------------------------------------------------

 SCF Done:  E(RHF) =  -669.535082457     A.U. after   15 cycles
 E2 =    -0.2092770670D+01 EUMP2 =    -0.67162785312739D+03

 The electronic state is 1-A.
 Alpha  occ. eigenvalues --  -20.60773 -20.60768 -15.85826 -11.31206 -11.27772
 Alpha  occ. eigenvalues --  -11.27757 -11.27511 -11.26792 -11.26741 -11.22639
 Alpha  occ. eigenvalues --  -11.22413 -11.22231 -11.22189 -11.22122 -11.21514
 Alpha  occ. eigenvalues --   -1.59848  -1.39401  -1.19377  -1.09319  -1.08769
 Alpha  occ. eigenvalues --   -1.04777  -1.04353  -0.96814  -0.95606  -0.87827
 Alpha  occ. eigenvalues --   -0.86184  -0.82431  -0.80436  -0.79122  -0.77470
 Alpha  occ. eigenvalues --   -0.72045  -0.71170  -0.70508  -0.66014  -0.65019
 Alpha  occ. eigenvalues --   -0.64743  -0.62142  -0.61728  -0.60189  -0.58412
 Alpha  occ. eigenvalues --   -0.56139  -0.55274  -0.53479  -0.53277  -0.53074
 Alpha  occ. eigenvalues --   -0.52860  -0.50768  -0.48826  -0.48799  -0.48712
 Alpha  occ. eigenvalues --   -0.47475  -0.46623  -0.46538  -0.44803  -0.44608
 Alpha  occ. eigenvalues --   -0.37343  -0.36366
 Alpha virt. eigenvalues --    0.05039   0.11121   0.16521   0.18754   0.22627
 Alpha virt. eigenvalues --    0.23780   0.25462   0.25798   0.27149   0.27646
 Alpha virt. eigenvalues --    0.29118   0.29890   0.30975   0.31345   0.32033

 Mulliken charges:
               1
     1  C   -0.297418
     2  C   -0.301667
     3  C   -0.476186
     4  H    0.149701
     5  H    0.152360
     6  H    0.154003
     7  H    0.152533
     8  H    0.155974
     9  H    0.155696
    10  H    0.163308
    11  C   -0.306879
    12  C   -0.300715
    13  C   -0.478250
    14  H    0.146228
    15  H    0.151293
    16  H    0.150553
    17  H    0.157528
    18  H    0.159074
    19  H    0.145878
    20  H    0.165780
    21  C   -0.174076
    22  C   -0.220607
    23  C   -0.171944
    24  C    0.158434
    25  C   -0.170909
    26  C   -0.218953
    27  H    0.228217
    28  H    0.228302
    29  H    0.275977
    30  H    0.275681
    31  H    0.223593
    32  N    0.488057
    33  O   -0.460358
    34  O   -0.460206
 Sum of Mulliken charges =  -0.00000

 Dipole moment (field-independent basis, Debye):
    X=              4.5445    Y=             -2.3236    Z=              1.4662  Tot=              5.3104
 Quadrupole moment (field-independent basis, Debye-Ang):
   XX=           -119.5110   YY=            -95.7515   ZZ=            -90.2204
   XY=              6.8612   XZ=             -7.1525   YZ=             -1.3149

 Normal termination of Gaussian 16 at Thu May  6 04:04:50 2021.
