 Gaussian 16, Revision A.03,
 Gaussian 16:  EM64L-G16RevA.03 25-Dec-2016

 -------------
 #p 6-31g* mp2
 -------------

 ------------------------------------------------------
 Input file generated by CHIRIPA (05-May-2021 14:53:17)
 ------------------------------------------------------
 Symbolic Z-matrix:
 Charge =  0 Multiplicity = 1

                         Standard orientation:
 ---------------------------------------------------------------------
 Center     Atomic      Atomic             Coordinates (Angstroms)
 Number     Number       Type             X           Y           Z
 ---------------------------------------------------------------------
      1          6           0        3.965236    0.183870   -0.298883
      2          6           0        4.981211   -0.841885   -0.802476
      3          6           0        5.740664   -0.363227   -2.040180
      4          1           0        3.252320    0.409956   -1.103607
      5          1           0        4.486337    1.123738   -0.069760
      6          1           0        4.458556   -1.779975   -1.029269
      7          1           0        5.691676   -1.065698    0.003603
      8          1           0        6.287404    0.560200   -1.823482
      9          1           0        5.047277   -0.158135   -2.862222
     10          1           0        6.461628   -1.111811   -2.383243
     11          6           0        3.198040   -0.280182    0.937966
     12          6           0        2.182064    0.745573    1.441558
     13          6           0        1.422612    0.266916    2.679263
     14          1           0        2.676939   -1.220050    0.708843
     15          1           0        3.910955   -0.506268    1.742690
     16          1           0        1.471599    0.969387    0.635480
     17          1           0        2.704719    1.683663    1.668352
     18          1           0        2.115998    0.061823    3.501305
     19          1           0        0.875872   -0.656512    2.462565
     20          1           0        0.701647    1.015499    3.022326
     21          6           0       -3.563281   -2.357887   -0.044597
     22          6           0       -2.284435   -1.992036    0.388102
     23          6           0       -1.849921   -0.667681    0.279340
     24          6           0       -2.724185    0.269211   -0.269464
     25          6           0       -4.004199   -0.064247   -0.709534
     26          6           0       -4.417575   -1.394523   -0.591070
     27          1           0       -3.892612   -3.388977    0.043659
     28          1           0       -1.618842   -2.738076    0.812901
     29          1           0       -0.865059   -0.357055    0.606414
     30          1           0       -4.645173    0.701791   -1.128765
     31          1           0       -5.411287   -1.675776   -0.927938
     32          7           0       -2.275373    1.674381   -0.389741
     33          8           0       -3.064615    2.480914   -0.876811
     34          8           0       -1.142851    1.942610    0.005333
 ---------------------------------------------------------------------

 SCF Done:  E(RHF) =  -669.535700677     A.U. after   15 cycles
 E2 =    -0.2092259768D+01 EUMP2 =    -0.67162796044445D+03

 The electronic state is 1-A.
 Alpha  occ. eigenvalues --  -20.60883 -20.60871 -15.85919 -11.31225 -11.27799
 Alpha  occ. eigenvalues --  -11.27763 -11.27538 -11.26805 -11.26792 -11.21474
 Alpha  occ. eigenvalues --  -11.21252 -11.21158 -11.21139 -11.21027 -11.20928
 Alpha  occ. eigenvalues --   -1.59946  -1.39503  -1.19400  -1.08808  -1.08239
 Alpha  occ. eigenvalues --   -1.04797  -1.03351  -0.95851  -0.95640  -0.86857
 Alpha  occ. eigenvalues --   -0.86197  -0.82490  -0.79386  -0.78037  -0.77534
 Alpha  occ. eigenvalues --   -0.72149  -0.71261  -0.70519  -0.65067  -0.64985
 Alpha  occ. eigenvalues --   -0.64715  -0.62205  -0.60702  -0.59166  -0.57407
 Alpha  occ. eigenvalues --   -0.55377  -0.55102  -0.53129  -0.52867  -0.52505
 Alpha  occ. eigenvalues --   -0.52249  -0.49817  -0.48917  -0.48891  -0.47697
 Alpha  occ. eigenvalues --   -0.46409  -0.45586  -0.45483  -0.44899  -0.43592
 Alpha  occ. eigenvalues --   -0.37383  -0.36395
 Alpha virt. eigenvalues --    0.04977   0.11248   0.16472   0.19854   0.23013
 Alpha virt. eigenvalues --    0.24017   0.26366   0.27259   0.27720   0.28067
 Alpha virt. eigenvalues --    0.29405   0.30746   0.31698   0.31864   0.32218

 Mulliken charges:
               1
     1  C   -0.298437
     2  C   -0.299167
     3  C   -0.475635
     4  H    0.152568
     5  H    0.151582
     6  H    0.149171
     7  H    0.151201
     8  H    0.156097
     9  H    0.155869
    10  H    0.159062
    11  C   -0.296980
    12  C   -0.313236
    13  C   -0.477614
    14  H    0.140424
    15  H    0.148370
    16  H    0.174492
    17  H    0.155998
    18  H    0.155916
    19  H    0.137366
    20  H    0.170244
    21  C   -0.170166
    22  C   -0.222394
    23  C   -0.176771
    24  C    0.155756
    25  C   -0.169916
    26  C   -0.219162
    27  H    0.225823
    28  H    0.223821
    29  H    0.290440
    30  H    0.275594
    31  H    0.223590
    32  N    0.491609
    33  O   -0.459398
    34  O   -0.466117
 Sum of Mulliken charges =  -0.00000

 Dipole moment (field-independent basis, Debye):
    X=             -1.6387    Y=             -4.7473    Z=              0.3781  Tot=              5.0364
 Quadrupole moment (field-independent basis, Debye-Ang):
   XX=            -82.3227   YY=            -97.5132   ZZ=            -95.4742
   XY=             12.6582   XZ=              2.3269   YZ=              1.5362

 Normal termination of Gaussian 16 at Thu May  6 01:12:32 2021.
