 Gaussian 16, Revision A.03,
 Gaussian 16:  EM64L-G16RevA.03 25-Dec-2016

 -------------
 #p 6-31g* mp2
 -------------

 ------------------------------------------------------
 Input file generated by CHIRIPA (05-May-2021 14:57:22)
 ------------------------------------------------------
 Symbolic Z-matrix:
 Charge =  0 Multiplicity = 1

                         Standard orientation:
 ---------------------------------------------------------------------
 Center     Atomic      Atomic             Coordinates (Angstroms)
 Number     Number       Type             X           Y           Z
 ---------------------------------------------------------------------
      1          6           0        1.967436    0.957332    1.242427
      2          6           0        1.850011   -0.274789    0.590807
      3          6           0        2.959713   -0.860597   -0.025584
      4          6           0        4.177087   -0.183626    0.029190
      5          6           0        4.325971    1.045062    0.670633
      6          6           0        3.202864    1.612171    1.280193
      7          1           0        1.100186    1.405139    1.718602
      8          1           0        0.891811   -0.785615    0.559892
      9          1           0        2.896945   -1.813498   -0.536913
     10          1           0        5.294321    1.530364    0.684740
     11          1           0        3.297007    2.569154    1.785530
     12          7           0        5.358975   -0.793897   -0.619741
     13          8           0        6.420365   -0.177295   -0.557376
     14          8           0        5.201569   -1.877274   -1.178449
     15          6           0       -5.861427   -1.490053    0.463987
     16          6           0       -6.038325   -0.542808   -0.549894
     17          6           0       -5.004047    0.333885   -0.890813
     18          6           0       -3.800631    0.235128   -0.194160
     19          6           0       -3.593724   -0.697851    0.820744
     20          6           0       -4.641841   -1.564421    1.144869
     21          1           0       -6.670253   -2.167158    0.722299
     22          1           0       -6.984390   -0.482773   -1.080366
     23          1           0       -5.113945    1.076727   -1.671534
     24          1           0       -2.639250   -0.733662    1.331738
     25          1           0       -4.501624   -2.299066    1.932702
     26          7           0       -2.698362    1.157885   -0.546186
     27          8           0       -1.647766    1.050588    0.082600
     28          8           0       -2.905871    1.970967   -1.444226
 ---------------------------------------------------------------------

 SCF Done:  E(RHF) =  -868.339620364     A.U. after   16 cycles
 E2 =    -0.2598814267D+01 EUMP2 =    -0.87093843463095D+03

 The electronic state is 1-A.
 Alpha  occ. eigenvalues --  -20.61845 -20.61762 -20.60078 -20.60073 -15.86846
 Alpha  occ. eigenvalues --  -15.85126 -11.31996 -11.30286 -11.28588 -11.28494
 Alpha  occ. eigenvalues --  -11.28204 -11.27507 -11.27461 -11.26862 -11.26834
 Alpha  occ. eigenvalues --  -11.26396 -11.25786 -11.25705  -1.60859  -1.59159
 Alpha  occ. eigenvalues --   -1.40427  -1.38718  -1.20139  -1.18426  -1.09565
 Alpha  occ. eigenvalues --   -1.07821  -1.05512  -1.03812  -0.96442  -0.94699
 Alpha  occ. eigenvalues --   -0.86919  -0.85196  -0.83290  -0.81557  -0.78372
 Alpha  occ. eigenvalues --   -0.76661  -0.73089  -0.72163  -0.71348  -0.71243
 Alpha  occ. eigenvalues --   -0.70480  -0.69448  -0.65798  -0.65507  -0.64063
 Alpha  occ. eigenvalues --   -0.63788  -0.62871  -0.61177  -0.56001  -0.54199
 Alpha  occ. eigenvalues --   -0.53845  -0.53600  -0.52134  -0.51896  -0.49839
 Alpha  occ. eigenvalues --   -0.49780  -0.48116  -0.48086  -0.45872  -0.44171
 Alpha  occ. eigenvalues --   -0.38091  -0.37105  -0.36323  -0.35425
 Alpha virt. eigenvalues --    0.04144   0.05884   0.10550   0.12247   0.15688
 Alpha virt. eigenvalues --    0.17454   0.20337   0.22281   0.26031   0.27067
 Alpha virt. eigenvalues --    0.28559   0.29237   0.30580   0.31336   0.32512

 Mulliken charges:
               1
     1  C   -0.166130
     2  C   -0.215218
     3  C   -0.173056
     4  C    0.157470
     5  C   -0.171935
     6  C   -0.220008
     7  H    0.235159
     8  H    0.224390
     9  H    0.271381
    10  H    0.272488
    11  H    0.221039
    12  N    0.488341
    13  O   -0.462869
    14  O   -0.463390
    15  C   -0.169892
    16  C   -0.218138
    17  C   -0.170129
    18  C    0.158659
    19  C   -0.171092
    20  C   -0.217980
    21  H    0.228523
    22  H    0.226379
    23  H    0.277523
    24  H    0.268978
    25  H    0.225217
    26  N    0.492604
    27  O   -0.475138
    28  O   -0.453173
 Sum of Mulliken charges =  -0.00000

 Dipole moment (field-independent basis, Debye):
    X=             -8.6694    Y=             -1.0098    Z=              3.4888  Tot=              9.3995
 Quadrupole moment (field-independent basis, Debye-Ang):
   XX=           -107.5864   YY=           -104.0177   ZZ=           -103.4132
   XY=             22.8876   XZ=              8.9956   YZ=             -0.0369

 Normal termination of Gaussian 16 at Fri May  7 04:49:08 2021.
