 Gaussian 16, Revision A.03,
 Gaussian 16:  EM64L-G16RevA.03 25-Dec-2016

 -------------
 #p 6-31g* mp2
 -------------

 ------------------------------------------------------
 Input file generated by CHIRIPA (05-May-2021 14:51:08)
 ------------------------------------------------------
 Symbolic Z-matrix:
 Charge =  0 Multiplicity = 1

                         Standard orientation:
 ---------------------------------------------------------------------
 Center     Atomic      Atomic             Coordinates (Angstroms)
 Number     Number       Type             X           Y           Z
 ---------------------------------------------------------------------
      1          6           0       -3.758505   -0.579753   -0.240154
      2          6           0       -5.252236   -0.253029   -0.242350
      3          6           0       -5.986349   -0.850800   -1.442992
      4          1           0       -3.306964   -0.207945   -1.170108
      5          1           0       -3.628937   -1.670895   -0.244239
      6          1           0       -5.378949    0.837168   -0.236864
      7          1           0       -5.700236   -0.625489    0.687803
      8          1           0       -5.889554   -1.941297   -1.449831
      9          1           0       -5.566441   -0.470330   -2.379753
     10          1           0       -7.052693   -0.604966   -1.424642
     11          6           0       -3.010923    0.010938    0.953970
     12          6           0       -1.517192   -0.315786    0.956166
     13          6           0       -0.783078    0.281985    2.156808
     14          1           0       -3.140490    1.102080    0.958055
     15          1           0       -3.462464   -0.360870    1.883924
     16          1           0       -1.069191    0.056674    0.026013
     17          1           0       -1.390478   -1.405983    0.950681
     18          1           0       -1.202987   -0.098485    3.093569
     19          1           0       -0.879874    1.372482    2.163648
     20          1           0        0.283266    0.036151    2.138459
     21          6           0        3.874737   -0.136804    0.050387
     22          6           0        4.501045   -1.280262   -0.748506
     23          6           0        5.479097   -2.113857    0.079945
     24          1           0        4.672727    0.510577    0.439042
     25          1           0        3.354924   -0.551623    0.925096
     26          1           0        5.018349   -0.863524   -1.622199
     27          1           0        3.701462   -1.924890   -1.135465
     28          1           0        4.972413   -2.556704    0.943518
     29          1           0        6.296782   -1.489309    0.454017
     30          1           0        5.915076   -2.925636   -0.510644
     31          6           0        2.894691    0.705620   -0.764203
     32          6           0        2.268383    1.849077    0.034689
     33          6           0        1.290331    2.682671   -0.793761
     34          1           0        3.414503    1.120439   -1.638912
     35          1           0        2.096701    0.058238   -1.152859
     36          1           0        3.067966    2.493705    0.421648
     37          1           0        1.751079    1.432339    0.908383
     38          1           0        0.472645    2.058124   -1.167833
     39          1           0        1.797015    3.125520   -1.657334
     40          1           0        0.854351    3.494452   -0.203173
 ---------------------------------------------------------------------

 SCF Done:  E(RHF) =  -470.732974867     A.U. after   11 cycles
 E2 =    -0.1583493582D+01 EUMP2 =    -0.47231646844904D+03

 The electronic state is 1-A.
 Alpha  occ. eigenvalues --  -11.21674 -11.21624 -11.21594 -11.21507 -11.21445
 Alpha  occ. eigenvalues --  -11.21394 -11.21384 -11.21329 -11.21135 -11.21087
 Alpha  occ. eigenvalues --  -11.21071 -11.21065  -1.08480  -1.08404  -1.03604
 Alpha  occ. eigenvalues --   -1.03483  -0.96040  -0.95955  -0.87059  -0.86973
 Alpha  occ. eigenvalues --   -0.79683  -0.79534  -0.78291  -0.78216  -0.65204
 Alpha  occ. eigenvalues --   -0.64975  -0.61201  -0.60736  -0.59417  -0.59286
 Alpha  occ. eigenvalues --   -0.57634  -0.57574  -0.55404  -0.55146  -0.52771
 Alpha  occ. eigenvalues --   -0.52645  -0.52465  -0.52378  -0.50027  -0.49857
 Alpha  occ. eigenvalues --   -0.47987  -0.47877  -0.46782  -0.46483  -0.45862
 Alpha  occ. eigenvalues --   -0.45774  -0.45735  -0.45606  -0.43801  -0.43751
 Alpha virt. eigenvalues --    0.19767   0.22982   0.23698   0.24861   0.25889
 Alpha virt. eigenvalues --    0.26010   0.26808   0.27812   0.28044   0.29289
 Alpha virt. eigenvalues --    0.30478   0.31268   0.31670   0.32028   0.32452

 Mulliken charges:
               1
     1  C   -0.298344
     2  C   -0.299717
     3  C   -0.475754
     4  H    0.149568
     5  H    0.149520
     6  H    0.152134
     7  H    0.151988
     8  H    0.155171
     9  H    0.155289
    10  H    0.160365
    11  C   -0.298421
    12  C   -0.303352
    13  C   -0.478678
    14  H    0.150122
    15  H    0.149907
    16  H    0.154719
    17  H    0.151927
    18  H    0.155857
    19  H    0.156485
    20  H    0.161877
    21  C   -0.298647
    22  C   -0.299660
    23  C   -0.475712
    24  H    0.149845
    25  H    0.148877
    26  H    0.152006
    27  H    0.152078
    28  H    0.155141
    29  H    0.155180
    30  H    0.160239
    31  C   -0.298665
    32  C   -0.307072
    33  C   -0.477303
    34  H    0.149359
    35  H    0.149799
    36  H    0.151533
    37  H    0.161485
    38  H    0.155928
    39  H    0.155137
    40  H    0.159788
 Sum of Mulliken charges =  -0.00000

 Dipole moment (field-independent basis, Debye):
    X=             -0.0289    Y=             -0.0017    Z=              0.0216  Tot=              0.0361
 Quadrupole moment (field-independent basis, Debye-Ang):
   XX=            -85.1401   YY=            -84.3331   ZZ=            -85.2844
   XY=              0.8795   XZ=             -1.2013   YZ=             -0.5755

 Normal termination of Gaussian 16 at Thu May  6 00:30:33 2021.
