 Gaussian 16, Revision A.03,
 Gaussian 16:  EM64L-G16RevA.03 25-Dec-2016

 -------------
 #p 6-31g* mp2
 -------------

 ------------------------------------------------------
 Input file generated by CHIRIPA (05-May-2021 14:55:19)
 ------------------------------------------------------
 Symbolic Z-matrix:
 Charge =  0 Multiplicity = 1

                         Standard orientation:
 ---------------------------------------------------------------------
 Center     Atomic      Atomic             Coordinates (Angstroms)
 Number     Number       Type             X           Y           Z
 ---------------------------------------------------------------------
      1          6           0        1.628918    1.683218    0.184970
      2          6           0        1.502524    0.625448   -0.721488
      3          6           0        2.497875   -0.351783   -0.815538
      4          6           0        3.611286   -0.239766    0.015760
      5          6           0        3.766112    0.802121    0.928880
      6          6           0        2.758317    1.768030    1.005814
      7          1           0        0.850872    2.437957    0.251382
      8          1           0        0.626512    0.557037   -1.360212
      9          1           0        2.425522   -1.181258   -1.508469
     10          1           0        4.650899    0.843499    1.552464
     11          1           0        2.859149    2.588399    1.710706
     12          7           0        4.671607   -1.268323   -0.074746
     13          8           0        5.642785   -1.146996    0.668711
     14          8           0        4.511430   -2.176358   -0.887430
     15          6           0       -3.943307    0.657654    0.192400
     16          6           0       -3.146461    1.298154   -0.944605
     17          6           0       -2.239930    2.432316   -0.465365
     18          1           0       -4.549190    1.429179    0.686970
     19          1           0       -3.245254    0.275172    0.949911
     20          1           0       -3.845768    1.678084   -1.700409
     21          1           0       -2.542551    0.524977   -1.436647
     22          1           0       -1.519758    2.064238    0.272518
     23          1           0       -2.830380    3.223897    0.007259
     24          1           0       -1.679628    2.875952   -1.294285
     25          6           0       -4.854217   -0.477819   -0.270931
     26          6           0       -5.651064   -1.118320    0.866073
     27          6           0       -6.557594   -2.252482    0.386833
     28          1           0       -5.552270   -0.095337   -1.028443
     29          1           0       -4.248334   -1.249345   -0.765501
     30          1           0       -6.254973   -0.345143    1.358116
     31          1           0       -4.951757   -1.498250    1.621877
     32          1           0       -5.967144   -3.044062   -0.085790
     33          1           0       -7.277766   -1.884403   -0.351050
     34          1           0       -7.117896   -2.696118    1.215753
 ---------------------------------------------------------------------

 SCF Done:  E(RHF) =  -669.535505472     A.U. after   15 cycles
 E2 =    -0.2091376319D+01 EUMP2 =    -0.67162688179058D+03

 The electronic state is 1-A.
 Alpha  occ. eigenvalues --  -20.60733 -20.60727 -15.85786 -11.31142 -11.27710
 Alpha  occ. eigenvalues --  -11.27706 -11.27383 -11.26710 -11.26698 -11.22660
 Alpha  occ. eigenvalues --  -11.22397 -11.22171 -11.22080 -11.21974 -11.21447
 Alpha  occ. eigenvalues --   -1.59809  -1.39362  -1.19309  -1.09182  -1.08699
 Alpha  occ. eigenvalues --   -1.04713  -1.04322  -0.96791  -0.95536  -0.87815
 Alpha  occ. eigenvalues --   -0.86103  -0.82375  -0.80405  -0.78935  -0.77427
 Alpha  occ. eigenvalues --   -0.72003  -0.71132  -0.70425  -0.65825  -0.64956
 Alpha  occ. eigenvalues --   -0.64714  -0.62092  -0.61679  -0.60188  -0.58368
 Alpha  occ. eigenvalues --   -0.56153  -0.55160  -0.53478  -0.53206  -0.53024
 Alpha  occ. eigenvalues --   -0.52794  -0.50705  -0.48764  -0.48760  -0.48702
 Alpha  occ. eigenvalues --   -0.47417  -0.46490  -0.46376  -0.44770  -0.44551
 Alpha  occ. eigenvalues --   -0.37275  -0.36321
 Alpha virt. eigenvalues --    0.05090   0.11299   0.16543   0.19462   0.22518
 Alpha virt. eigenvalues --    0.23731   0.25626   0.25872   0.26612   0.27815
 Alpha virt. eigenvalues --    0.29276   0.29759   0.30755   0.31139   0.31981

 Mulliken charges:
               1
     1  C   -0.175440
     2  C   -0.222213
     3  C   -0.171235
     4  C    0.158452
     5  C   -0.170948
     6  C   -0.219095
     7  H    0.232342
     8  H    0.226165
     9  H    0.275315
    10  H    0.275352
    11  H    0.223439
    12  N    0.488073
    13  O   -0.460550
    14  O   -0.460651
    15  C   -0.299412
    16  C   -0.299767
    17  C   -0.485231
    18  H    0.151593
    19  H    0.150952
    20  H    0.156734
    21  H    0.148790
    22  H    0.151986
    23  H    0.161857
    24  H    0.158485
    25  C   -0.298962
    26  C   -0.300328
    27  C   -0.476179
    28  H    0.150769
    29  H    0.150288
    30  H    0.152557
    31  H    0.153029
    32  H    0.156162
    33  H    0.155712
    34  H    0.161962
 Sum of Mulliken charges =  -0.00000

 Dipole moment (field-independent basis, Debye):
    X=             -3.9867    Y=              3.6188    Z=              0.3417  Tot=              5.3950
 Quadrupole moment (field-independent basis, Debye-Ang):
   XX=           -119.9676   YY=            -96.1039   ZZ=            -92.6629
   XY=             14.3745   XZ=              3.2137   YZ=              1.7171

 Normal termination of Gaussian 16 at Wed May  5 15:48:46 2021.
