 Gaussian 16, Revision A.03,
 Gaussian 16:  EM64L-G16RevA.03 25-Dec-2016

 -------------
 #p 6-31g* mp2
 -------------

 ------------------------------------------------------
 Input file generated by CHIRIPA (05-May-2021 14:55:23)
 ------------------------------------------------------
 Symbolic Z-matrix:
 Charge =  0 Multiplicity = 1

                         Standard orientation:
 ---------------------------------------------------------------------
 Center     Atomic      Atomic             Coordinates (Angstroms)
 Number     Number       Type             X           Y           Z
 ---------------------------------------------------------------------
      1          6           0        4.109236   -2.389315    0.127174
      2          6           0        2.812671   -2.297735   -0.389598
      3          6           0        2.180790   -1.056071   -0.505984
      4          6           0        2.877901    0.078704   -0.094147
      5          6           0        4.170432    0.020054    0.424711
      6          6           0        4.782791   -1.232168    0.531965
      7          1           0        4.592514   -3.357970    0.214038
      8          1           0        2.287172   -3.194715   -0.704754
      9          1           0        1.177678   -0.956414   -0.902535
     10          1           0        4.668906    0.931865    0.730558
     11          1           0        5.789788   -1.300276    0.933665
     12          7           0        2.219290    1.398787   -0.212526
     13          8           0        2.854865    2.383618    0.157324
     14          8           0        1.079967    1.423640   -0.672920
     15          6           0       -4.236333   -0.342103   -0.281376
     16          6           0       -4.817027   -1.428082    0.624950
     17          6           0       -5.642091   -2.460701   -0.143660
     18          1           0       -5.056477    0.162096   -0.810613
     19          1           0       -3.610228   -0.813285   -1.051684
     20          1           0       -5.440739   -0.954885    1.394160
     21          1           0       -3.995419   -1.929628    1.152236
     22          1           0       -5.027320   -2.959393   -0.899944
     23          1           0       -6.480852   -1.979111   -0.656645
     24          1           0       -6.047676   -3.227675    0.523505
     25          6           0       -3.408974    0.697588    0.472446
     26          6           0       -2.828280    1.783567   -0.433881
     27          6           0       -2.003216    2.816185    0.334730
     28          1           0       -4.035080    1.168769    1.242754
     29          1           0       -2.588830    0.193388    1.001683
     30          1           0       -3.649888    2.285112   -0.961166
     31          1           0       -2.204568    1.310370   -1.203090
     32          1           0       -1.164455    2.334596    0.847715
     33          1           0       -2.617987    3.314877    1.091014
     34          1           0       -1.597631    3.583160   -0.332436
 ---------------------------------------------------------------------

 SCF Done:  E(RHF) =  -669.535804908     A.U. after   15 cycles
 E2 =    -0.2091301990D+01 EUMP2 =    -0.67162710689731D+03

 The electronic state is 1-A.
 Alpha  occ. eigenvalues --  -20.60954 -20.60948 -15.85986 -11.31314 -11.27882
 Alpha  occ. eigenvalues --  -11.27872 -11.27613 -11.26886 -11.26876 -11.21301
 Alpha  occ. eigenvalues --  -11.20906 -11.20881 -11.20631 -11.20435 -11.19467
 Alpha  occ. eigenvalues --   -1.60016  -1.39572  -1.19483  -1.08885  -1.07774
 Alpha  occ. eigenvalues --   -1.04880  -1.02742  -0.95731  -0.95178  -0.86283
 Alpha  occ. eigenvalues --   -0.86202  -0.82559  -0.78879  -0.77614  -0.77518
 Alpha  occ. eigenvalues --   -0.72212  -0.71335  -0.70591  -0.65142  -0.64883
 Alpha  occ. eigenvalues --   -0.64410  -0.62228  -0.60122  -0.58649  -0.56774
 Alpha  occ. eigenvalues --   -0.55384  -0.54472  -0.53210  -0.52971  -0.51852
 Alpha  occ. eigenvalues --   -0.51621  -0.49296  -0.48963  -0.48808  -0.47171
 Alpha  occ. eigenvalues --   -0.45954  -0.45142  -0.45007  -0.44776  -0.43013
 Alpha  occ. eigenvalues --   -0.37460  -0.36482
 Alpha virt. eigenvalues --    0.04894   0.11173   0.16375   0.21206   0.23347
 Alpha virt. eigenvalues --    0.25012   0.26886   0.27385   0.28022   0.28462
 Alpha virt. eigenvalues --    0.28882   0.30834   0.31906   0.32307   0.32852

 Mulliken charges:
               1
     1  C   -0.170606
     2  C   -0.218471
     3  C   -0.170919
     4  C    0.158032
     5  C   -0.170718
     6  C   -0.218523
     7  H    0.226104
     8  H    0.223887
     9  H    0.275166
    10  H    0.275976
    11  H    0.223926
    12  N    0.489759
    13  O   -0.458619
    14  O   -0.461024
    15  C   -0.297022
    16  C   -0.298697
    17  C   -0.474992
    18  H    0.149359
    19  H    0.145853
    20  H    0.152127
    21  H    0.148881
    22  H    0.152746
    23  H    0.155578
    24  H    0.158529
    25  C   -0.297584
    26  C   -0.300214
    27  C   -0.469835
    28  H    0.147468
    29  H    0.146849
    30  H    0.146075
    31  H    0.157263
    32  H    0.165372
    33  H    0.143405
    34  H    0.164867
 Sum of Mulliken charges =  -0.00000

 Dipole moment (field-independent basis, Debye):
    X=              2.6341    Y=             -4.5785    Z=              0.3771  Tot=              5.2956
 Quadrupole moment (field-independent basis, Debye-Ang):
   XX=            -78.8067   YY=            -95.4606   ZZ=            -95.1718
   XY=            -12.3710   XZ=              2.6085   YZ=              1.0657

 Normal termination of Gaussian 16 at Wed May  5 16:02:15 2021.
