 Gaussian 16, Revision A.03,
 Gaussian 16:  EM64L-G16RevA.03 25-Dec-2016

 -------------
 #p 6-31g* mp2
 -------------

 ------------------------------------------------------
 Input file generated by CHIRIPA (05-May-2021 14:55:19)
 ------------------------------------------------------
 Symbolic Z-matrix:
 Charge =  0 Multiplicity = 1

                         Standard orientation:
 ---------------------------------------------------------------------
 Center     Atomic      Atomic             Coordinates (Angstroms)
 Number     Number       Type             X           Y           Z
 ---------------------------------------------------------------------
      1          6           0       -3.432769   -2.171503    0.198636
      2          6           0       -3.219511   -1.420994    1.359574
      3          6           0       -2.870807   -0.069626    1.277360
      4          6           0       -2.743357    0.501744    0.012218
      5          6           0       -2.949276   -0.219552   -1.162780
      6          6           0       -3.297210   -1.569448   -1.056623
      7          1           0       -3.703351   -3.220707    0.271802
      8          1           0       -3.324084   -1.885924    2.335766
      9          1           0       -2.699926    0.534737    2.159948
     10          1           0       -2.837615    0.271662   -2.121768
     11          1           0       -3.462222   -2.149857   -1.959917
     12          7           0       -2.374607    1.931597   -0.087492
     13          8           0       -2.268585    2.411548   -1.214011
     14          8           0       -2.198586    2.545292    0.962761
     15          6           0        3.014132   -0.708039   -0.379616
     16          6           0        1.662973   -0.489835    0.302104
     17          6           0        0.522246   -1.231326   -0.395555
     18          1           0        2.947091   -0.379556   -1.425823
     19          1           0        3.235429   -1.784076   -0.403422
     20          1           0        1.444932    0.585577    0.325853
     21          1           0        1.733294   -0.818698    1.346861
     22          1           0        0.713305   -2.309277   -0.406556
     23          1           0        0.423305   -0.897022   -1.433366
     24          1           0       -0.434404   -1.061462    0.108257
     25          6           0        4.164444    0.026858    0.306267
     26          6           0        5.515603   -0.191346   -0.375452
     27          6           0        6.656330    0.550144    0.322207
     28          1           0        3.943146    1.102896    0.330073
     29          1           0        4.231484   -0.301625    1.352474
     30          1           0        5.445282    0.137517   -1.420211
     31          1           0        5.733644   -1.266758   -0.399201
     32          1           0        6.755271    0.215841    1.360018
     33          1           0        6.465271    1.628095    0.333208
     34          1           0        7.612980    0.380281   -0.181606
 ---------------------------------------------------------------------

 SCF Done:  E(RHF) =  -669.534032605     A.U. after   15 cycles
 E2 =    -0.2094006804D+01 EUMP2 =    -0.67162803940968D+03

 The electronic state is 1-A.
 Alpha  occ. eigenvalues --  -20.60801 -20.60796 -15.85856 -11.31198 -11.27815
 Alpha  occ. eigenvalues --  -11.27785 -11.27582 -11.26858 -11.26825 -11.21429
 Alpha  occ. eigenvalues --  -11.21393 -11.21214 -11.21146 -11.20898 -11.20832
 Alpha  occ. eigenvalues --   -1.59878  -1.39430  -1.19448  -1.08816  -1.08241
 Alpha  occ. eigenvalues --   -1.04835  -1.03354  -0.95826  -0.95632  -0.86835
 Alpha  occ. eigenvalues --   -0.86222  -0.82475  -0.79424  -0.78055  -0.77520
 Alpha  occ. eigenvalues --   -0.72076  -0.71212  -0.70530  -0.65074  -0.64871
 Alpha  occ. eigenvalues --   -0.64828  -0.62174  -0.60755  -0.59318  -0.57508
 Alpha  occ. eigenvalues --   -0.55330  -0.55114  -0.53832  -0.52915  -0.52282
 Alpha  occ. eigenvalues --   -0.51611  -0.49753  -0.48835  -0.48829  -0.47714
 Alpha  occ. eigenvalues --   -0.46453  -0.45601  -0.45518  -0.44834  -0.43533
 Alpha  occ. eigenvalues --   -0.37400  -0.36436
 Alpha virt. eigenvalues --    0.05005   0.11195   0.16483   0.21358   0.23040
 Alpha virt. eigenvalues --    0.24474   0.26799   0.27233   0.27707   0.28098
 Alpha virt. eigenvalues --    0.28343   0.30938   0.31510   0.32023   0.32325

 Mulliken charges:
               1
     1  C   -0.170699
     2  C   -0.216354
     3  C   -0.176590
     4  C    0.159627
     5  C   -0.169432
     6  C   -0.215160
     7  H    0.226250
     8  H    0.224141
     9  H    0.276117
    10  H    0.275584
    11  H    0.224089
    12  N    0.488389
    13  O   -0.460690
    14  O   -0.460640
    15  C   -0.298063
    16  C   -0.300381
    17  C   -0.482781
    18  H    0.150417
    19  H    0.146942
    20  H    0.157374
    21  H    0.149047
    22  H    0.149530
    23  H    0.152579
    24  H    0.170003
    25  C   -0.298638
    26  C   -0.299532
    27  C   -0.475714
    28  H    0.152782
    29  H    0.148481
    30  H    0.152314
    31  H    0.150381
    32  H    0.154538
    33  H    0.156529
    34  H    0.159563
 Sum of Mulliken charges =  -0.00000

 Dipole moment (field-independent basis, Debye):
    X=             -1.4333    Y=             -4.9991    Z=              0.3473  Tot=              5.2121
 Quadrupole moment (field-independent basis, Debye-Ang):
   XX=            -89.2900   YY=           -100.1024   ZZ=            -89.5567
   XY=             13.2081   XZ=             -1.0490   YZ=             -0.2336

 Normal termination of Gaussian 16 at Thu May  6 12:23:30 2021.
