 Gaussian 16, Revision A.03,
 Gaussian 16:  EM64L-G16RevA.03 25-Dec-2016

 -------------
 #p 6-31g* mp2
 -------------

 ------------------------------------------------------
 Input file generated by CHIRIPA (05-May-2021 14:51:11)
 ------------------------------------------------------
 Symbolic Z-matrix:
 Charge =  0 Multiplicity = 1

                         Standard orientation:
 ---------------------------------------------------------------------
 Center     Atomic      Atomic             Coordinates (Angstroms)
 Number     Number       Type             X           Y           Z
 ---------------------------------------------------------------------
      1          6           0       -3.528092   -0.217770    0.186009
      2          6           0       -2.822249   -1.460455    0.729612
      3          6           0       -1.352821   -1.205709    1.066776
      4          1           0       -3.000029    0.133044   -0.711223
      5          1           0       -3.455743    0.590175    0.927214
      6          1           0       -2.897106   -2.266242   -0.011820
      7          1           0       -3.352166   -1.808463    1.625544
      8          1           0       -1.261866   -0.419911    1.823644
      9          1           0       -0.804221   -0.880291    0.176978
     10          1           0       -0.867574   -2.107208    1.453681
     11          6           0       -4.997766   -0.456594   -0.155676
     12          6           0       -5.703608    0.786092   -0.699279
     13          6           0       -7.173036    0.531346   -1.036444
     14          1           0       -5.070115   -1.264539   -0.896882
     15          1           0       -5.525828   -0.807407    0.741556
     16          1           0       -5.173691    1.134100   -1.595211
     17          1           0       -5.628751    1.591879    0.042152
     18          1           0       -7.721637    0.205928   -0.146645
     19          1           0       -7.263991   -0.254452   -1.793312
     20          1           0       -7.658284    1.432844   -1.423348
     21          6           0        3.506562    0.259208    0.057370
     22          6           0        2.841184    1.436886    0.770344
     23          6           0        1.327985    1.266235    0.907827
     24          1           0        3.057569    0.140445   -0.938243
     25          1           0        3.289630   -0.665197    0.610373
     26          1           0        3.060462    2.358982    0.216927
     27          1           0        3.291947    1.552978    1.764302
     28          1           0        1.092552    0.362257    1.478787
     29          1           0        0.859752    1.172840   -0.077381
     30          1           0        0.872682    2.119399    1.420340
     31          6           0        5.019295    0.415156   -0.087703
     32          6           0        5.684673   -0.762523   -0.800676
     33          6           0        7.197872   -0.591872   -0.938160
     34          1           0        5.236227    1.339560   -0.640704
     35          1           0        5.468289    0.533918    0.907911
     36          1           0        5.233911   -0.878615   -1.794634
     37          1           0        5.465396   -1.684619   -0.247258
     38          1           0        7.666107   -0.498477    0.047049
     39          1           0        7.433306    0.312107   -1.509119
     40          1           0        7.653176   -1.445036   -1.450672
 ---------------------------------------------------------------------

 SCF Done:  E(RHF) =  -470.732250948     A.U. after   11 cycles
 E2 =    -0.1582847926D+01 EUMP2 =    -0.47231509887411D+03

 The electronic state is 1-A.
 Alpha  occ. eigenvalues --  -11.21577 -11.21575 -11.21520 -11.21513 -11.21364
 Alpha  occ. eigenvalues --  -11.21362 -11.21303 -11.21300 -11.21053 -11.21051
 Alpha  occ. eigenvalues --  -11.20932 -11.20910  -1.08394  -1.08371  -1.03521
 Alpha  occ. eigenvalues --   -1.03433  -0.96025  -0.95835  -0.87107  -0.86795
 Alpha  occ. eigenvalues --   -0.79713  -0.79386  -0.78239  -0.78144  -0.65029
 Alpha  occ. eigenvalues --   -0.65000  -0.60933  -0.60821  -0.59312  -0.59282
 Alpha  occ. eigenvalues --   -0.57743  -0.57375  -0.55326  -0.55112  -0.52838
 Alpha  occ. eigenvalues --   -0.52635  -0.52548  -0.51959  -0.49993  -0.49734
 Alpha  occ. eigenvalues --   -0.48153  -0.47519  -0.46653  -0.46482  -0.45847
 Alpha  occ. eigenvalues --   -0.45693  -0.45636  -0.45538  -0.43742  -0.43722
 Alpha virt. eigenvalues --    0.22526   0.22991   0.23677   0.24728   0.26190
 Alpha virt. eigenvalues --    0.26520   0.26897   0.27580   0.27752   0.29356
 Alpha virt. eigenvalues --    0.29860   0.31507   0.31612   0.32112   0.32294

 Mulliken charges:
               1
     1  C   -0.297891
     2  C   -0.300687
     3  C   -0.477512
     4  H    0.149201
     5  H    0.149622
     6  H    0.151284
     7  H    0.151253
     8  H    0.156849
     9  H    0.159318
    10  H    0.158365
    11  C   -0.298206
    12  C   -0.299571
    13  C   -0.475672
    14  H    0.149374
    15  H    0.149558
    16  H    0.151818
    17  H    0.151902
    18  H    0.155138
    19  H    0.155116
    20  H    0.160143
    21  C   -0.298151
    22  C   -0.300245
    23  C   -0.477765
    24  H    0.148967
    25  H    0.149659
    26  H    0.151104
    27  H    0.151352
    28  H    0.163152
    29  H    0.154237
    30  H    0.158597
    31  C   -0.298144
    32  C   -0.299591
    33  C   -0.475674
    34  H    0.149422
    35  H    0.149581
    36  H    0.151785
    37  H    0.151893
    38  H    0.155150
    39  H    0.155129
    40  H    0.160141
 Sum of Mulliken charges =  -0.00000

 Dipole moment (field-independent basis, Debye):
    X=             -0.0008    Y=             -0.0026    Z=              0.0161  Tot=              0.0163
 Quadrupole moment (field-independent basis, Debye-Ang):
   XX=            -87.3736   YY=            -84.6310   ZZ=            -83.1459
   XY=             -0.2426   XZ=             -0.2368   YZ=             -0.1752

 Normal termination of Gaussian 16 at Wed May  5 18:14:35 2021.
