 Gaussian 16, Revision A.03,
 Gaussian 16:  EM64L-G16RevA.03 25-Dec-2016

 -------------
 #p 6-31g* mp2
 -------------

 ------------------------------------------------------
 Input file generated by CHIRIPA (05-May-2021 14:51:08)
 ------------------------------------------------------
 Symbolic Z-matrix:
 Charge =  0 Multiplicity = 1

                         Standard orientation:
 ---------------------------------------------------------------------
 Center     Atomic      Atomic             Coordinates (Angstroms)
 Number     Number       Type             X           Y           Z
 ---------------------------------------------------------------------
      1          6           0        2.700936   -1.024770   -0.060541
      2          6           0        1.689663   -1.562085    0.952674
      3          6           0        1.136683   -2.933943    0.565358
      4          1           0        2.223776   -0.963825   -1.048241
      5          1           0        3.528727   -1.740911   -0.156970
      6          1           0        0.864709   -0.844489    1.048191
      7          1           0        2.169228   -1.621577    1.938114
      8          1           0        1.945522   -3.667816    0.489137
      9          1           0        0.633591   -2.886313   -0.405843
     10          1           0        0.415685   -3.299127    1.303370
     11          6           0        3.262728    0.345895    0.312814
     12          6           0        4.274001    0.883210   -0.700401
     13          6           0        4.826981    2.255068   -0.313085
     14          1           0        2.434937    1.062036    0.409243
     15          1           0        3.739888    0.284950    1.300513
     16          1           0        3.794436    0.942703   -1.685842
     17          1           0        5.098955    0.165615   -0.795918
     18          1           0        5.330073    2.207439    0.658116
     19          1           0        4.018142    2.988942   -0.236864
     20          1           0        5.547979    2.620253   -1.051098
     21          6           0       -3.166581    0.930864    0.320534
     22          6           0       -2.890552    2.288637   -0.326185
     23          6           0       -3.265320    3.462007    0.579656
     24          1           0       -4.231206    0.867035    0.584057
     25          1           0       -2.606484    0.860943    1.263293
     26          1           0       -3.449918    2.355427   -1.268132
     27          1           0       -1.826499    2.349168   -0.588374
     28          1           0       -2.697658    3.423226    1.514993
     29          1           0       -4.330301    3.429521    0.831372
     30          1           0       -3.059793    4.422891    0.097658
     31          6           0       -2.797083   -0.251989   -0.572806
     32          6           0       -3.073112   -1.609763    0.073912
     33          6           0       -2.698343   -2.783133   -0.831928
     34          1           0       -3.357181   -0.182070   -1.515566
     35          1           0       -1.732458   -0.188160   -0.836330
     36          1           0       -4.137166   -1.670293    0.336102
     37          1           0       -2.513746   -1.676553    1.015859
     38          1           0       -1.633362   -2.750647   -1.083645
     39          1           0       -3.266006   -2.744352   -1.767265
     40          1           0       -2.903870   -3.744016   -0.349930
 ---------------------------------------------------------------------

 SCF Done:  E(RHF) =  -470.733161506     A.U. after   11 cycles
 E2 =    -0.1583104154D+01 EUMP2 =    -0.47231626566090D+03

 The electronic state is 1-A.
 Alpha  occ. eigenvalues --  -11.21669 -11.21636 -11.21632 -11.21591 -11.21458
 Alpha  occ. eigenvalues --  -11.21428 -11.21398 -11.21369 -11.21106 -11.21098
 Alpha  occ. eigenvalues --  -11.21093 -11.21007  -1.08486  -1.08440  -1.03595
 Alpha  occ. eigenvalues --   -1.03515  -0.96054  -0.95953  -0.87080  -0.86960
 Alpha  occ. eigenvalues --   -0.79665  -0.79572  -0.78296  -0.78258  -0.65221
 Alpha  occ. eigenvalues --   -0.64985  -0.61179  -0.60747  -0.59401  -0.59333
 Alpha  occ. eigenvalues --   -0.57674  -0.57559  -0.55547  -0.55061  -0.52725
 Alpha  occ. eigenvalues --   -0.52656  -0.52504  -0.52358  -0.50195  -0.49692
 Alpha  occ. eigenvalues --   -0.48009  -0.47864  -0.46772  -0.46498  -0.45889
 Alpha  occ. eigenvalues --   -0.45775  -0.45743  -0.45679  -0.43831  -0.43790
 Alpha virt. eigenvalues --    0.19611   0.23298   0.23476   0.25388   0.25929
 Alpha virt. eigenvalues --    0.26115   0.26846   0.27808   0.28502   0.29065
 Alpha virt. eigenvalues --    0.29897   0.31196   0.31759   0.31965   0.32240

 Mulliken charges:
               1
     1  C   -0.298442
     2  C   -0.301176
     3  C   -0.479112
     4  H    0.149467
     5  H    0.149967
     6  H    0.151926
     7  H    0.152348
     8  H    0.155562
     9  H    0.158542
    10  H    0.161153
    11  C   -0.298222
    12  C   -0.299729
    13  C   -0.475742
    14  H    0.149107
    15  H    0.149836
    16  H    0.152049
    17  H    0.152078
    18  H    0.155238
    19  H    0.155205
    20  H    0.160424
    21  C   -0.298461
    22  C   -0.299491
    23  C   -0.475746
    24  H    0.149923
    25  H    0.149478
    26  H    0.152060
    27  H    0.151265
    28  H    0.155261
    29  H    0.155329
    30  H    0.160292
    31  C   -0.298987
    32  C   -0.300143
    33  C   -0.479451
    34  H    0.149683
    35  H    0.149188
    36  H    0.151893
    37  H    0.152685
    38  H    0.160155
    39  H    0.154394
    40  H    0.160195
 Sum of Mulliken charges =  -0.00000

 Dipole moment (field-independent basis, Debye):
    X=              0.0185    Y=             -0.0166    Z=              0.0058  Tot=              0.0255
 Quadrupole moment (field-independent basis, Debye-Ang):
   XX=            -83.5433   YY=            -86.4101   ZZ=            -84.6805
   XY=             -0.6692   XZ=              0.8067   YZ=             -0.9099

 Normal termination of Gaussian 16 at Wed May  5 15:05:24 2021.
