 Gaussian 16, Revision A.03,
 Gaussian 16:  EM64L-G16RevA.03 25-Dec-2016

 -------------
 #p 6-31g* mp2
 -------------

 ------------------------------------------------------
 Input file generated by CHIRIPA (05-May-2021 14:55:24)
 ------------------------------------------------------
 Symbolic Z-matrix:
 Charge =  0 Multiplicity = 1

                         Standard orientation:
 ---------------------------------------------------------------------
 Center     Atomic      Atomic             Coordinates (Angstroms)
 Number     Number       Type             X           Y           Z
 ---------------------------------------------------------------------
      1          6           0        0.622171   -0.780146    0.807582
      2          6           0        1.062798    0.513379    1.106184
      3          6           0        2.342546    0.932053    0.730014
      4          6           0        3.159066    0.027154    0.053446
      5          6           0        2.748853   -1.268120   -0.258455
      6          6           0        1.465119   -1.665206    0.127414
      7          1           0       -0.373517   -1.096997    1.103567
      8          1           0        0.410312    1.202864    1.634310
      9          1           0        2.709074    1.927718    0.948479
     10          1           0        3.422022   -1.932929   -0.785989
     11          1           0        1.125585   -2.670375   -0.105816
     12          7           0        4.515988    0.458959   -0.349923
     13          8           0        5.216146   -0.357258   -0.945076
     14          8           0        4.853692    1.605447   -0.063293
     15          6           0       -4.114554    0.677687   -0.417624
     16          6           0       -3.537686    1.985516    0.125325
     17          6           0       -4.262795    3.219650   -0.412193
     18          1           0       -4.060033    0.687871   -1.514834
     19          1           0       -5.180722    0.619681   -0.158172
     20          1           0       -2.472595    2.040397   -0.133877
     21          1           0       -3.593410    1.972138    1.221378
     22          1           0       -5.323180    3.191912   -0.141239
     23          1           0       -4.195995    3.260559   -1.504193
     24          1           0       -3.834233    4.143462   -0.011237
     25          6           0       -3.400143   -0.565015    0.110614
     26          6           0       -3.977011   -1.872844   -0.432335
     27          6           0       -3.251901   -3.106977    0.105183
     28          1           0       -2.333974   -0.507008   -0.148838
     29          1           0       -3.454663   -0.575198    1.207824
     30          1           0       -3.921287   -1.859466   -1.528387
     31          1           0       -5.042102   -1.927724   -0.173132
     32          1           0       -3.318701   -3.147886    1.197183
     33          1           0       -2.191518   -3.079240   -0.165771
     34          1           0       -3.680463   -4.030790   -0.295773
 ---------------------------------------------------------------------

 SCF Done:  E(RHF) =  -669.535646415     A.U. after   15 cycles
 E2 =    -0.2092000724D+01 EUMP2 =    -0.67162764713855D+03

 The electronic state is 1-A.
 Alpha  occ. eigenvalues --  -20.60741 -20.60735 -15.85794 -11.31156 -11.27726
 Alpha  occ. eigenvalues --  -11.27721 -11.27393 -11.26730 -11.26717 -11.22588
 Alpha  occ. eigenvalues --  -11.22476 -11.22437 -11.22231 -11.22214 -11.21709
 Alpha  occ. eigenvalues --   -1.59817  -1.39370  -1.19325  -1.09390  -1.08713
 Alpha  occ. eigenvalues --   -1.04727  -1.04443  -0.96900  -0.95552  -0.87913
 Alpha  occ. eigenvalues --   -0.86120  -0.82391  -0.80519  -0.79238  -0.77436
 Alpha  occ. eigenvalues --   -0.72011  -0.71140  -0.70427  -0.66005  -0.64972
 Alpha  occ. eigenvalues --   -0.64721  -0.62079  -0.61822  -0.60276  -0.58519
 Alpha  occ. eigenvalues --   -0.56204  -0.55225  -0.53560  -0.53330  -0.53053
 Alpha  occ. eigenvalues --   -0.52812  -0.50836  -0.48839  -0.48767  -0.48754
 Alpha  occ. eigenvalues --   -0.47540  -0.46731  -0.46650  -0.44777  -0.44701
 Alpha  occ. eigenvalues --   -0.37276  -0.36336
 Alpha virt. eigenvalues --    0.05059   0.11274   0.16439   0.19568   0.22385
 Alpha virt. eigenvalues --    0.23162   0.25406   0.25950   0.26220   0.27814
 Alpha virt. eigenvalues --    0.29389   0.29842   0.30811   0.30985   0.31616

 Mulliken charges:
               1
     1  C   -0.174679
     2  C   -0.221487
     3  C   -0.170829
     4  C    0.158493
     5  C   -0.170782
     6  C   -0.221349
     7  H    0.234133
     8  H    0.224837
     9  H    0.275455
    10  H    0.275455
    11  H    0.223676
    12  N    0.488056
    13  O   -0.460530
    14  O   -0.460523
    15  C   -0.297771
    16  C   -0.301970
    17  C   -0.476045
    18  H    0.153353
    19  H    0.152579
    20  H    0.150626
    21  H    0.150028
    22  H    0.156979
    23  H    0.157825
    24  H    0.161816
    25  C   -0.306584
    26  C   -0.299264
    27  C   -0.478165
    28  H    0.148488
    29  H    0.147090
    30  H    0.155885
    31  H    0.156131
    32  H    0.155671
    33  H    0.147070
    34  H    0.166332
 Sum of Mulliken charges =  -0.00000

 Dipole moment (field-independent basis, Debye):
    X=             -5.0190    Y=             -1.4967    Z=              1.3470  Tot=              5.4079
 Quadrupole moment (field-independent basis, Debye-Ang):
   XX=           -124.3204   YY=            -91.5656   ZZ=            -93.9455
   XY=             -5.3465   XZ=              3.5391   YZ=              2.3449

 Normal termination of Gaussian 16 at Thu May  6 03:10:23 2021.
