 Gaussian 16, Revision A.03,
 Gaussian 16:  EM64L-G16RevA.03 25-Dec-2016

 -------------
 #p 6-31g* mp2
 -------------

 ------------------------------------------------------
 Input file generated by CHIRIPA (05-May-2021 14:55:23)
 ------------------------------------------------------
 Symbolic Z-matrix:
 Charge =  0 Multiplicity = 1

                         Standard orientation:
 ---------------------------------------------------------------------
 Center     Atomic      Atomic             Coordinates (Angstroms)
 Number     Number       Type             X           Y           Z
 ---------------------------------------------------------------------
      1          6           0        2.264393    2.569414   -0.200668
      2          6           0        3.469268    2.215508    0.415407
      3          6           0        3.918137    0.891735    0.389127
      4          6           0        3.133501   -0.056760   -0.265085
      5          6           0        1.928602    0.264647   -0.888147
      6          6           0        1.499254    1.594573   -0.849334
      7          1           0        1.923283    3.600142   -0.175385
      8          1           0        4.065548    2.970477    0.919903
      9          1           0        4.846983    0.590225    0.857907
     10          1           0        1.355943   -0.510128   -1.383327
     11          1           0        0.563121    1.866535   -1.328641
     12          7           0        3.598366   -1.461436   -0.299540
     13          8           0        2.888744   -2.278332   -0.882425
     14          8           0        4.663546   -1.718927    0.256991
     15          6           0       -4.618138    0.066070    0.376730
     16          6           0       -5.497152   -0.290222   -0.822593
     17          6           0       -6.905194    0.296636   -0.718621
     18          1           0       -5.099935   -0.293779    1.296146
     19          1           0       -4.555075    1.159576    0.464273
     20          1           0       -5.557410   -1.382730   -0.908674
     21          1           0       -5.013113    0.070348   -1.739278
     22          1           0       -6.863661    1.388856   -0.655912
     23          1           0       -7.411050   -0.072479    0.179413
     24          1           0       -7.516497    0.029636   -1.586307
     25          6           0       -3.207490   -0.513423    0.287350
     26          6           0       -2.328476   -0.157131    1.486674
     27          6           0       -0.920434   -0.743989    1.382701
     28          1           0       -3.270552   -1.606929    0.199807
     29          1           0       -2.725693   -0.153574   -0.632066
     30          1           0       -2.812514   -0.517701    2.403359
     31          1           0       -2.268218    0.935377    1.572754
     32          1           0       -0.414577   -0.374874    0.484668
     33          1           0       -0.961966   -1.836209    1.319992
     34          1           0       -0.309130   -0.476989    2.250387
 ---------------------------------------------------------------------

 SCF Done:  E(RHF) =  -669.534493150     A.U. after   15 cycles
 E2 =    -0.2092377832D+01 EUMP2 =    -0.67162687098227D+03

 The electronic state is 1-A.
 Alpha  occ. eigenvalues --  -20.60752 -20.60746 -15.85808 -11.31190 -11.27777
 Alpha  occ. eigenvalues --  -11.27774 -11.27528 -11.26795 -11.26782 -11.21846
 Alpha  occ. eigenvalues --  -11.21839 -11.21699 -11.21633 -11.21288 -11.21134
 Alpha  occ. eigenvalues --   -1.59826  -1.39379  -1.19384  -1.08767  -1.08694
 Alpha  occ. eigenvalues --   -1.04807  -1.03750  -0.96197  -0.95599  -0.87212
 Alpha  occ. eigenvalues --   -0.86186  -0.82440  -0.79819  -0.78515  -0.77476
 Alpha  occ. eigenvalues --   -0.72028  -0.71149  -0.70498  -0.65341  -0.65036
 Alpha  occ. eigenvalues --   -0.64799  -0.62176  -0.61147  -0.59560  -0.57809
 Alpha  occ. eigenvalues --   -0.55551  -0.55284  -0.53232  -0.52901  -0.52828
 Alpha  occ. eigenvalues --   -0.52520  -0.50112  -0.48787  -0.48779  -0.48126
 Alpha  occ. eigenvalues --   -0.46860  -0.46055  -0.45985  -0.44778  -0.44015
 Alpha  occ. eigenvalues --   -0.37359  -0.36306
 Alpha virt. eigenvalues --    0.05037   0.11223   0.16430   0.20738   0.22723
 Alpha virt. eigenvalues --    0.24075   0.25923   0.26887   0.27537   0.27972
 Alpha virt. eigenvalues --    0.28828   0.30764   0.31476   0.31658   0.32223

 Mulliken charges:
               1
     1  C   -0.170701
     2  C   -0.218634
     3  C   -0.171203
     4  C    0.158496
     5  C   -0.169608
     6  C   -0.216990
     7  H    0.225629
     8  H    0.223478
     9  H    0.275754
    10  H    0.276492
    11  H    0.223228
    12  N    0.488250
    13  O   -0.460124
    14  O   -0.460631
    15  C   -0.298121
    16  C   -0.299639
    17  C   -0.475772
    18  H    0.151331
    19  H    0.147473
    20  H    0.153749
    21  H    0.150262
    22  H    0.154302
    23  H    0.156091
    24  H    0.161046
    25  C   -0.297043
    26  C   -0.300048
    27  C   -0.477474
    28  H    0.153216
    29  H    0.142480
    30  H    0.153819
    31  H    0.147752
    32  H    0.151100
    33  H    0.160711
    34  H    0.161328
 Sum of Mulliken charges =  -0.00000

 Dipole moment (field-independent basis, Debye):
    X=             -1.6222    Y=              4.8946    Z=              0.1611  Tot=              5.1589
 Quadrupole moment (field-independent basis, Debye-Ang):
   XX=           -102.8042   YY=            -94.9025   ZZ=            -93.8668
   XY=             17.8013   XZ=              3.0273   YZ=             -0.9915

 Normal termination of Gaussian 16 at Thu May  6 14:15:29 2021.
