 Gaussian 16, Revision A.03,
 Gaussian 16:  EM64L-G16RevA.03 25-Dec-2016

 -------------
 #p 6-31g* mp2
 -------------

 ------------------------------------------------------
 Input file generated by CHIRIPA (05-May-2021 14:55:19)
 ------------------------------------------------------
 Symbolic Z-matrix:
 Charge =  0 Multiplicity = 1

                         Standard orientation:
 ---------------------------------------------------------------------
 Center     Atomic      Atomic             Coordinates (Angstroms)
 Number     Number       Type             X           Y           Z
 ---------------------------------------------------------------------
      1          6           0       -1.388657    2.706340    0.540703
      2          6           0       -0.863705    1.526711    1.078683
      3          6           0       -1.473784    0.295574    0.820511
      4          6           0       -2.612527    0.280705    0.016563
      5          6           0       -3.159461    1.438766   -0.533934
      6          6           0       -2.532842    2.658687   -0.262472
      7          1           0       -0.908309    3.658360    0.746419
      8          1           0        0.024770    1.560703    1.702784
      9          1           0       -1.088482   -0.632860    1.224208
     10          1           0       -4.046342    1.373102   -1.152438
     11          1           0       -2.942738    3.573208   -0.681615
     12          7           0       -3.267145   -1.016708   -0.263786
     13          8           0       -4.269362   -1.002977   -0.975130
     14          8           0       -2.765623   -2.022784    0.233128
     15          6           0        2.639993   -1.059354   -0.365589
     16          6           0        1.871549   -1.839580    0.701522
     17          6           0        0.742495   -2.687779    0.115356
     18          1           0        1.940378   -0.413152   -0.913227
     19          1           0        3.053347   -1.765102   -1.099381
     20          1           0        1.460935   -1.132676    1.433845
     21          1           0        2.573107   -2.483858    1.246811
     22          1           0        1.138880   -3.415198   -0.600423
     23          1           0        0.020389   -2.056339   -0.412325
     24          1           0        0.206395   -3.237050    0.895586
     25          6           0        3.771881   -0.206653    0.204902
     26          6           0        4.540325    0.573574   -0.862209
     27          6           0        5.669379    1.421772   -0.276043
     28          1           0        3.358527    0.499096    0.938695
     29          1           0        4.471496   -0.852854    0.752540
     30          1           0        3.838768    1.217851   -1.407498
     31          1           0        4.950939   -0.133331   -1.594532
     32          1           0        6.391485    0.790333    0.251639
     33          1           0        5.272995    2.149192    0.439736
     34          1           0        6.205479    1.971044   -1.056273
 ---------------------------------------------------------------------

 SCF Done:  E(RHF) =  -669.534739907     A.U. after   15 cycles
 E2 =    -0.2093610052D+01 EUMP2 =    -0.67162834995995D+03

 The electronic state is 1-A.
 Alpha  occ. eigenvalues --  -20.60836 -20.60822 -15.85866 -11.31226 -11.27806
 Alpha  occ. eigenvalues --  -11.27752 -11.27550 -11.26819 -11.26808 -11.21937
 Alpha  occ. eigenvalues --  -11.21862 -11.21758 -11.21612 -11.21419 -11.20748
 Alpha  occ. eigenvalues --   -1.59901  -1.39455  -1.19409  -1.08804  -1.08721
 Alpha  occ. eigenvalues --   -1.04815  -1.03747  -0.96163  -0.95626  -0.87152
 Alpha  occ. eigenvalues --   -0.86202  -0.82473  -0.79805  -0.78538  -0.77524
 Alpha  occ. eigenvalues --   -0.72094  -0.71226  -0.70532  -0.65414  -0.65057
 Alpha  occ. eigenvalues --   -0.64814  -0.62305  -0.60999  -0.59517  -0.57765
 Alpha  occ. eigenvalues --   -0.55555  -0.55202  -0.53134  -0.52869  -0.52779
 Alpha  occ. eigenvalues --   -0.52552  -0.50114  -0.48848  -0.48832  -0.48107
 Alpha  occ. eigenvalues --   -0.46886  -0.46076  -0.46025  -0.44773  -0.43972
 Alpha  occ. eigenvalues --   -0.37390  -0.36394
 Alpha virt. eigenvalues --    0.04980   0.11157   0.16404   0.19637   0.22915
 Alpha virt. eigenvalues --    0.23969   0.25211   0.26851   0.27038   0.28334
 Alpha virt. eigenvalues --    0.29338   0.31098   0.31406   0.31844   0.32064

 Mulliken charges:
               1
     1  C   -0.170639
     2  C   -0.222050
     3  C   -0.176096
     4  C    0.157291
     5  C   -0.170399
     6  C   -0.218750
     7  H    0.225823
     8  H    0.224389
     9  H    0.286744
    10  H    0.275741
    11  H    0.223677
    12  N    0.487864
    13  O   -0.459863
    14  O   -0.459153
    15  C   -0.298933
    16  C   -0.302633
    17  C   -0.481077
    18  H    0.150008
    19  H    0.153000
    20  H    0.136455
    21  H    0.154356
    22  H    0.157752
    23  H    0.161355
    24  H    0.168457
    25  C   -0.296652
    26  C   -0.299822
    27  C   -0.475448
    28  H    0.141770
    29  H    0.151452
    30  H    0.151042
    31  H    0.154258
    32  H    0.156455
    33  H    0.152452
    34  H    0.161173
 Sum of Mulliken charges =  -0.00000

 Dipole moment (field-independent basis, Debye):
    X=              2.2410    Y=              4.4365    Z=              0.8922  Tot=              5.0498
 Quadrupole moment (field-independent basis, Debye-Ang):
   XX=           -105.0238   YY=            -90.8760   ZZ=            -93.9554
   XY=            -14.4050   XZ=             -0.8748   YZ=             -1.1824

 Normal termination of Gaussian 16 at Wed May  5 18:50:31 2021.
