 Gaussian 16, Revision A.03,
 Gaussian 16:  EM64L-G16RevA.03 25-Dec-2016

 -------------
 #p 6-31g* mp2
 -------------

 ------------------------------------------------------
 Input file generated by CHIRIPA (05-May-2021 14:51:09)
 ------------------------------------------------------
 Symbolic Z-matrix:
 Charge =  0 Multiplicity = 1

                         Standard orientation:
 ---------------------------------------------------------------------
 Center     Atomic      Atomic             Coordinates (Angstroms)
 Number     Number       Type             X           Y           Z
 ---------------------------------------------------------------------
      1          6           0        2.798794    0.775558   -0.155508
      2          6           0        4.116495    1.249625    0.458421
      3          6           0        4.071888    2.714082    0.895650
      4          1           0        2.554445    1.410060   -1.018437
      5          1           0        1.990248    0.916593    0.575080
      6          1           0        4.922544    1.106452   -0.272608
      7          1           0        4.357833    0.613800    1.319873
      8          1           0        3.287550    2.869103    1.643569
      9          1           0        3.855469    3.364554    0.042040
     10          1           0        5.024062    3.032061    1.331672
     11          6           0        2.827747   -0.686462   -0.597533
     12          6           0        1.510045   -1.160529   -1.211463
     13          6           0        1.554652   -2.624986   -1.648691
     14          1           0        3.636292   -0.827497   -1.328121
     15          1           0        3.072095   -1.320964    0.265396
     16          1           0        1.268708   -0.524704   -2.072915
     17          1           0        0.703997   -1.017356   -0.480434
     18          1           0        1.771071   -3.275458   -0.795081
     19          1           0        2.338991   -2.780007   -2.396610
     20          1           0        0.602479   -2.942965   -2.084713
     21          6           0       -2.180211   -0.470889    0.406558
     22          6           0       -2.136226   -1.406799    1.614912
     23          6           0       -0.863687   -2.253149    1.661106
     24          1           0       -2.100452   -1.066153   -0.513357
     25          1           0       -1.301165    0.188002    0.429700
     26          1           0       -3.015816   -2.062794    1.590246
     27          1           0       -2.216291   -0.809254    2.532052
     28          1           0        0.023135   -1.613034    1.710113
     29          1           0       -0.780932   -2.873697    0.762956
     30          1           0       -0.853057   -2.914861    2.532819
     31          6           0       -3.446329    0.381793    0.346483
     32          6           0       -3.490315    1.317704   -0.861870
     33          6           0       -4.762853    2.164052   -0.908065
     34          1           0       -4.325376   -0.277098    0.323342
     35          1           0       -3.526088    0.977057    1.266398
     36          1           0       -3.410250    0.720158   -1.779010
     37          1           0       -2.610725    1.973699   -0.837205
     38          1           0       -4.845609    2.784601   -0.009916
     39          1           0       -5.649676    1.523938   -0.957072
     40          1           0       -4.773484    2.825765   -1.779777
 ---------------------------------------------------------------------

 SCF Done:  E(RHF) =  -470.732048786     A.U. after   11 cycles
 E2 =    -0.1584694029D+01 EUMP2 =    -0.47231674281455D+03

 The electronic state is 1-A.
 Alpha  occ. eigenvalues --  -11.21661 -11.21609 -11.21596 -11.21437 -11.21389
 Alpha  occ. eigenvalues --  -11.21376 -11.21361 -11.21282 -11.21125 -11.21078
 Alpha  occ. eigenvalues --  -11.21076 -11.20987  -1.08493  -1.08361  -1.03611
 Alpha  occ. eigenvalues --   -1.03433  -0.96036  -0.95923  -0.87045  -0.86949
 Alpha  occ. eigenvalues --   -0.79732  -0.79480  -0.78422  -0.78044  -0.65151
 Alpha  occ. eigenvalues --   -0.64984  -0.60996  -0.60915  -0.59457  -0.59218
 Alpha  occ. eigenvalues --   -0.57644  -0.57521  -0.55360  -0.55183  -0.52717
 Alpha  occ. eigenvalues --   -0.52623  -0.52444  -0.52358  -0.50053  -0.49799
 Alpha  occ. eigenvalues --   -0.48200  -0.47726  -0.46788  -0.46538  -0.46120
 Alpha  occ. eigenvalues --   -0.45758  -0.45696  -0.45042  -0.43821  -0.43724
 Alpha virt. eigenvalues --    0.20613   0.23118   0.23286   0.24354   0.25412
 Alpha virt. eigenvalues --    0.26538   0.26714   0.27959   0.28443   0.29779
 Alpha virt. eigenvalues --    0.30898   0.31213   0.31533   0.31976   0.32110

 Mulliken charges:
               1
     1  C   -0.298847
     2  C   -0.299547
     3  C   -0.475666
     4  H    0.149876
     5  H    0.147893
     6  H    0.152232
     7  H    0.151937
     8  H    0.154793
     9  H    0.155170
    10  H    0.160303
    11  C   -0.298460
    12  C   -0.310781
    13  C   -0.476089
    14  H    0.149190
    15  H    0.149289
    16  H    0.150438
    17  H    0.168162
    18  H    0.155805
    19  H    0.154696
    20  H    0.158347
    21  C   -0.302446
    22  C   -0.299082
    23  C   -0.481514
    24  H    0.151023
    25  H    0.151524
    26  H    0.152236
    27  H    0.151848
    28  H    0.155934
    29  H    0.159695
    30  H    0.160979
    31  C   -0.297723
    32  C   -0.299699
    33  C   -0.475756
    34  H    0.149559
    35  H    0.149600
    36  H    0.152036
    37  H    0.152376
    38  H    0.155180
    39  H    0.155146
    40  H    0.160345
 Sum of Mulliken charges =  -0.00000

 Dipole moment (field-independent basis, Debye):
    X=             -0.0510    Y=             -0.0093    Z=              0.0206  Tot=              0.0557
 Quadrupole moment (field-independent basis, Debye-Ang):
   XX=            -85.2929   YY=            -85.7363   ZZ=            -83.8828
   XY=              0.9423   XZ=             -0.1965   YZ=             -0.1984

 Normal termination of Gaussian 16 at Thu May  6 02:09:20 2021.
