 Gaussian 16, Revision A.03,
 Gaussian 16:  EM64L-G16RevA.03 25-Dec-2016

 -------------
 #p 6-31g* mp2
 -------------

 ------------------------------------------------------
 Input file generated by CHIRIPA (05-May-2021 14:53:16)
 ------------------------------------------------------
 Symbolic Z-matrix:
 Charge =  0 Multiplicity = 1

                         Standard orientation:
 ---------------------------------------------------------------------
 Center     Atomic      Atomic             Coordinates (Angstroms)
 Number     Number       Type             X           Y           Z
 ---------------------------------------------------------------------
      1          6           0        3.597447   -0.453006    0.846745
      2          6           0        2.343534   -1.245300    0.475317
      3          6           0        1.585858   -1.760810    1.699233
      4          1           0        4.260391   -1.089161    1.449037
      5          1           0        3.311647    0.393963    1.485773
      6          1           0        2.631447   -2.089724   -0.163956
      7          1           0        1.683585   -0.607246   -0.126322
      8          1           0        1.270440   -0.927973    2.336018
      9          1           0        2.223687   -2.418874    2.298171
     10          1           0        0.693064   -2.324318    1.410726
     11          6           0        4.365658    0.068961   -0.366157
     12          6           0        5.619571    0.861255    0.005270
     13          6           0        6.377247    1.376765   -1.218646
     14          1           0        4.651458   -0.778008   -1.005186
     15          1           0        3.702714    0.705116   -0.968449
     16          1           0        6.279520    0.223201    0.606910
     17          1           0        5.331658    1.705679    0.644543
     18          1           0        5.739417    2.034829   -1.817583
     19          1           0        6.692665    0.543928   -1.855430
     20          1           0        7.270041    1.940273   -0.930138
     21          6           0       -2.492341   -2.202267   -0.858886
     22          6           0       -1.490537   -1.252592   -0.632991
     23          6           0       -1.821473    0.053717   -0.260719
     24          6           0       -3.170357    0.377428   -0.122845
     25          6           0       -4.191384   -0.546289   -0.340887
     26          6           0       -3.837196   -1.846712   -0.712372
     27          1           0       -2.226231   -3.214752   -1.147770
     28          1           0       -0.445275   -1.525897   -0.746027
     29          1           0       -1.066120    0.808749   -0.079642
     30          1           0       -5.224607   -0.244083   -0.220312
     31          1           0       -4.617328   -2.582163   -0.887156
     32          7           0       -3.533012    1.757243    0.270846
     33          8           0       -4.728765    2.017306    0.385648
     34          8           0       -2.614641    2.552552    0.457164
 ---------------------------------------------------------------------

 SCF Done:  E(RHF) =  -669.535103850     A.U. after   15 cycles
 E2 =    -0.2092092270D+01 EUMP2 =    -0.67162719611946D+03

 The electronic state is 1-A.
 Alpha  occ. eigenvalues --  -20.60746 -20.60741 -15.85798 -11.31154 -11.27717
 Alpha  occ. eigenvalues --  -11.27709 -11.27449 -11.26734 -11.26659 -11.22579
 Alpha  occ. eigenvalues --  -11.22010 -11.21938 -11.21847 -11.21844 -11.21326
 Alpha  occ. eigenvalues --   -1.59821  -1.39375  -1.19320  -1.09029  -1.08716
 Alpha  occ. eigenvalues --   -1.04729  -1.04122  -0.96540  -0.95556  -0.87550
 Alpha  occ. eigenvalues --   -0.86120  -0.82393  -0.80234  -0.78813  -0.77435
 Alpha  occ. eigenvalues --   -0.72017  -0.71143  -0.70433  -0.65680  -0.64968
 Alpha  occ. eigenvalues --   -0.64758  -0.62209  -0.61438  -0.59895  -0.58148
 Alpha  occ. eigenvalues --   -0.55796  -0.55211  -0.53318  -0.53084  -0.52963
 Alpha  occ. eigenvalues --   -0.52657  -0.50465  -0.48774  -0.48773  -0.48528
 Alpha  occ. eigenvalues --   -0.47260  -0.46346  -0.46239  -0.44783  -0.44365
 Alpha  occ. eigenvalues --   -0.37298  -0.36303
 Alpha virt. eigenvalues --    0.05090   0.11254   0.16545   0.19867   0.22598
 Alpha virt. eigenvalues --    0.23933   0.25460   0.26259   0.26928   0.28108
 Alpha virt. eigenvalues --    0.29047   0.30293   0.30963   0.31145   0.32248

 Mulliken charges:
               1
     1  C   -0.298191
     2  C   -0.305908
     3  C   -0.479015
     4  H    0.152463
     5  H    0.153776
     6  H    0.151979
     7  H    0.143257
     8  H    0.161226
     9  H    0.159649
    10  H    0.156774
    11  C   -0.299086
    12  C   -0.300405
    13  C   -0.476184
    14  H    0.149174
    15  H    0.150050
    16  H    0.152519
    17  H    0.154267
    18  H    0.156362
    19  H    0.154898
    20  H    0.161950
    21  C   -0.173073
    22  C   -0.222400
    23  C   -0.173887
    24  C    0.158779
    25  C   -0.171130
    26  C   -0.218252
    27  H    0.225715
    28  H    0.234264
    29  H    0.274859
    30  H    0.275439
    31  H    0.223226
    32  N    0.488208
    33  O   -0.460519
    34  O   -0.460784
 Sum of Mulliken charges =  -0.00000

 Dipole moment (field-independent basis, Debye):
    X=              1.4608    Y=             -4.8400    Z=             -1.3118  Tot=              5.2230
 Quadrupole moment (field-independent basis, Debye-Ang):
   XX=            -97.5581   YY=            -98.2123   ZZ=            -95.7362
   XY=             16.7752   XZ=              5.1770   YZ=              0.4721

 Normal termination of Gaussian 16 at Wed May  5 21:56:25 2021.
