 Gaussian 16, Revision A.03,
 Gaussian 16:  EM64L-G16RevA.03 25-Dec-2016

 -------------
 #p 6-31g* mp2
 -------------

 ------------------------------------------------------
 Input file generated by CHIRIPA (05-May-2021 14:51:10)
 ------------------------------------------------------
 Symbolic Z-matrix:
 Charge =  0 Multiplicity = 1

                         Standard orientation:
 ---------------------------------------------------------------------
 Center     Atomic      Atomic             Coordinates (Angstroms)
 Number     Number       Type             X           Y           Z
 ---------------------------------------------------------------------
      1          6           0       -4.207205   -0.491560    0.366664
      2          6           0       -5.155396   -1.370686   -0.449458
      3          6           0       -5.413793   -2.728005    0.205303
      4          1           0       -3.254488   -1.020839    0.505008
      5          1           0       -4.629821   -0.341297    1.369766
      6          1           0       -4.731784   -1.518104   -1.451175
      7          1           0       -6.105899   -0.839174   -0.586038
      8          1           0       -5.859039   -2.598766    1.197096
      9          1           0       -4.477116   -3.281554    0.327044
     10          1           0       -6.094134   -3.340232   -0.394842
     11          6           0       -3.939127    0.868643   -0.274983
     12          6           0       -2.990936    1.747769    0.541139
     13          6           0       -2.732539    3.105087   -0.113621
     14          1           0       -3.516511    0.718380   -1.278084
     15          1           0       -4.891844    1.397922   -0.413327
     16          1           0       -2.040433    1.216256    0.677720
     17          1           0       -3.414548    1.895187    1.542856
     18          1           0       -3.669215    3.658637   -0.235363
     19          1           0       -2.287293    2.975849   -1.105415
     20          1           0       -2.052198    3.717315    0.486523
     21          6           0        4.769540    0.118029    0.021316
     22          6           0        5.892293   -0.919930    0.014004
     23          6           0        7.279470   -0.291224    0.149139
     24          1           0        4.932213    0.830581   -0.798899
     25          1           0        4.821314    0.697382    0.953552
     26          1           0        5.837567   -1.498075   -0.917322
     27          1           0        5.726823   -1.630206    0.834213
     28          1           0        7.358425    0.270130    1.085755
     29          1           0        7.469798    0.403011   -0.675732
     30          1           0        8.067110   -1.051110    0.141616
     31          6           0        3.376792   -0.495112   -0.112998
     32          6           0        2.254039    0.542847   -0.105686
     33          6           0        0.866861   -0.085859   -0.240820
     34          1           0        3.325018   -1.074465   -1.045233
     35          1           0        3.214118   -1.207663    0.707218
     36          1           0        2.419509    1.253123   -0.925895
     37          1           0        2.308764    1.120993    0.825641
     38          1           0        0.676533   -0.780094    0.584052
     39          1           0        0.787907   -0.647212   -1.177436
     40          1           0        0.079222    0.674028   -0.233297
 ---------------------------------------------------------------------

 SCF Done:  E(RHF) =  -470.733327916     A.U. after   11 cycles
 E2 =    -0.1582454958D+01 EUMP2 =    -0.47231578287324D+03

 The electronic state is 1-A.
 Alpha  occ. eigenvalues --  -11.21644 -11.21619 -11.21563 -11.21544 -11.21432
 Alpha  occ. eigenvalues --  -11.21371 -11.21359 -11.21299 -11.21128 -11.21084
 Alpha  occ. eigenvalues --  -11.21064 -11.21039  -1.08460  -1.08389  -1.03569
 Alpha  occ. eigenvalues --   -1.03493  -0.96020  -0.95946  -0.87041  -0.86959
 Alpha  occ. eigenvalues --   -0.79650  -0.79539  -0.78271  -0.78199  -0.65089
 Alpha  occ. eigenvalues --   -0.65034  -0.60974  -0.60938  -0.59417  -0.59264
 Alpha  occ. eigenvalues --   -0.57649  -0.57530  -0.55301  -0.55237  -0.52745
 Alpha  occ. eigenvalues --   -0.52634  -0.52445  -0.52363  -0.49960  -0.49882
 Alpha  occ. eigenvalues --   -0.47994  -0.47832  -0.46669  -0.46572  -0.45813
 Alpha  occ. eigenvalues --   -0.45752  -0.45730  -0.45664  -0.43788  -0.43726
 Alpha virt. eigenvalues --    0.21267   0.22996   0.23751   0.24894   0.26225
 Alpha virt. eigenvalues --    0.26640   0.27277   0.27461   0.27958   0.28845
 Alpha virt. eigenvalues --    0.30651   0.31368   0.31729   0.31878   0.31917

 Mulliken charges:
               1
     1  C   -0.298717
     2  C   -0.299619
     3  C   -0.475711
     4  H    0.150741
     5  H    0.149232
     6  H    0.151985
     7  H    0.151743
     8  H    0.155044
     9  H    0.155284
    10  H    0.160095
    11  C   -0.297829
    12  C   -0.306875
    13  C   -0.476128
    14  H    0.149604
    15  H    0.149421
    16  H    0.158331
    17  H    0.151981
    18  H    0.155438
    19  H    0.155040
    20  H    0.160083
    21  C   -0.298288
    22  C   -0.299662
    23  C   -0.475722
    24  H    0.149719
    25  H    0.149625
    26  H    0.151935
    27  H    0.151980
    28  H    0.155230
    29  H    0.155213
    30  H    0.160309
    31  C   -0.298623
    32  C   -0.298990
    33  C   -0.483001
    34  H    0.149523
    35  H    0.149716
    36  H    0.152153
    37  H    0.152271
    38  H    0.155120
    39  H    0.155168
    40  H    0.167183
 Sum of Mulliken charges =  -0.00000

 Dipole moment (field-independent basis, Debye):
    X=              0.0265    Y=             -0.0030    Z=             -0.0004  Tot=              0.0266
 Quadrupole moment (field-independent basis, Debye-Ang):
   XX=            -85.4273   YY=            -85.8050   ZZ=            -83.6102
   XY=             -0.9058   XZ=             -0.4664   YZ=              0.4440

 Normal termination of Gaussian 16 at Wed May  5 23:02:50 2021.
