 Gaussian 16, Revision A.03,
 Gaussian 16:  EM64L-G16RevA.03 25-Dec-2016

 -------------
 #p 6-31g* mp2
 -------------

 ------------------------------------------------------
 Input file generated by CHIRIPA (05-May-2021 14:53:17)
 ------------------------------------------------------
 Symbolic Z-matrix:
 Charge =  0 Multiplicity = 1

                         Standard orientation:
 ---------------------------------------------------------------------
 Center     Atomic      Atomic             Coordinates (Angstroms)
 Number     Number       Type             X           Y           Z
 ---------------------------------------------------------------------
      1          6           0       -4.438122    0.102964   -0.475279
      2          6           0       -5.374017   -0.970059    0.082131
      3          6           0       -6.273934   -1.584659   -0.990348
      4          1           0       -5.037043    0.892293   -0.949829
      5          1           0       -3.817381   -0.337527   -1.267770
      6          1           0       -5.991844   -0.528021    0.874285
      7          1           0       -4.772806   -1.756831    0.555577
      8          1           0       -5.672262   -2.051310   -1.777004
      9          1           0       -6.898226   -0.815519   -1.456485
     10          1           0       -6.934746   -2.349220   -0.570068
     11          6           0       -3.532163    0.726764    0.584835
     12          6           0       -2.596268    1.799787    0.027426
     13          6           0       -1.696351    2.414387    1.099904
     14          1           0       -4.152905    1.167255    1.377327
     15          1           0       -2.933242   -0.062565    1.059385
     16          1           0       -3.197479    2.586559   -0.446021
     17          1           0       -1.978442    1.357749   -0.764729
     18          1           0       -1.072059    1.645247    1.566042
     19          1           0       -2.298023    2.881038    1.886560
     20          1           0       -1.035539    3.178948    0.679624
     21          6           0        0.717157   -0.869230    0.528890
     22          6           0        1.759193   -1.419780    1.282268
     23          6           0        3.090650   -1.124692    0.974542
     24          6           0        3.345052   -0.271412   -0.098064
     25          6           0        2.328719    0.292788   -0.867502
     26          6           0        1.004738   -0.016207   -0.541702
     27          1           0       -0.314247   -1.103863    0.774959
     28          1           0        1.538825   -2.082562    2.114254
     29          1           0        3.916659   -1.537078    1.541167
     30          1           0        2.579700    0.950178   -1.691071
     31          1           0        0.197503    0.412807   -1.128527
     32          7           0        4.750647    0.048345   -0.433407
     33          8           0        4.948347    0.802876   -1.383267
     34          8           0        5.628040   -0.461614    0.259963
 ---------------------------------------------------------------------

 SCF Done:  E(RHF) =  -669.535133396     A.U. after   15 cycles
 E2 =    -0.2092558496D+01 EUMP2 =    -0.67162769189166D+03

 The electronic state is 1-A.
 Alpha  occ. eigenvalues --  -20.60763 -20.60758 -15.85816 -11.31193 -11.27756
 Alpha  occ. eigenvalues --  -11.27744 -11.27504 -11.26784 -11.26754 -11.22708
 Alpha  occ. eigenvalues --  -11.22476 -11.22392 -11.22281 -11.21906 -11.21717
 Alpha  occ. eigenvalues --   -1.59838  -1.39391  -1.19364  -1.09402  -1.08759
 Alpha  occ. eigenvalues --   -1.04770  -1.04412  -0.96836  -0.95593  -0.87844
 Alpha  occ. eigenvalues --   -0.86168  -0.82426  -0.80490  -0.79209  -0.77469
 Alpha  occ. eigenvalues --   -0.72035  -0.71161  -0.70493  -0.66114  -0.65013
 Alpha  occ. eigenvalues --   -0.64758  -0.62229  -0.61677  -0.60205  -0.58449
 Alpha  occ. eigenvalues --   -0.56142  -0.55278  -0.53500  -0.53260  -0.53071
 Alpha  occ. eigenvalues --   -0.52865  -0.50773  -0.48827  -0.48790  -0.48757
 Alpha  occ. eigenvalues --   -0.47536  -0.46730  -0.46673  -0.44794  -0.44680
 Alpha  occ. eigenvalues --   -0.37328  -0.36357
 Alpha virt. eigenvalues --    0.05036   0.11222   0.16442   0.18248   0.22757
 Alpha virt. eigenvalues --    0.23956   0.24299   0.25257   0.27172   0.28134
 Alpha virt. eigenvalues --    0.29438   0.29826   0.31013   0.31483   0.31685

 Mulliken charges:
               1
     1  C   -0.298505
     2  C   -0.299761
     3  C   -0.476226
     4  H    0.153434
     5  H    0.146913
     6  H    0.154188
     7  H    0.149646
     8  H    0.155547
     9  H    0.157027
    10  H    0.162453
    11  C   -0.299642
    12  C   -0.304333
    13  C   -0.478036
    14  H    0.155131
    15  H    0.141732
    16  H    0.158209
    17  H    0.142919
    18  H    0.155301
    19  H    0.158825
    20  H    0.163860
    21  C   -0.175851
    22  C   -0.219571
    23  C   -0.170935
    24  C    0.159014
    25  C   -0.172190
    26  C   -0.220843
    27  H    0.229113
    28  H    0.223709
    29  H    0.275625
    30  H    0.275970
    31  H    0.230018
    32  N    0.487942
    33  O   -0.460300
    34  O   -0.460386
 Sum of Mulliken charges =  -0.00000

 Dipole moment (field-independent basis, Debye):
    X=             -5.1303    Y=             -1.0456    Z=              1.2058  Tot=              5.3729
 Quadrupole moment (field-independent basis, Debye-Ang):
   XX=           -127.0031   YY=            -92.4875   ZZ=            -92.8909
   XY=             -4.5812   XZ=              5.1987   YZ=             -2.9041

 Normal termination of Gaussian 16 at Thu May  6 01:13:04 2021.
