 Gaussian 16, Revision A.03,
 Gaussian 16:  EM64L-G16RevA.03 25-Dec-2016

 -------------
 #p 6-31g* mp2
 -------------

 ------------------------------------------------------
 Input file generated by CHIRIPA (05-May-2021 14:57:21)
 ------------------------------------------------------
 Symbolic Z-matrix:
 Charge =  0 Multiplicity = 1

                         Standard orientation:
 ---------------------------------------------------------------------
 Center     Atomic      Atomic             Coordinates (Angstroms)
 Number     Number       Type             X           Y           Z
 ---------------------------------------------------------------------
      1          6           0        2.068113    1.515363    1.092475
      2          6           0        3.177230    2.119929    0.491741
      3          6           0        4.218283    1.341475   -0.022812
      4          6           0        4.117039   -0.044996    0.080806
      5          6           0        3.025023   -0.676946    0.673622
      6          6           0        1.995678    0.121312    1.181342
      7          1           0        1.263945    2.127777    1.489537
      8          1           0        3.236173    3.202340    0.421331
      9          1           0        5.088417    1.783387   -0.492918
     10          1           0        2.994601   -1.758340    0.729116
     11          1           0        1.135528   -0.350940    1.647352
     12          7           0        5.212958   -0.879594   -0.460311
     13          8           0        5.099838   -2.099056   -0.356618
     14          8           0        6.164308   -0.298486   -0.977885
     15          6           0       -6.432336   -0.339786    0.104225
     16          6           0       -5.578907   -1.376027    0.497143
     17          6           0       -4.194361   -1.249988    0.349853
     18          6           0       -3.695122   -0.068654   -0.196498
     19          6           0       -4.519480    0.981572   -0.597433
     20          6           0       -5.900835    0.833637   -0.440847
     21          1           0       -7.506645   -0.446201    0.222254
     22          1           0       -5.988874   -2.288455    0.920757
     23          1           0       -3.510780   -2.036511    0.645688
     24          1           0       -4.081267    1.879214   -1.016515
     25          1           0       -6.561221    1.640042   -0.746868
     26          7           0       -2.231053    0.076368   -0.357348
     27          8           0       -1.816160    1.127182   -0.841384
     28          8           0       -1.526132   -0.863524    0.003659
 ---------------------------------------------------------------------

 SCF Done:  E(RHF) =  -868.339557767     A.U. after   16 cycles
 E2 =    -0.2598584169D+01 EUMP2 =    -0.87093814193630D+03

 The electronic state is 1-A.
 Alpha  occ. eigenvalues --  -20.61676 -20.61659 -20.59786 -20.59778 -15.86701
 Alpha  occ. eigenvalues --  -15.84827 -11.31849 -11.29947 -11.28391 -11.28388
 Alpha  occ. eigenvalues --  -11.28082 -11.27351 -11.27341 -11.26520 -11.26414
 Alpha  occ. eigenvalues --  -11.26126 -11.25508 -11.25292  -1.60737  -1.58864
 Alpha  occ. eigenvalues --   -1.40296  -1.38425  -1.20000  -1.18075  -1.09433
 Alpha  occ. eigenvalues --   -1.07508  -1.05368  -1.03435  -0.96304  -0.94395
 Alpha  occ. eigenvalues --   -0.86776  -0.84844  -0.83143  -0.81235  -0.78217
 Alpha  occ. eigenvalues --   -0.76323  -0.72925  -0.72052  -0.71100  -0.71056
 Alpha  occ. eigenvalues --   -0.70181  -0.69188  -0.65654  -0.65364  -0.63726
 Alpha  occ. eigenvalues --   -0.63426  -0.62717  -0.60798  -0.55869  -0.53940
 Alpha  occ. eigenvalues --   -0.53711  -0.53454  -0.51778  -0.51533  -0.49679
 Alpha  occ. eigenvalues --   -0.49644  -0.47822  -0.47787  -0.45747  -0.43886
 Alpha  occ. eigenvalues --   -0.37965  -0.36962  -0.36009  -0.35010
 Alpha virt. eigenvalues --    0.04281   0.06194   0.10695   0.12645   0.15817
 Alpha virt. eigenvalues --    0.17774   0.20873   0.22755   0.26797   0.27728
 Alpha virt. eigenvalues --    0.28683   0.29543   0.30472   0.31893   0.32339

 Mulliken charges:
               1
     1  C   -0.165849
     2  C   -0.218712
     3  C   -0.173192
     4  C    0.157617
     5  C   -0.172708
     6  C   -0.208834
     7  H    0.224386
     8  H    0.218733
     9  H    0.271031
    10  H    0.272847
    11  H    0.231553
    12  N    0.488261
    13  O   -0.462985
    14  O   -0.464285
    15  C   -0.169938
    16  C   -0.218430
    17  C   -0.170892
    18  C    0.157419
    19  C   -0.170873
    20  C   -0.218475
    21  H    0.227868
    22  H    0.225520
    23  H    0.275411
    24  H    0.275695
    25  H    0.225274
    26  N    0.488235
    27  O   -0.459576
    28  O   -0.465102
 Sum of Mulliken charges =  -0.00000

 Dipole moment (field-independent basis, Debye):
    X=             -9.6030    Y=              2.4076    Z=              2.4956  Tot=             10.2099
 Quadrupole moment (field-independent basis, Debye-Ang):
   XX=            -98.9568   YY=            -97.9237   ZZ=           -105.1159
   XY=             16.1513   XZ=              6.0342   YZ=             -3.3037

 Normal termination of Gaussian 16 at Wed May  5 16:14:22 2021.
