 Gaussian 16, Revision A.03,
 Gaussian 16:  EM64L-G16RevA.03 25-Dec-2016

 -------------
 #p 6-31g* mp2
 -------------

 ------------------------------------------------------
 Input file generated by CHIRIPA (05-May-2021 14:51:14)
 ------------------------------------------------------
 Symbolic Z-matrix:
 Charge =  0 Multiplicity = 1

                         Standard orientation:
 ---------------------------------------------------------------------
 Center     Atomic      Atomic             Coordinates (Angstroms)
 Number     Number       Type             X           Y           Z
 ---------------------------------------------------------------------
      1          6           0       -2.650007    0.916827    0.197291
      2          6           0       -3.582081    2.117168    0.028755
      3          6           0       -3.058424    3.374401    0.723695
      4          1           0       -2.512377    0.715087    1.268414
      5          1           0       -1.658872    1.172077   -0.202577
      6          1           0       -4.571549    1.859253    0.427566
      7          1           0       -3.717661    2.315954   -1.042094
      8          1           0       -2.081407    3.659112    0.319990
      9          1           0       -2.940146    3.199816    1.798000
     10          1           0       -3.740114    4.220220    0.590467
     11          6           0       -3.159909   -0.347593   -0.491890
     12          6           0       -2.227835   -1.547933   -0.323355
     13          6           0       -2.751492   -2.805167   -1.018295
     14          1           0       -4.151044   -0.602843   -0.092023
     15          1           0       -3.297539   -0.145853   -1.563013
     16          1           0       -2.092255   -1.746720    0.747494
     17          1           0       -1.238367   -1.290018   -0.722165
     18          1           0       -2.869770   -2.630582   -2.092600
     19          1           0       -3.728509   -3.089878   -0.614590
     20          1           0       -2.069802   -3.650985   -0.885066
     21          6           0        3.243008    0.383464    0.298368
     22          6           0        3.970467    0.981078   -0.906474
     23          6           0        4.641718    2.317534   -0.588513
     24          1           0        2.488987    1.098440    0.655030
     25          1           0        3.959417    0.248579    1.120536
     26          1           0        3.253187    1.113508   -1.726588
     27          1           0        4.722713    0.264515   -1.260426
     28          1           0        5.378329    2.197720    0.212517
     29          1           0        3.900453    3.051536   -0.256293
     30          1           0        5.155827    2.726844   -1.463738
     31          6           0        2.566908   -0.952698   -0.003769
     32          6           0        1.839449   -1.550312    1.201074
     33          6           0        1.168198   -2.886769    0.883113
     34          1           0        1.850499   -0.817814   -0.825936
     35          1           0        3.320928   -1.667675   -0.360430
     36          1           0        1.087204   -0.833750    1.555027
     37          1           0        2.556729   -1.682742    2.021188
     38          1           0        1.909462   -3.620770    0.550893
     39          1           0        0.431587   -2.766954    0.082083
     40          1           0        0.654089   -3.296079    1.758337
 ---------------------------------------------------------------------

 SCF Done:  E(RHF) =  -470.732825119     A.U. after   11 cycles
 E2 =    -0.1583598611D+01 EUMP2 =    -0.47231642372994D+03

 The electronic state is 1-A.
 Alpha  occ. eigenvalues --  -11.21646 -11.21639 -11.21603 -11.21544 -11.21457
 Alpha  occ. eigenvalues --  -11.21396 -11.21394 -11.21336 -11.21112 -11.21104
 Alpha  occ. eigenvalues --  -11.21072 -11.20938  -1.08490  -1.08402  -1.03610
 Alpha  occ. eigenvalues --   -1.03468  -0.96049  -0.95924  -0.87038  -0.86965
 Alpha  occ. eigenvalues --   -0.79697  -0.79520  -0.78316  -0.78211  -0.65155
 Alpha  occ. eigenvalues --   -0.65007  -0.61060  -0.60873  -0.59383  -0.59314
 Alpha  occ. eigenvalues --   -0.57727  -0.57500  -0.55321  -0.55182  -0.52726
 Alpha  occ. eigenvalues --   -0.52634  -0.52470  -0.52334  -0.49972  -0.49884
 Alpha  occ. eigenvalues --   -0.48016  -0.47821  -0.46747  -0.46531  -0.45926
 Alpha  occ. eigenvalues --   -0.45797  -0.45703  -0.45535  -0.43830  -0.43756
 Alpha virt. eigenvalues --    0.20607   0.23288   0.23360   0.24782   0.25586
 Alpha virt. eigenvalues --    0.26293   0.26608   0.27737   0.28837   0.29166
 Alpha virt. eigenvalues --    0.30428   0.30961   0.31523   0.31897   0.32164

 Mulliken charges:
               1
     1  C   -0.298475
     2  C   -0.299658
     3  C   -0.475727
     4  H    0.149685
     5  H    0.148774
     6  H    0.152196
     7  H    0.152077
     8  H    0.154954
     9  H    0.155282
    10  H    0.160499
    11  C   -0.297684
    12  C   -0.303341
    13  C   -0.478522
    14  H    0.149766
    15  H    0.149627
    16  H    0.154657
    17  H    0.152636
    18  H    0.155217
    19  H    0.155775
    20  H    0.162593
    21  C   -0.298365
    22  C   -0.299584
    23  C   -0.475691
    24  H    0.149791
    25  H    0.149678
    26  H    0.151484
    27  H    0.151990
    28  H    0.155276
    29  H    0.155149
    30  H    0.160201
    31  C   -0.299346
    32  C   -0.300180
    33  C   -0.481793
    34  H    0.149026
    35  H    0.149757
    36  H    0.153058
    37  H    0.151681
    38  H    0.153872
    39  H    0.164737
    40  H    0.158934
 Sum of Mulliken charges =  -0.00000

 Dipole moment (field-independent basis, Debye):
    X=             -0.0436    Y=             -0.0036    Z=              0.0016  Tot=              0.0438
 Quadrupole moment (field-independent basis, Debye-Ang):
   XX=            -84.1244   YY=            -86.4267   ZZ=            -84.2110
   XY=             -0.9661   XZ=             -0.3747   YZ=             -0.8417

 Normal termination of Gaussian 16 at Thu May  6 00:50:06 2021.
