 Gaussian 16, Revision A.03,
 Gaussian 16:  EM64L-G16RevA.03 25-Dec-2016

 -------------
 #p 6-31g* mp2
 -------------

 ------------------------------------------------------
 Input file generated by CHIRIPA (05-May-2021 14:53:18)
 ------------------------------------------------------
 Symbolic Z-matrix:
 Charge =  0 Multiplicity = 1

                         Standard orientation:
 ---------------------------------------------------------------------
 Center     Atomic      Atomic             Coordinates (Angstroms)
 Number     Number       Type             X           Y           Z
 ---------------------------------------------------------------------
      1          6           0       -3.332323    0.949673    0.287896
      2          6           0       -3.151543    2.077698   -0.728402
      3          6           0       -2.309079    3.232639   -0.186036
      4          1           0       -3.802256    1.353794    1.194976
      5          1           0       -2.344243    0.574449    0.588395
      6          1           0       -4.139709    2.449751   -1.027934
      7          1           0       -2.682160    1.670807   -1.633242
      8          1           0       -1.310787    2.882249    0.095463
      9          1           0       -2.776618    3.665619    0.704209
     10          1           0       -2.192537    4.027942   -0.928850
     11          6           0       -4.172310   -0.212166   -0.239627
     12          6           0       -4.353091   -1.340192    0.776671
     13          6           0       -5.195554   -2.495132    0.234305
     14          1           0       -5.160390    0.163058   -0.540126
     15          1           0       -3.702377   -0.616287   -1.146707
     16          1           0       -4.822473   -0.933300    1.681511
     17          1           0       -3.364924   -1.712244    1.076204
     18          1           0       -4.728015   -2.928112   -0.655940
     19          1           0       -6.193846   -2.144742   -0.047194
     20          1           0       -5.312097   -3.290435    0.977119
     21          6           0        5.380655    0.237195    0.283847
     22          6           0        4.988813   -1.006673   -0.221893
     23          6           0        3.634621   -1.308607   -0.393794
     24          6           0        2.694722   -0.338871   -0.048119
     25          6           0        3.053622    0.909425    0.458080
     26          6           0        4.413513    1.189595    0.621624
     27          1           0        6.434837    0.463291    0.414137
     28          1           0        5.737716   -1.748246   -0.485060
     29          1           0        3.303474   -2.263627   -0.783275
     30          1           0        2.283992    1.628356    0.711512
     31          1           0        4.714910    2.156432    1.014602
     32          7           0        1.258082   -0.646995   -0.225680
     33          8           0        0.449519    0.224487    0.086381
     34          8           0        0.967811   -1.754150   -0.673550
 ---------------------------------------------------------------------

 SCF Done:  E(RHF) =  -669.536624652     A.U. after   15 cycles
 E2 =    -0.2091433722D+01 EUMP2 =    -0.67162805837440D+03

 The electronic state is 1-A.
 Alpha  occ. eigenvalues --  -20.61109 -20.61100 -15.86132 -11.31384 -11.27939
 Alpha  occ. eigenvalues --  -11.27935 -11.27665 -11.26931 -11.26921 -11.20361
 Alpha  occ. eigenvalues --  -11.20277 -11.20040 -11.20007 -11.19925 -11.19714
 Alpha  occ. eigenvalues --   -1.60160  -1.39719  -1.19546  -1.08963  -1.07037
 Alpha  occ. eigenvalues --   -1.04932  -1.02279  -0.95816  -0.94737  -0.86336
 Alpha  occ. eigenvalues --   -0.85767  -0.82654  -0.78355  -0.77714  -0.76838
 Alpha  occ. eigenvalues --   -0.72360  -0.71466  -0.70654  -0.65206  -0.64935
 Alpha  occ. eigenvalues --   -0.63626  -0.62280  -0.59658  -0.58121  -0.56363
 Alpha  occ. eigenvalues --   -0.55440  -0.54008  -0.53267  -0.53023  -0.51503
 Alpha  occ. eigenvalues --   -0.51190  -0.49183  -0.49105  -0.48602  -0.46683
 Alpha  occ. eigenvalues --   -0.45351  -0.45145  -0.44418  -0.44176  -0.42493
 Alpha  occ. eigenvalues --   -0.37521  -0.36529
 Alpha virt. eigenvalues --    0.04809   0.11127   0.16317   0.21150   0.24229
 Alpha virt. eigenvalues --    0.25285   0.27011   0.27566   0.28290   0.29060
 Alpha virt. eigenvalues --    0.29222   0.30708   0.31784   0.32743   0.32976

 Mulliken charges:
               1
     1  C   -0.309776
     2  C   -0.295219
     3  C   -0.479253
     4  H    0.140424
     5  H    0.179013
     6  H    0.144746
     7  H    0.154369
     8  H    0.164112
     9  H    0.149508
    10  H    0.152879
    11  C   -0.296917
    12  C   -0.300028
    13  C   -0.475125
    14  H    0.142561
    15  H    0.153303
    16  H    0.146982
    17  H    0.158941
    18  H    0.156300
    19  H    0.151461
    20  H    0.156425
    21  C   -0.170361
    22  C   -0.218624
    23  C   -0.170347
    24  C    0.157308
    25  C   -0.170561
    26  C   -0.218571
    27  H    0.226371
    28  H    0.224125
    29  H    0.275986
    30  H    0.275921
    31  H    0.224330
    32  N    0.493533
    33  O   -0.465336
    34  O   -0.458482
 Sum of Mulliken charges =  -0.00000

 Dipole moment (field-independent basis, Debye):
    X=              5.5292    Y=              0.9267    Z=              0.6176  Tot=              5.6402
 Quadrupole moment (field-independent basis, Debye-Ang):
   XX=            -68.9799   YY=            -92.9668   ZZ=            -95.0858
   XY=             -0.5194   XZ=              0.6753   YZ=              1.6931

 Normal termination of Gaussian 16 at Thu May  6 15:41:07 2021.
