 Gaussian 16, Revision A.03,
 Gaussian 16:  EM64L-G16RevA.03 25-Dec-2016

 -------------
 #p 6-31g* mp2
 -------------

 ------------------------------------------------------
 Input file generated by CHIRIPA (05-May-2021 14:53:15)
 ------------------------------------------------------
 Symbolic Z-matrix:
 Charge =  0 Multiplicity = 1

                         Standard orientation:
 ---------------------------------------------------------------------
 Center     Atomic      Atomic             Coordinates (Angstroms)
 Number     Number       Type             X           Y           Z
 ---------------------------------------------------------------------
      1          6           0       -3.157073   -0.286487    0.188589
      2          6           0       -3.491820   -1.477764   -0.709626
      3          6           0       -3.494707   -2.806324    0.047152
      4          1           0       -2.173804   -0.448887    0.650924
      5          1           0       -3.885008   -0.239842    1.010374
      6          1           0       -2.764293   -1.521329   -1.530250
      7          1           0       -4.474321   -1.312420   -1.170026
      8          1           0       -4.233062   -2.787736    0.855291
      9          1           0       -2.513317   -2.997832    0.493021
     10          1           0       -3.736360   -3.644413   -0.613961
     11          6           0       -3.150286    1.048764   -0.553560
     12          6           0       -2.815539    2.240041    0.344655
     13          6           0       -2.812652    3.568601   -0.412123
     14          1           0       -2.422351    1.002119   -1.375345
     15          1           0       -4.133555    1.211164   -1.015895
     16          1           0       -1.833038    2.074697    0.805055
     17          1           0       -3.543066    2.283606    1.165279
     18          1           0       -3.794042    3.760109   -0.857992
     19          1           0       -2.074298    3.550013   -1.220262
     20          1           0       -2.570999    4.406690    0.248990
     21          6           0        4.612818    0.806527   -0.584234
     22          6           0        3.983853    1.209506    0.598362
     23          6           0        2.792795    0.604664    1.010791
     24          6           0        2.256055   -0.404524    0.212832
     25          6           0        2.858940   -0.828100   -0.970554
     26          6           0        4.049348   -0.209199   -1.363543
     27          1           0        5.537807    1.281842   -0.897068
     28          1           0        4.419170    1.998072    1.205574
     29          1           0        2.284900    0.897156    1.921783
     30          1           0        2.400964   -1.616917   -1.554886
     31          1           0        4.535613   -0.524201   -2.282437
     32          7           0        0.995479   -1.052284    0.639161
     33          8           0        0.542898   -1.939070   -0.081544
     34          8           0        0.483892   -0.660947    1.685952
 ---------------------------------------------------------------------

 SCF Done:  E(RHF) =  -669.537239691     A.U. after   15 cycles
 E2 =    -0.2092381673D+01 EUMP2 =    -0.67162962136395D+03

 The electronic state is 1-A.
 Alpha  occ. eigenvalues --  -20.61224 -20.61218 -15.86200 -11.31440 -11.27985
 Alpha  occ. eigenvalues --  -11.27982 -11.27707 -11.26969 -11.26960 -11.20749
 Alpha  occ. eigenvalues --  -11.20501 -11.20331 -11.20131 -11.19757 -11.19437
 Alpha  occ. eigenvalues --   -1.60249  -1.39806  -1.19594  -1.09016  -1.07207
 Alpha  occ. eigenvalues --   -1.04974  -1.02352  -0.95869  -0.94812  -0.86379
 Alpha  occ. eigenvalues --   -0.85830  -0.82706  -0.78475  -0.77774  -0.76941
 Alpha  occ. eigenvalues --   -0.72407  -0.71556  -0.70701  -0.65248  -0.64978
 Alpha  occ. eigenvalues --   -0.63834  -0.62321  -0.59742  -0.58243  -0.56411
 Alpha  occ. eigenvalues --   -0.55482  -0.54091  -0.53310  -0.53063  -0.51566
 Alpha  occ. eigenvalues --   -0.51230  -0.49247  -0.49188  -0.48692  -0.46774
 Alpha  occ. eigenvalues --   -0.45513  -0.45286  -0.44513  -0.44193  -0.42587
 Alpha  occ. eigenvalues --   -0.37565  -0.36569
 Alpha virt. eigenvalues --    0.04701   0.11086   0.16209   0.21216   0.23963
 Alpha virt. eigenvalues --    0.25514   0.27153   0.27703   0.28185   0.28858
 Alpha virt. eigenvalues --    0.29108   0.30900   0.32209   0.32591   0.32655

 Mulliken charges:
               1
     1  C   -0.310919
     2  C   -0.294836
     3  C   -0.480614
     4  H    0.176808
     5  H    0.143950
     6  H    0.151858
     7  H    0.142953
     8  H    0.148409
     9  H    0.175541
    10  H    0.152352
    11  C   -0.297044
    12  C   -0.299399
    13  C   -0.474716
    14  H    0.144570
    15  H    0.145149
    16  H    0.154050
    17  H    0.151179
    18  H    0.153963
    19  H    0.151510
    20  H    0.156384
    21  C   -0.170164
    22  C   -0.218564
    23  C   -0.170563
    24  C    0.159430
    25  C   -0.170697
    26  C   -0.218627
    27  H    0.226633
    28  H    0.224473
    29  H    0.276240
    30  H    0.276163
    31  H    0.224405
    32  N    0.488012
    33  O   -0.459295
    34  O   -0.458594
 Sum of Mulliken charges =  -0.00000

 Dipole moment (field-independent basis, Debye):
    X=              4.9023    Y=              2.1415    Z=             -1.3665  Tot=              5.5214
 Quadrupole moment (field-independent basis, Debye-Ang):
   XX=            -75.5536   YY=            -97.0930   ZZ=            -92.5883
   XY=              3.3360   XZ=             -3.3083   YZ=              4.3173

 Normal termination of Gaussian 16 at Thu May  6 12:08:59 2021.
