 Gaussian 16, Revision A.03,
 Gaussian 16:  EM64L-G16RevA.03 25-Dec-2016

 -------------
 #p 6-31g* mp2
 -------------

 ------------------------------------------------------
 Input file generated by CHIRIPA (05-May-2021 14:55:22)
 ------------------------------------------------------
 Symbolic Z-matrix:
 Charge =  0 Multiplicity = 1

                         Standard orientation:
 ---------------------------------------------------------------------
 Center     Atomic      Atomic             Coordinates (Angstroms)
 Number     Number       Type             X           Y           Z
 ---------------------------------------------------------------------
      1          6           0       -3.878422    0.936771    1.007134
      2          6           0       -2.846466    0.468820    1.827262
      3          6           0       -1.885941   -0.414503    1.325586
      4          6           0       -1.988157   -0.811046   -0.006929
      5          6           0       -3.004422   -0.362421   -0.849087
      6          6           0       -3.953973    0.520391   -0.326073
      7          1           0       -4.620318    1.622759    1.405137
      8          1           0       -2.785300    0.790493    2.863038
      9          1           0       -1.076538   -0.792311    1.938403
     10          1           0       -3.039139   -0.700921   -1.877499
     11          1           0       -4.754303    0.882180   -0.965312
     12          7           0       -0.977101   -1.745910   -0.549327
     13          8           0       -1.089322   -2.080202   -1.726736
     14          8           0       -0.091560   -2.126663    0.213222
     15          6           0        2.435629    1.530225   -0.040123
     16          6           0        1.217305    1.718004   -0.944784
     17          6           0        0.583089    3.101962   -0.802565
     18          1           0        2.137153    1.692749    1.004598
     19          1           0        3.181166    2.302219   -0.275911
     20          1           0        0.474864    0.945039   -0.708308
     21          1           0        1.518674    1.554827   -1.987456
     22          1           0        1.304722    3.884547   -1.058315
     23          1           0        0.254981    3.271294    0.228101
     24          1           0       -0.286059    3.214566   -1.458128
     25          6           0        3.080637    0.151615   -0.170986
     26          6           0        4.298961   -0.036164    0.733675
     27          6           0        4.933177   -1.420121    0.591456
     28          1           0        2.335100   -0.620378    0.064803
     29          1           0        3.379112   -0.010909   -1.215707
     30          1           0        3.997592    0.127014    1.776347
     31          1           0        5.041402    0.736802    0.497200
     32          1           0        5.261285   -1.589454   -0.439210
     33          1           0        4.211544   -2.202706    0.847206
     34          1           0        5.802325   -1.532725    1.247019
 ---------------------------------------------------------------------

 SCF Done:  E(RHF) =  -669.535955839     A.U. after   15 cycles
 E2 =    -0.2093463699D+01 EUMP2 =    -0.67162941953867D+03

 The electronic state is 1-A.
 Alpha  occ. eigenvalues --  -20.61007 -20.60995 -15.86017 -11.31321 -11.27889
 Alpha  occ. eigenvalues --  -11.27876 -11.27610 -11.26884 -11.26873 -11.21244
 Alpha  occ. eigenvalues --  -11.20916 -11.20868 -11.20866 -11.20378 -11.20256
 Alpha  occ. eigenvalues --   -1.60055  -1.39613  -1.19492  -1.08900  -1.07799
 Alpha  occ. eigenvalues --   -1.04881  -1.02977  -0.95743  -0.95412  -0.86435
 Alpha  occ. eigenvalues --   -0.86283  -0.82578  -0.79070  -0.77662  -0.77532
 Alpha  occ. eigenvalues --   -0.72247  -0.71380  -0.70594  -0.65149  -0.64883
 Alpha  occ. eigenvalues --   -0.64422  -0.62229  -0.60390  -0.58812  -0.57019
 Alpha  occ. eigenvalues --   -0.55383  -0.54710  -0.53201  -0.52973  -0.52160
 Alpha  occ. eigenvalues --   -0.51829  -0.49356  -0.49014  -0.49001  -0.47378
 Alpha  occ. eigenvalues --   -0.46124  -0.45458  -0.45113  -0.44490  -0.43190
 Alpha  occ. eigenvalues --   -0.37435  -0.36476
 Alpha virt. eigenvalues --    0.04844   0.11153   0.16307   0.21260   0.23285
 Alpha virt. eigenvalues --    0.24808   0.26863   0.27303   0.27832   0.28226
 Alpha virt. eigenvalues --    0.28637   0.31053   0.31783   0.32094   0.32369

 Mulliken charges:
               1
     1  C   -0.170125
     2  C   -0.217873
     3  C   -0.171968
     4  C    0.156253
     5  C   -0.171353
     6  C   -0.218226
     7  H    0.226277
     8  H    0.223988
     9  H    0.275464
    10  H    0.276176
    11  H    0.224043
    12  N    0.492111
    13  O   -0.457246
    14  O   -0.460168
    15  C   -0.296679
    16  C   -0.299494
    17  C   -0.473965
    18  H    0.143765
    19  H    0.146991
    20  H    0.147527
    21  H    0.155148
    22  H    0.154968
    23  H    0.151104
    24  H    0.157115
    25  C   -0.310947
    26  C   -0.298158
    27  C   -0.476350
    28  H    0.173901
    29  H    0.149272
    30  H    0.147546
    31  H    0.147666
    32  H    0.154970
    33  H    0.162451
    34  H    0.155815
 Sum of Mulliken charges =  -0.00000

 Dipole moment (field-independent basis, Debye):
    X=             -3.7506    Y=              3.0929    Z=              1.8516  Tot=              5.2021
 Quadrupole moment (field-independent basis, Debye-Ang):
   XX=            -80.4406   YY=           -101.9402   ZZ=            -90.3862
   XY=             -3.4833   XZ=             -2.1810   YZ=             -1.8464

 Normal termination of Gaussian 16 at Thu May  6 10:56:16 2021.
