 Gaussian 16, Revision A.03,
 Gaussian 16:  EM64L-G16RevA.03 25-Dec-2016

 -------------
 #p 6-31g* mp2
 -------------

 ------------------------------------------------------
 Input file generated by CHIRIPA (05-May-2021 14:53:13)
 ------------------------------------------------------
 Symbolic Z-matrix:
 Charge =  0 Multiplicity = 1

                         Standard orientation:
 ---------------------------------------------------------------------
 Center     Atomic      Atomic             Coordinates (Angstroms)
 Number     Number       Type             X           Y           Z
 ---------------------------------------------------------------------
      1          6           0       -2.389469    0.706420   -0.450076
      2          6           0       -2.893459    2.027522   -1.032030
      3          6           0       -1.763308    2.906452   -1.568717
      4          1           0       -1.673091    0.917584    0.355627
      5          1           0       -1.835366    0.159801   -1.225686
      6          1           0       -3.447629    2.570858   -0.255952
      7          1           0       -3.608865    1.813189   -1.836313
      8          1           0       -1.214859    2.387370   -2.361407
      9          1           0       -1.052707    3.149344   -0.772067
     10          1           0       -2.145974    3.845746   -1.979999
     11          6           0       -3.507566   -0.183171    0.090493
     12          6           0       -3.003577   -1.504272    0.672446
     13          6           0       -4.133728   -2.383203    1.209134
     14          1           0       -4.061670    0.363449    0.866103
     15          1           0       -4.223944   -0.394335   -0.715211
     16          1           0       -2.288170   -1.289940    1.476730
     17          1           0       -2.449406   -2.047609   -0.103631
     18          1           0       -4.844329   -2.626095    0.412484
     19          1           0       -4.682177   -1.864120    2.001824
     20          1           0       -3.751062   -3.322497    1.620416
     21          6           0        2.242990    1.839205    1.618962
     22          6           0        1.074158    1.105599    1.390542
     23          6           0        1.095954   -0.028380    0.573128
     24          6           0        2.309382   -0.401962   -0.002474
     25          6           0        3.490707    0.308186    0.205979
     26          6           0        3.445414    1.438863    1.026995
     27          1           0        2.216933    2.718824    2.255348
     28          1           0        0.138914    1.414171    1.848959
     29          1           0        0.205897   -0.614631    0.379416
     30          1           0        4.407973   -0.024059   -0.264821
     31          1           0        4.354698    2.006670    1.202621
     32          7           0        2.344893   -1.600707   -0.869740
     33          8           0        3.426617   -1.909026   -1.365171
     34          8           0        1.290332   -2.209265   -1.037649
 ---------------------------------------------------------------------

 SCF Done:  E(RHF) =  -669.534354418     A.U. after   15 cycles
 E2 =    -0.2093989193D+01 EUMP2 =    -0.67162834361097D+03

 The electronic state is 1-A.
 Alpha  occ. eigenvalues --  -20.60737 -20.60732 -15.85786 -11.31097 -11.27705
 Alpha  occ. eigenvalues --  -11.27610 -11.27458 -11.26704 -11.26687 -11.22031
 Alpha  occ. eigenvalues --  -11.21924 -11.21902 -11.21739 -11.21425 -11.21232
 Alpha  occ. eigenvalues --   -1.59810  -1.39364  -1.19294  -1.08868  -1.08700
 Alpha  occ. eigenvalues --   -1.04700  -1.03866  -0.96325  -0.95536  -0.87335
 Alpha  occ. eigenvalues --   -0.86098  -0.82398  -0.79949  -0.78812  -0.77350
 Alpha  occ. eigenvalues --   -0.72007  -0.71131  -0.70406  -0.65558  -0.64930
 Alpha  occ. eigenvalues --   -0.64699  -0.62069  -0.61252  -0.59686  -0.57925
 Alpha  occ. eigenvalues --   -0.55613  -0.55211  -0.53060  -0.52998  -0.52781
 Alpha  occ. eigenvalues --   -0.52717  -0.50259  -0.48766  -0.48762  -0.48252
 Alpha  occ. eigenvalues --   -0.46977  -0.46207  -0.46099  -0.44777  -0.44149
 Alpha  occ. eigenvalues --   -0.37285  -0.36248
 Alpha virt. eigenvalues --    0.05095   0.11282   0.16494   0.20037   0.22971
 Alpha virt. eigenvalues --    0.23719   0.25101   0.25596   0.27491   0.28240
 Alpha virt. eigenvalues --    0.29865   0.30986   0.31393   0.31626   0.31907

 Mulliken charges:
               1
     1  C   -0.308047
     2  C   -0.299363
     3  C   -0.476314
     4  H    0.139321
     5  H    0.159617
     6  H    0.150423
     7  H    0.155858
     8  H    0.159656
     9  H    0.150996
    10  H    0.161302
    11  C   -0.296596
    12  C   -0.306851
    13  C   -0.475569
    14  H    0.148034
    15  H    0.153882
    16  H    0.143141
    17  H    0.165403
    18  H    0.157688
    19  H    0.153717
    20  H    0.163858
    21  C   -0.170773
    22  C   -0.223500
    23  C   -0.172401
    24  C    0.155453
    25  C   -0.169984
    26  C   -0.219342
    27  H    0.225312
    28  H    0.223533
    29  H    0.287235
    30  H    0.275262
    31  H    0.223149
    32  N    0.488152
    33  O   -0.460518
    34  O   -0.461733
 Sum of Mulliken charges =  -0.00000

 Dipole moment (field-independent basis, Debye):
    X=             -0.2522    Y=              4.1183    Z=              2.9034  Tot=              5.0451
 Quadrupole moment (field-independent basis, Debye-Ang):
   XX=            -90.6425   YY=            -98.9735   ZZ=            -94.6999
   XY=             10.5630   XZ=              7.0220   YZ=             -0.6488

 Normal termination of Gaussian 16 at Thu May  6 08:54:16 2021.
