 Gaussian 16, Revision A.03,
 Gaussian 16:  EM64L-G16RevA.03 25-Dec-2016

 -------------
 #p 6-31g* mp2
 -------------

 ------------------------------------------------------
 Input file generated by CHIRIPA (05-May-2021 14:51:09)
 ------------------------------------------------------
 Symbolic Z-matrix:
 Charge =  0 Multiplicity = 1

                         Standard orientation:
 ---------------------------------------------------------------------
 Center     Atomic      Atomic             Coordinates (Angstroms)
 Number     Number       Type             X           Y           Z
 ---------------------------------------------------------------------
      1          6           0       -1.770916    1.033387   -0.633040
      2          6           0       -1.974532    2.244955    0.277250
      3          6           0       -0.993442    3.379333   -0.020140
      4          1           0       -0.740895    0.667930   -0.521489
      5          1           0       -1.879256    1.348006   -1.680261
      6          1           0       -1.867210    1.927867    1.322503
      7          1           0       -3.004246    2.607452    0.163661
      8          1           0       -1.104400    3.723647   -1.053454
      9          1           0        0.039097    3.040201    0.111971
     10          1           0       -1.156752    4.235298    0.642063
     11          6           0       -2.744278   -0.108979   -0.347917
     12          6           0       -2.540661   -1.320547   -1.258207
     13          6           0       -3.521751   -2.454926   -0.960816
     14          1           0       -2.635938   -0.423598    0.699305
     15          1           0       -3.774298    0.256477   -0.459468
     16          1           0       -1.510948   -1.683044   -1.144618
     17          1           0       -2.647984   -1.003460   -2.303460
     18          1           0       -4.554290   -2.115793   -1.092928
     19          1           0       -3.410794   -2.799239    0.072498
     20          1           0       -3.358442   -3.310891   -1.623020
     21          6           0        1.863989   -0.196363    1.088670
     22          6           0        0.963949   -1.248097    1.738108
     23          6           0        0.183001   -0.701135    2.933410
     24          1           0        2.565227    0.191464    1.840201
     25          1           0        1.248206    0.654952    0.767002
     26          1           0        1.581058   -2.097783    2.057211
     27          1           0        0.264898   -1.633603    0.984896
     28          1           0       -0.456436    0.132940    2.626748
     29          1           0        0.867203   -0.333876    3.705156
     30          1           0       -0.453896   -1.469610    3.382483
     31          6           0        2.651205   -0.728044   -0.107713
     32          6           0        3.551245    0.323689   -0.757151
     33          6           0        4.332192   -0.223273   -1.952453
     34          1           0        3.266987   -1.579359    0.213955
     35          1           0        1.949966   -1.115872   -0.859244
     36          1           0        4.250296    0.709196   -0.003939
     37          1           0        2.934136    1.173375   -1.076254
     38          1           0        3.647991   -0.590530   -2.724199
     39          1           0        4.971630   -1.057347   -1.645791
     40          1           0        4.969090    0.545202   -2.401527
 ---------------------------------------------------------------------

 SCF Done:  E(RHF) =  -470.732764142     A.U. after   11 cycles
 E2 =    -0.1585691948D+01 EUMP2 =    -0.47231845608953D+03

 The electronic state is 1-A.
 Alpha  occ. eigenvalues --  -11.21684 -11.21666 -11.21656 -11.21636 -11.21464
 Alpha  occ. eigenvalues --  -11.21439 -11.21405 -11.21379 -11.21152 -11.21129
 Alpha  occ. eigenvalues --  -11.21102 -11.21088  -1.08565  -1.08423  -1.03600
 Alpha  occ. eigenvalues --   -1.03575  -0.96043  -0.96023  -0.87057  -0.87044
 Alpha  occ. eigenvalues --   -0.79662  -0.79641  -0.78351  -0.78270  -0.65679
 Alpha  occ. eigenvalues --   -0.64654  -0.61049  -0.60902  -0.59405  -0.59391
 Alpha  occ. eigenvalues --   -0.57662  -0.57626  -0.55363  -0.55295  -0.52730
 Alpha  occ. eigenvalues --   -0.52723  -0.52489  -0.52430  -0.50028  -0.49981
 Alpha  occ. eigenvalues --   -0.48031  -0.47956  -0.46747  -0.46652  -0.46198
 Alpha  occ. eigenvalues --   -0.45747  -0.45720  -0.45348  -0.43844  -0.43830
 Alpha virt. eigenvalues --    0.18265   0.21944   0.22603   0.24674   0.25229
 Alpha virt. eigenvalues --    0.25973   0.26608   0.28433   0.29081   0.30198
 Alpha virt. eigenvalues --    0.30387   0.31525   0.31675   0.31956   0.32282

 Mulliken charges:
               1
     1  C   -0.305522
     2  C   -0.303456
     3  C   -0.478802
     4  H    0.156311
     5  H    0.149850
     6  H    0.154783
     7  H    0.152834
     8  H    0.155533
     9  H    0.157089
    10  H    0.160944
    11  C   -0.300087
    12  C   -0.302775
    13  C   -0.475701
    14  H    0.152271
    15  H    0.150046
    16  H    0.153400
    17  H    0.152183
    18  H    0.155427
    19  H    0.155476
    20  H    0.160394
    21  C   -0.306247
    22  C   -0.304128
    23  C   -0.480863
    24  H    0.150776
    25  H    0.155745
    26  H    0.152874
    27  H    0.155558
    28  H    0.159548
    29  H    0.155819
    30  H    0.160326
    31  C   -0.299396
    32  C   -0.299968
    33  C   -0.475792
    34  H    0.150117
    35  H    0.149956
    36  H    0.152141
    37  H    0.152150
    38  H    0.155508
    39  H    0.155196
    40  H    0.160483
 Sum of Mulliken charges =  -0.00000

 Dipole moment (field-independent basis, Debye):
    X=              0.0024    Y=              0.0030    Z=              0.0036  Tot=              0.0053
 Quadrupole moment (field-independent basis, Debye-Ang):
   XX=            -84.4558   YY=            -85.4044   ZZ=            -84.7046
   XY=             -0.9082   XZ=              1.5408   YZ=             -0.5704

 Normal termination of Gaussian 16 at Thu May  6 00:32:30 2021.
