 Gaussian 16, Revision A.03,
 Gaussian 16:  EM64L-G16RevA.03 25-Dec-2016

 -------------
 #p 6-31g* mp2
 -------------

 ------------------------------------------------------
 Input file generated by CHIRIPA (05-May-2021 14:53:12)
 ------------------------------------------------------
 Symbolic Z-matrix:
 Charge =  0 Multiplicity = 1

                         Standard orientation:
 ---------------------------------------------------------------------
 Center     Atomic      Atomic             Coordinates (Angstroms)
 Number     Number       Type             X           Y           Z
 ---------------------------------------------------------------------
      1          6           0       -3.382166   -0.292768    0.099355
      2          6           0       -2.603768   -1.393507    0.820781
      3          6           0       -1.089364   -1.233710    0.683532
      4          1           0       -3.106736   -0.294494   -0.964168
      5          1           0       -3.077877    0.684332    0.499454
      6          1           0       -2.910444   -2.368322    0.420403
      7          1           0       -2.881226   -1.389285    1.882673
      8          1           0       -0.763774   -0.275188    1.100458
      9          1           0       -0.793159   -1.259787   -0.370120
     10          1           0       -0.552475   -2.031141    1.206710
     11          6           0       -4.897420   -0.438820    0.227418
     12          6           0       -5.675818    0.661919   -0.494008
     13          6           0       -7.190222    0.502122   -0.356759
     14          1           0       -5.201709   -1.415920   -0.172681
     15          1           0       -5.172850   -0.437094    1.290941
     16          1           0       -5.398360    0.657697   -1.555900
     17          1           0       -5.369142    1.636734   -0.093630
     18          1           0       -7.486427    0.528199    0.696894
     19          1           0       -7.515812   -0.456400   -0.773685
     20          1           0       -7.727111    1.299553   -0.879936
     21          6           0        4.431642   -1.927279   -0.313307
     22          6           0        5.096774   -0.813154    0.209039
     23          6           0        4.443179    0.418024    0.316578
     24          6           0        3.118450    0.499727   -0.109697
     25          6           0        2.428725   -0.592164   -0.634427
     26          6           0        3.102084   -1.813430   -0.732634
     27          1           0        4.947048   -2.879838   -0.393219
     28          1           0        6.129331   -0.898637    0.535479
     29          1           0        4.934242    1.296550    0.717162
     30          1           0        1.399475   -0.476030   -0.951566
     31          1           0        2.583034   -2.676997   -1.138693
     32          7           0        2.416056    1.797872   -0.000791
     33          8           0        1.248922    1.843747   -0.383323
     34          8           0        3.045953    2.744904    0.465039
 ---------------------------------------------------------------------

 SCF Done:  E(RHF) =  -669.535566664     A.U. after   15 cycles
 E2 =    -0.2091566855D+01 EUMP2 =    -0.67162713351864D+03

 The electronic state is 1-A.
 Alpha  occ. eigenvalues --  -20.60761 -20.60756 -15.85801 -11.31116 -11.27708
 Alpha  occ. eigenvalues --  -11.27642 -11.27450 -11.26714 -11.26691 -11.21520
 Alpha  occ. eigenvalues --  -11.21330 -11.21158 -11.21114 -11.21079 -11.20849
 Alpha  occ. eigenvalues --   -1.59829  -1.39383  -1.19299  -1.08706  -1.08220
 Alpha  occ. eigenvalues --   -1.04697  -1.03376  -0.95847  -0.95537  -0.86876
 Alpha  occ. eigenvalues --   -0.86090  -0.82378  -0.79455  -0.78014  -0.77413
 Alpha  occ. eigenvalues --   -0.72022  -0.71147  -0.70418  -0.64958  -0.64855
 Alpha  occ. eigenvalues --   -0.64704  -0.62072  -0.60768  -0.59201  -0.57431
 Alpha  occ. eigenvalues --   -0.55262  -0.55080  -0.53058  -0.52880  -0.52518
 Alpha  occ. eigenvalues --   -0.52162  -0.49778  -0.48780  -0.48777  -0.47738
 Alpha  occ. eigenvalues --   -0.46461  -0.45564  -0.45468  -0.44772  -0.43618
 Alpha  occ. eigenvalues --   -0.37288  -0.36284
 Alpha virt. eigenvalues --    0.05078   0.11327   0.16565   0.20975   0.23098
 Alpha virt. eigenvalues --    0.24290   0.25890   0.27062   0.27760   0.27987
 Alpha virt. eigenvalues --    0.29309   0.30782   0.31529   0.31885   0.32014

 Mulliken charges:
               1
     1  C   -0.298871
     2  C   -0.299813
     3  C   -0.480182
     4  H    0.149413
     5  H    0.157253
     6  H    0.148886
     7  H    0.152900
     8  H    0.170860
     9  H    0.144319
    10  H    0.155991
    11  C   -0.298431
    12  C   -0.299791
    13  C   -0.475652
    14  H    0.147378
    15  H    0.149294
    16  H    0.152051
    17  H    0.154592
    18  H    0.154901
    19  H    0.153912
    20  H    0.160371
    21  C   -0.170592
    22  C   -0.219003
    23  C   -0.170577
    24  C    0.156581
    25  C   -0.171535
    26  C   -0.221204
    27  H    0.225277
    28  H    0.223093
    29  H    0.275241
    30  H    0.283542
    31  H    0.223276
    32  N    0.487573
    33  O   -0.460642
    34  O   -0.460413
 Sum of Mulliken charges =  -0.00000

 Dipole moment (field-independent basis, Debye):
    X=              2.4472    Y=             -4.4586    Z=             -0.3380  Tot=              5.0973
 Quadrupole moment (field-independent basis, Debye-Ang):
   XX=            -77.5833   YY=            -98.9511   ZZ=            -93.9465
   XY=            -11.5435   XZ=              0.3345   YZ=              1.8052

 Normal termination of Gaussian 16 at Thu May  6 11:59:29 2021.
