 Gaussian 16, Revision A.03,
 Gaussian 16:  EM64L-G16RevA.03 25-Dec-2016

 -------------
 #p 6-31g* mp2
 -------------

 ------------------------------------------------------
 Input file generated by CHIRIPA (05-May-2021 14:51:11)
 ------------------------------------------------------
 Symbolic Z-matrix:
 Charge =  0 Multiplicity = 1

                         Standard orientation:
 ---------------------------------------------------------------------
 Center     Atomic      Atomic             Coordinates (Angstroms)
 Number     Number       Type             X           Y           Z
 ---------------------------------------------------------------------
      1          6           0       -3.715252   -0.319846   -0.187716
      2          6           0       -5.142614   -0.859025   -0.287257
      3          6           0       -5.190546   -2.378623   -0.449487
      4          1           0       -3.156234   -0.611807   -1.087273
      5          1           0       -3.209186   -0.796513    0.663213
      6          1           0       -5.646282   -0.380456   -1.136908
      7          1           0       -5.698355   -0.565583    0.612554
      8          1           0       -4.712596   -2.872306    0.402829
      9          1           0       -4.660228   -2.686127   -1.356573
     10          1           0       -6.220362   -2.742700   -0.518666
     11          6           0       -3.650888    1.197776   -0.025206
     12          6           0       -2.223526    1.736954    0.074335
     13          6           0       -2.175595    3.256552    0.236564
     14          1           0       -4.156954    1.674443   -0.876136
     15          1           0       -4.209907    1.489736    0.874351
     16          1           0       -1.667785    1.443513   -0.825476
     17          1           0       -1.719858    1.258386    0.923986
     18          1           0       -2.705913    3.564057    1.143650
     19          1           0       -2.653544    3.750235   -0.615751
     20          1           0       -1.145778    3.620629    0.305743
     21          6           0        2.931840   -0.367791   -0.011940
     22          6           0        2.085007   -1.209314    0.943413
     23          6           0        0.584270   -1.056291    0.694078
     24          1           0        2.647614    0.688521    0.089865
     25          1           0        2.699911   -0.655550   -1.046735
     26          1           0        2.319473   -0.921018    1.976140
     27          1           0        2.371414   -2.263723    0.839459
     28          1           0        0.329947   -1.362882   -0.325688
     29          1           0        0.277710   -0.012547    0.817451
     30          1           0       -0.002259   -1.666444    1.388021
     31          6           0        4.434301   -0.510138    0.224863
     32          6           0        5.281134    0.331384   -0.730490
     33          6           0        6.781871    0.178361   -0.481156
     34          1           0        4.666230   -0.222380    1.259657
     35          1           0        4.718526   -1.566451    0.123057
     36          1           0        4.994726    1.385795   -0.626538
     37          1           0        5.046667    0.043088   -1.763219
     38          1           0        7.088430   -0.865383   -0.604529
     39          1           0        7.036194    0.484953    0.538610
     40          1           0        7.368400    0.788515   -1.175098
 ---------------------------------------------------------------------

 SCF Done:  E(RHF) =  -470.732988219     A.U. after   11 cycles
 E2 =    -0.1582854071D+01 EUMP2 =    -0.47231584229037D+03

 The electronic state is 1-A.
 Alpha  occ. eigenvalues --  -11.21593 -11.21563 -11.21557 -11.21534 -11.21387
 Alpha  occ. eigenvalues --  -11.21354 -11.21328 -11.21292 -11.21065 -11.21056
 Alpha  occ. eigenvalues --  -11.21041 -11.20966  -1.08414  -1.08380  -1.03524
 Alpha  occ. eigenvalues --   -1.03473  -0.95954  -0.95941  -0.86998  -0.86933
 Alpha  occ. eigenvalues --   -0.79670  -0.79473  -0.78273  -0.78131  -0.65065
 Alpha  occ. eigenvalues --   -0.64995  -0.60976  -0.60829  -0.59347  -0.59299
 Alpha  occ. eigenvalues --   -0.57621  -0.57499  -0.55269  -0.55205  -0.52699
 Alpha  occ. eigenvalues --   -0.52611  -0.52434  -0.52303  -0.49985  -0.49830
 Alpha  occ. eigenvalues --   -0.48090  -0.47681  -0.46718  -0.46470  -0.45894
 Alpha  occ. eigenvalues --   -0.45716  -0.45652  -0.45458  -0.43761  -0.43734
 Alpha virt. eigenvalues --    0.22136   0.23014   0.23837   0.24607   0.25843
 Alpha virt. eigenvalues --    0.26310   0.26794   0.27515   0.27930   0.29446
 Alpha virt. eigenvalues --    0.30247   0.31435   0.31555   0.31836   0.32132

 Mulliken charges:
               1
     1  C   -0.298814
     2  C   -0.299701
     3  C   -0.475551
     4  H    0.149748
     5  H    0.151182
     6  H    0.151737
     7  H    0.151725
     8  H    0.155146
     9  H    0.155089
    10  H    0.160047
    11  C   -0.298037
    12  C   -0.303885
    13  C   -0.475574
    14  H    0.149180
    15  H    0.149195
    16  H    0.152948
    17  H    0.156549
    18  H    0.154963
    19  H    0.155200
    20  H    0.159437
    21  C   -0.298197
    22  C   -0.299981
    23  C   -0.479812
    24  H    0.149480
    25  H    0.149343
    26  H    0.151378
    27  H    0.151561
    28  H    0.155085
    29  H    0.161852
    30  H    0.158867
    31  C   -0.298220
    32  C   -0.299621
    33  C   -0.475689
    34  H    0.149448
    35  H    0.149650
    36  H    0.151867
    37  H    0.151865
    38  H    0.155172
    39  H    0.155163
    40  H    0.160207
 Sum of Mulliken charges =  -0.00000

 Dipole moment (field-independent basis, Debye):
    X=             -0.0112    Y=              0.0040    Z=             -0.0012  Tot=              0.0120
 Quadrupole moment (field-independent basis, Debye-Ang):
   XX=            -86.2303   YY=            -85.4563   ZZ=            -83.3191
   XY=             -0.1958   XZ=             -0.1673   YZ=              0.3050

 Normal termination of Gaussian 16 at Wed May  5 23:06:52 2021.
