 Gaussian 16, Revision A.03,
 Gaussian 16:  EM64L-G16RevA.03 25-Dec-2016

 -------------
 #p 6-31g* mp2
 -------------

 ------------------------------------------------------
 Input file generated by CHIRIPA (05-May-2021 14:51:09)
 ------------------------------------------------------
 Symbolic Z-matrix:
 Charge =  0 Multiplicity = 1

                         Standard orientation:
 ---------------------------------------------------------------------
 Center     Atomic      Atomic             Coordinates (Angstroms)
 Number     Number       Type             X           Y           Z
 ---------------------------------------------------------------------
      1          6           0       -2.645248   -0.663571   -0.440470
      2          6           0       -3.599275    0.360183    0.175764
      3          6           0       -4.446072    1.084273   -0.871338
      4          1           0       -1.987273   -0.156026   -1.159088
      5          1           0       -3.227372   -1.397923   -1.014277
      6          1           0       -3.015641    1.091588    0.749380
      7          1           0       -4.254927   -0.149824    0.893140
      8          1           0       -5.052993    0.369947   -1.437011
      9          1           0       -3.806665    1.618412   -1.581588
     10          1           0       -5.120857    1.811442   -0.409006
     11          6           0       -1.791908   -1.395688    0.593718
     12          6           0       -0.837881   -2.419443   -0.022516
     13          6           0        0.008917   -3.143533    1.024585
     14          1           0       -1.209784   -0.661337    1.167525
     15          1           0       -2.449882   -1.903233    1.312336
     16          1           0       -0.182229   -1.909435   -0.739892
     17          1           0       -1.421515   -3.150847   -0.596132
     18          1           0       -0.630490   -3.677672    1.734836
     19          1           0        0.615837   -2.429206    1.590259
     20          1           0        0.683702   -3.870702    0.562254
     21          6           0        2.352659    0.421611   -0.519079
     22          6           0        3.513701   -0.442733   -0.026253
     23          6           0        3.769681   -1.655270   -0.921810
     24          1           0        1.443958   -0.193298   -0.574701
     25          1           0        2.564825    0.759140   -1.543021
     26          1           0        3.300040   -0.777392    0.996961
     27          1           0        4.419702    0.174352    0.028384
     28          1           0        4.008035   -1.337277   -1.941942
     29          1           0        2.882012   -2.294429   -0.967861
     30          1           0        4.603749   -2.259228   -0.551100
     31          6           0        2.084496    1.637649    0.365832
     32          6           0        0.923455    2.501992   -0.126994
     33          6           0        0.667475    3.714529    0.768562
     34          1           0        1.872331    1.300119    1.389773
     35          1           0        2.993198    2.252558    0.421455
     36          1           0        0.017455    1.884908   -0.181632
     37          1           0        1.137116    2.836652   -1.150208
     38          1           0        1.555145    4.353688    0.814614
     39          1           0        0.429121    3.396537    1.788694
     40          1           0       -0.166593    4.318487    0.397853
 ---------------------------------------------------------------------

 SCF Done:  E(RHF) =  -470.733255709     A.U. after   11 cycles
 E2 =    -0.1584682635D+01 EUMP2 =    -0.47231793834406D+03

 The electronic state is 1-A.
 Alpha  occ. eigenvalues --  -11.21676 -11.21666 -11.21639 -11.21621 -11.21471
 Alpha  occ. eigenvalues --  -11.21450 -11.21406 -11.21381 -11.21154 -11.21127
 Alpha  occ. eigenvalues --  -11.21090 -11.21068  -1.08533  -1.08441  -1.03615
 Alpha  occ. eigenvalues --   -1.03543  -0.96041  -0.96010  -0.87064  -0.87019
 Alpha  occ. eigenvalues --   -0.79683  -0.79605  -0.78370  -0.78234  -0.65491
 Alpha  occ. eigenvalues --   -0.64780  -0.61223  -0.60747  -0.59423  -0.59359
 Alpha  occ. eigenvalues --   -0.57662  -0.57610  -0.55346  -0.55278  -0.52728
 Alpha  occ. eigenvalues --   -0.52707  -0.52499  -0.52406  -0.50039  -0.49902
 Alpha  occ. eigenvalues --   -0.48036  -0.47886  -0.46883  -0.46563  -0.46139
 Alpha  occ. eigenvalues --   -0.45819  -0.45751  -0.45334  -0.43841  -0.43823
 Alpha virt. eigenvalues --    0.18309   0.21224   0.23688   0.25230   0.25815
 Alpha virt. eigenvalues --    0.26132   0.26518   0.27875   0.28577   0.30055
 Alpha virt. eigenvalues --    0.30818   0.31318   0.31503   0.32172   0.32454

 Mulliken charges:
               1
     1  C   -0.299958
     2  C   -0.300652
     3  C   -0.475767
     4  H    0.151115
     5  H    0.150027
     6  H    0.152598
     7  H    0.152105
     8  H    0.155237
     9  H    0.155515
    10  H    0.160413
    11  C   -0.299959
    12  C   -0.305993
    13  C   -0.477436
    14  H    0.149827
    15  H    0.150331
    16  H    0.156515
    17  H    0.153094
    18  H    0.155811
    19  H    0.155728
    20  H    0.161158
    21  C   -0.307630
    22  C   -0.299262
    23  C   -0.478516
    24  H    0.158291
    25  H    0.149540
    26  H    0.152258
    27  H    0.152045
    28  H    0.154945
    29  H    0.158126
    30  H    0.160428
    31  C   -0.297552
    32  C   -0.303755
    33  C   -0.475682
    34  H    0.148963
    35  H    0.150171
    36  H    0.154391
    37  H    0.152287
    38  H    0.155613
    39  H    0.155143
    40  H    0.160487
 Sum of Mulliken charges =  -0.00000

 Dipole moment (field-independent basis, Debye):
    X=             -0.0124    Y=             -0.0121    Z=             -0.0057  Tot=              0.0182
 Quadrupole moment (field-independent basis, Debye-Ang):
   XX=            -84.3367   YY=            -85.0782   ZZ=            -85.1655
   XY=              1.6123   XZ=             -0.6919   YZ=             -0.5061

 Normal termination of Gaussian 16 at Wed May  5 21:20:31 2021.
