 Gaussian 16, Revision A.03,
 Gaussian 16:  EM64L-G16RevA.03 25-Dec-2016

 -------------
 #p 6-31g* mp2
 -------------

 ------------------------------------------------------
 Input file generated by CHIRIPA (05-May-2021 14:51:08)
 ------------------------------------------------------
 Symbolic Z-matrix:
 Charge =  0 Multiplicity = 1

                         Standard orientation:
 ---------------------------------------------------------------------
 Center     Atomic      Atomic             Coordinates (Angstroms)
 Number     Number       Type             X           Y           Z
 ---------------------------------------------------------------------
      1          6           0       -3.384300    0.337677   -0.555178
      2          6           0       -3.378468   -1.187074   -0.669571
      3          6           0       -4.618934   -1.731443   -1.378586
      4          1           0       -4.286382    0.654995   -0.014343
      5          1           0       -3.453565    0.773641   -1.561425
      6          1           0       -3.307840   -1.620020    0.336503
      7          1           0       -2.476199   -1.500812   -1.210029
      8          1           0       -4.691168   -1.327093   -2.393419
      9          1           0       -5.527534   -1.446978   -0.838099
     10          1           0       -4.594126   -2.823335   -1.449410
     11          6           0       -2.150663    0.896910    0.151311
     12          6           0       -2.156495    2.421661    0.265705
     13          6           0       -0.916029    2.966029    0.974720
     14          1           0       -2.081398    0.460946    1.157558
     15          1           0       -1.248581    0.579592   -0.389524
     16          1           0       -3.058764    2.735399    0.806162
     17          1           0       -2.227123    2.854607   -0.740370
     18          1           0       -0.007429    2.681565    0.434233
     19          1           0       -0.843795    2.561680    1.989552
     20          1           0       -0.940837    4.057922    1.045544
     21          6           0        2.243930   -0.551372    0.754183
     22          6           0        1.478996   -1.847868    1.022437
     23          6           0        0.435150   -1.700057    2.129834
     24          1           0        2.734467   -0.224043    1.681100
     25          1           0        1.529549    0.238236    0.482937
     26          1           0        2.194733   -2.635147    1.291749
     27          1           0        0.990381   -2.172251    0.094726
     28          1           0       -0.301054   -0.934061    1.865533
     29          1           0        0.910142   -1.399587    3.069358
     30          1           0       -0.099830   -2.638633    2.305138
     31          6           0        3.291033   -0.683216   -0.350316
     32          6           0        4.055966    0.613281   -0.618570
     33          6           0        5.099813    0.465470   -1.725969
     34          1           0        4.005414   -1.472823   -0.079070
     35          1           0        2.800497   -1.010544   -1.277233
     36          1           0        4.544583    0.937665    0.309140
     37          1           0        3.340230    1.400560   -0.887882
     38          1           0        4.624821    0.165000   -2.665491
     39          1           0        5.836017   -0.300526   -1.461666
     40          1           0        5.634793    1.404046   -1.901270
 ---------------------------------------------------------------------

 SCF Done:  E(RHF) =  -470.733071546     A.U. after   11 cycles
 E2 =    -0.1584000303D+01 EUMP2 =    -0.47231707184892D+03

 The electronic state is 1-A.
 Alpha  occ. eigenvalues --  -11.21669 -11.21642 -11.21594 -11.21533 -11.21484
 Alpha  occ. eigenvalues --  -11.21419 -11.21370 -11.21300 -11.21125 -11.21102
 Alpha  occ. eigenvalues --  -11.21066 -11.20917  -1.08510  -1.08383  -1.03586
 Alpha  occ. eigenvalues --   -1.03478  -0.96045  -0.95921  -0.87059  -0.86940
 Alpha  occ. eigenvalues --   -0.79670  -0.79538  -0.78387  -0.78142  -0.65148
 Alpha  occ. eigenvalues --   -0.65013  -0.60981  -0.60889  -0.59423  -0.59277
 Alpha  occ. eigenvalues --   -0.57706  -0.57495  -0.55350  -0.55203  -0.52725
 Alpha  occ. eigenvalues --   -0.52621  -0.52535  -0.52282  -0.50014  -0.49859
 Alpha  occ. eigenvalues --   -0.48076  -0.47818  -0.46689  -0.46677  -0.46066
 Alpha  occ. eigenvalues --   -0.45722  -0.45706  -0.45287  -0.43844  -0.43738
 Alpha virt. eigenvalues --    0.20196   0.23045   0.23667   0.23994   0.25088
 Alpha virt. eigenvalues --    0.26067   0.26842   0.28028   0.28798   0.29508
 Alpha virt. eigenvalues --    0.31167   0.31405   0.31571   0.31824   0.32114

 Mulliken charges:
               1
     1  C   -0.297723
     2  C   -0.300339
     3  C   -0.475734
     4  H    0.149980
     5  H    0.149614
     6  H    0.153078
     7  H    0.151621
     8  H    0.155177
     9  H    0.155329
    10  H    0.160501
    11  C   -0.305473
    12  C   -0.299207
    13  C   -0.478334
    14  H    0.154637
    15  H    0.151193
    16  H    0.152320
    17  H    0.151990
    18  H    0.156770
    19  H    0.156152
    20  H    0.160793
    21  C   -0.303629
    22  C   -0.298520
    23  C   -0.483566
    24  H    0.149738
    25  H    0.154211
    26  H    0.151526
    27  H    0.151294
    28  H    0.164196
    29  H    0.154000
    30  H    0.159173
    31  C   -0.298120
    32  C   -0.299485
    33  C   -0.475657
    34  H    0.149636
    35  H    0.148999
    36  H    0.152235
    37  H    0.151123
    38  H    0.154979
    39  H    0.155277
    40  H    0.160244
 Sum of Mulliken charges =  -0.00000

 Dipole moment (field-independent basis, Debye):
    X=             -0.0582    Y=              0.0363    Z=              0.0024  Tot=              0.0687
 Quadrupole moment (field-independent basis, Debye-Ang):
   XX=            -85.3077   YY=            -85.0443   ZZ=            -84.3791
   XY=             -0.6386   XZ=              0.2294   YZ=             -0.3984

 Normal termination of Gaussian 16 at Wed May  5 21:19:35 2021.
