 Gaussian 16, Revision A.03,
 Gaussian 16:  EM64L-G16RevA.03 25-Dec-2016

 -------------
 #p 6-31g* mp2
 -------------

 ------------------------------------------------------
 Input file generated by CHIRIPA (05-May-2021 14:51:13)
 ------------------------------------------------------
 Symbolic Z-matrix:
 Charge =  0 Multiplicity = 1

                         Standard orientation:
 ---------------------------------------------------------------------
 Center     Atomic      Atomic             Coordinates (Angstroms)
 Number     Number       Type             X           Y           Z
 ---------------------------------------------------------------------
      1          6           0        3.705784   -0.148781    0.662127
      2          6           0        2.322707    0.100566    0.059708
      3          6           0        1.227696    0.215091    1.120665
      4          1           0        3.676965   -1.068615    1.262143
      5          1           0        3.949153    0.668753    1.354807
      6          1           0        2.082605   -0.716483   -0.632679
      7          1           0        2.354870    1.019811   -0.539099
      8          1           0        1.440351    1.041887    1.806075
      9          1           0        1.166539   -0.704272    1.711964
     10          1           0        0.247241    0.393227    0.668078
     11          6           0        4.811002   -0.265597   -0.386002
     12          6           0        6.194079   -0.514944    0.216417
     13          6           0        7.289089   -0.629469   -0.844540
     14          1           0        4.567633   -1.083131   -1.078682
     15          1           0        4.839820    0.654237   -0.986017
     16          1           0        6.161915   -1.434189    0.815224
     17          1           0        6.434180    0.302105    0.908804
     18          1           0        7.350246    0.289894   -1.435838
     19          1           0        7.076434   -1.456265   -1.529950
     20          1           0        8.269544   -0.807605   -0.391953
     21          6           0       -3.524942    0.409098   -0.069399
     22          6           0       -3.283679    1.902430   -0.292415
     23          6           0       -1.811575    2.290899   -0.151712
     24          1           0       -3.164921    0.131340    0.930691
     25          1           0       -2.923229   -0.163830   -0.788489
     26          1           0       -3.886727    2.472406    0.425971
     27          1           0       -3.644491    2.176704   -1.292017
     28          1           0       -1.198711    1.747948   -0.878487
     29          1           0       -1.442324    2.045330    0.849262
     30          1           0       -1.661817    3.362695   -0.315075
     31          6           0       -4.991844    0.005280   -0.206726
     32          6           0       -5.233106   -1.488052    0.016290
     33          6           0       -6.705209   -1.876522   -0.124413
     34          1           0       -5.593556    0.578209    0.512364
     35          1           0       -5.351865    0.283037   -1.206817
     36          1           0       -4.872294   -1.762325    1.015891
     37          1           0       -4.630059   -2.058027   -0.702096
     38          1           0       -7.074462   -1.630951   -1.125387
     39          1           0       -7.318074   -1.333570    0.602362
     40          1           0       -6.854967   -2.948317    0.038949
 ---------------------------------------------------------------------

 SCF Done:  E(RHF) =  -470.732525869     A.U. after   11 cycles
 E2 =    -0.1582824786D+01 EUMP2 =    -0.47231535065488D+03

 The electronic state is 1-A.
 Alpha  occ. eigenvalues --  -11.21613 -11.21607 -11.21567 -11.21518 -11.21422
 Alpha  occ. eigenvalues --  -11.21362 -11.21351 -11.21289 -11.21075 -11.21062
 Alpha  occ. eigenvalues --  -11.21045 -11.20862  -1.08447  -1.08368  -1.03560
 Alpha  occ. eigenvalues --   -1.03447  -0.96039  -0.95869  -0.87086  -0.86861
 Alpha  occ. eigenvalues --   -0.79664  -0.79480  -0.78261  -0.78185  -0.65074
 Alpha  occ. eigenvalues --   -0.65001  -0.60943  -0.60856  -0.59521  -0.59211
 Alpha  occ. eigenvalues --   -0.57788  -0.57337  -0.55298  -0.55181  -0.52922
 Alpha  occ. eigenvalues --   -0.52684  -0.52395  -0.52038  -0.49962  -0.49822
 Alpha  occ. eigenvalues --   -0.48040  -0.47682  -0.46655  -0.46546  -0.45793
 Alpha  occ. eigenvalues --   -0.45728  -0.45719  -0.45653  -0.43801  -0.43644
 Alpha virt. eigenvalues --    0.22256   0.23003   0.23521   0.24931   0.26484
 Alpha virt. eigenvalues --    0.26651   0.26909   0.27536   0.27753   0.29124
 Alpha virt. eigenvalues --    0.30565   0.31333   0.31514   0.31994   0.32141

 Mulliken charges:
               1
     1  C   -0.298169
     2  C   -0.299495
     3  C   -0.483040
     4  H    0.149470
     5  H    0.149400
     6  H    0.151027
     7  H    0.151861
     8  H    0.153657
     9  H    0.153499
    10  H    0.170679
    11  C   -0.298207
    12  C   -0.299585
    13  C   -0.475661
    14  H    0.149292
    15  H    0.149526
    16  H    0.151853
    17  H    0.151871
    18  H    0.155119
    19  H    0.155089
    20  H    0.160129
    21  C   -0.299373
    22  C   -0.299553
    23  C   -0.480268
    24  H    0.150352
    25  H    0.149347
    26  H    0.151995
    27  H    0.151840
    28  H    0.156182
    29  H    0.160180
    30  H    0.160489
    31  C   -0.298154
    32  C   -0.299690
    33  C   -0.475733
    34  H    0.149651
    35  H    0.149712
    36  H    0.152114
    37  H    0.151928
    38  H    0.155169
    39  H    0.155211
    40  H    0.160286
 Sum of Mulliken charges =  -0.00000

 Dipole moment (field-independent basis, Debye):
    X=             -0.0578    Y=              0.0262    Z=             -0.0030  Tot=              0.0636
 Quadrupole moment (field-independent basis, Debye-Ang):
   XX=            -86.7447   YY=            -83.9089   ZZ=            -84.2380
   XY=             -0.2002   XZ=              0.3232   YZ=              0.1583

 Normal termination of Gaussian 16 at Wed May  5 15:20:46 2021.
