 Gaussian 16, Revision A.03,
 Gaussian 16:  EM64L-G16RevA.03 25-Dec-2016

 -------------
 #p 6-31g* mp2
 -------------

 ------------------------------------------------------
 Input file generated by CHIRIPA (05-May-2021 14:57:24)
 ------------------------------------------------------
 Symbolic Z-matrix:
 Charge =  0 Multiplicity = 1

                         Standard orientation:
 ---------------------------------------------------------------------
 Center     Atomic      Atomic             Coordinates (Angstroms)
 Number     Number       Type             X           Y           Z
 ---------------------------------------------------------------------
      1          6           0       -1.537012    1.754936   -0.527385
      2          6           0       -1.631302    0.646173   -1.374897
      3          6           0       -2.695809   -0.251933   -1.253333
      4          6           0       -3.652592   -0.009655   -0.268874
      5          6           0       -3.586373    1.085901    0.590580
      6          6           0       -2.513127    1.970880    0.450924
      7          1           0       -0.706683    2.447507   -0.628846
      8          1           0       -0.874694    0.475959   -2.135565
      9          1           0       -2.793269   -1.118356   -1.896162
     10          1           0       -4.355942    1.229143    1.339354
     11          1           0       -2.442464    2.831115    1.110505
     12          7           0       -4.784164   -0.953491   -0.130604
     13          8           0       -5.614135   -0.717725    0.744724
     14          8           0       -4.819692   -1.911165   -0.900173
     15          6           0        5.534404   -0.353967   -1.138278
     16          6           0        4.806485    0.840430   -1.129830
     17          6           0        3.658939    0.966980   -0.341369
     18          6           0        3.266139   -0.125786    0.429905
     19          6           0        3.970173   -1.328889    0.442874
     20          6           0        5.114665   -1.432912   -0.353283
     21          1           0        6.424659   -0.443525   -1.753762
     22          1           0        5.130111    1.679998   -1.738466
     23          1           0        3.076693    1.880085   -0.315960
     24          1           0        3.622815   -2.148479    1.060153
     25          1           0        5.678014   -2.361708   -0.357865
     26          7           0        2.052900   -0.003737    1.268686
     27          8           0        1.727739   -0.981098    1.939263
     28          8           0        1.450097    1.066975    1.239665
 ---------------------------------------------------------------------

 SCF Done:  E(RHF) =  -868.338376304     A.U. after   16 cycles
 E2 =    -0.2599439684D+01 EUMP2 =    -0.87093781598775D+03

 The electronic state is 1-A.
 Alpha  occ. eigenvalues --  -20.61518 -20.61469 -20.59992 -20.59982 -15.86535
 Alpha  occ. eigenvalues --  -15.85042 -11.31849 -11.30219 -11.28455 -11.28358
 Alpha  occ. eigenvalues --  -11.28102 -11.27417 -11.27358 -11.26858 -11.26792
 Alpha  occ. eigenvalues --  -11.26482 -11.25811 -11.25698  -1.60553  -1.59069
 Alpha  occ. eigenvalues --   -1.40116  -1.38629  -1.20007  -1.18389  -1.09404
 Alpha  occ. eigenvalues --   -1.07798  -1.05400  -1.03793  -0.96253  -0.94668
 Alpha  occ. eigenvalues --   -0.86799  -0.85197  -0.83093  -0.81527  -0.78155
 Alpha  occ. eigenvalues --   -0.76612  -0.72771  -0.71875  -0.71269  -0.71105
 Alpha  occ. eigenvalues --   -0.70387  -0.69475  -0.65658  -0.65393  -0.64055
 Alpha  occ. eigenvalues --   -0.63821  -0.62752  -0.61174  -0.55882  -0.54258
 Alpha  occ. eigenvalues --   -0.53732  -0.53487  -0.52087  -0.51909  -0.49527
 Alpha  occ. eigenvalues --   -0.49486  -0.48030  -0.48009  -0.45529  -0.44078
 Alpha  occ. eigenvalues --   -0.37975  -0.37005  -0.36254  -0.35392
 Alpha virt. eigenvalues --    0.04344   0.05989   0.10648   0.12276   0.15852
 Alpha virt. eigenvalues --    0.17552   0.20696   0.22258   0.26536   0.27391
 Alpha virt. eigenvalues --    0.28142   0.29079   0.30577   0.31414   0.32940

 Mulliken charges:
               1
     1  C   -0.152699
     2  C   -0.221511
     3  C   -0.170316
     4  C    0.157869
     5  C   -0.170128
     6  C   -0.215636
     7  H    0.225136
     8  H    0.215828
     9  H    0.271536
    10  H    0.273354
    11  H    0.222876
    12  N    0.488481
    13  O   -0.462285
    14  O   -0.463881
    15  C   -0.170552
    16  C   -0.218257
    17  C   -0.172917
    18  C    0.158506
    19  C   -0.170598
    20  C   -0.218220
    21  H    0.227751
    22  H    0.224055
    23  H    0.269898
    24  H    0.278054
    25  H    0.226147
    26  N    0.489615
    27  O   -0.454038
    28  O   -0.468071
 Sum of Mulliken charges =  -0.00000

 Dipole moment (field-independent basis, Debye):
    X=              8.6077    Y=              2.8787    Z=             -3.2902  Tot=              9.6543
 Quadrupole moment (field-independent basis, Debye-Ang):
   XX=           -106.7062   YY=            -99.3327   ZZ=           -104.9222
   XY=            -16.7179   XZ=             -9.0077   YZ=             -0.1219

 Normal termination of Gaussian 16 at Fri May  7 04:59:46 2021.
