 Gaussian 16, Revision A.03,
 Gaussian 16:  EM64L-G16RevA.03 25-Dec-2016

 -------------
 #p 6-31g* mp2
 -------------

 ------------------------------------------------------
 Input file generated by CHIRIPA (05-May-2021 14:57:24)
 ------------------------------------------------------
 Symbolic Z-matrix:
 Charge =  0 Multiplicity = 1

                         Standard orientation:
 ---------------------------------------------------------------------
 Center     Atomic      Atomic             Coordinates (Angstroms)
 Number     Number       Type             X           Y           Z
 ---------------------------------------------------------------------
      1          6           0       -2.212873    2.051279   -0.277575
      2          6           0       -1.719546    0.874035    0.294480
      3          6           0       -2.532302   -0.258521    0.400749
      4          6           0       -3.839270   -0.178313   -0.077469
      5          6           0       -4.359783    0.980028   -0.652449
      6          6           0       -3.529096    2.100431   -0.748384
      7          1           0       -1.574540    2.926356   -0.356113
      8          1           0       -0.697759    0.832974    0.660962
      9          1           0       -2.175974   -1.182765    0.839179
     10          1           0       -5.382658    0.990518   -1.008870
     11          1           0       -3.914902    3.013346   -1.193115
     12          7           0       -4.709189   -1.370867    0.029563
     13          8           0       -5.856994   -1.274503   -0.399267
     14          8           0       -4.226755   -2.379373    0.540258
     15          6           0        2.380753    1.961530    0.941781
     16          6           0        3.370355    2.142434   -0.030064
     17          6           0        4.105247    1.052712   -0.506494
     18          6           0        3.823040   -0.209630    0.013256
     19          6           0        2.843405   -0.422095    0.982001
     20          6           0        2.120894    0.682098    1.443826
     21          1           0        1.814680    2.813673    1.306211
     22          1           0        3.574319    3.134912   -0.421767
     23          1           0        4.876949    1.164328   -1.258449
     24          1           0        2.662795   -1.423518    1.353417
     25          1           0        1.352942    0.538625    2.198618
     26          7           0        4.594483   -1.370931   -0.483389
     27          8           0        4.326684   -2.472864   -0.009402
     28          8           0        5.452333   -1.157236   -1.337242
 ---------------------------------------------------------------------

 SCF Done:  E(RHF) =  -868.336561270     A.U. after   16 cycles
 E2 =    -0.2600802636D+01 EUMP2 =    -0.87093736390515D+03

 The electronic state is 1-A.
 Alpha  occ. eigenvalues --  -20.61379 -20.61373 -20.61058 -20.61053 -15.86441
 Alpha  occ. eigenvalues --  -15.86115 -11.32044 -11.31581 -11.28679 -11.28630
 Alpha  occ. eigenvalues --  -11.28524 -11.28174 -11.28144 -11.27970 -11.27792
 Alpha  occ. eigenvalues --  -11.27688 -11.27200 -11.27190  -1.60449  -1.60131
 Alpha  occ. eigenvalues --   -1.39995  -1.39682  -1.20267  -1.19767  -1.09634
 Alpha  occ. eigenvalues --   -1.09153  -1.05707  -1.05186  -0.96414  -0.95970
 Alpha  occ. eigenvalues --   -0.87116  -0.86577  -0.83239  -0.82800  -0.78237
 Alpha  occ. eigenvalues --   -0.77819  -0.72656  -0.72332  -0.71775  -0.71455
 Alpha  occ. eigenvalues --   -0.71388  -0.70906  -0.65935  -0.65814  -0.65425
 Alpha  occ. eigenvalues --   -0.65135  -0.63057  -0.62499  -0.56238  -0.55724
 Alpha  occ. eigenvalues --   -0.54088  -0.53815  -0.53506  -0.53179  -0.49434
 Alpha  occ. eigenvalues --   -0.49394  -0.49098  -0.49081  -0.45347  -0.45065
 Alpha  occ. eigenvalues --   -0.38280  -0.37767  -0.37296  -0.36783
 Alpha virt. eigenvalues --    0.04304   0.04715   0.10116   0.10849   0.15689
 Alpha virt. eigenvalues --    0.16168   0.19304   0.21889   0.25411   0.26382
 Alpha virt. eigenvalues --    0.27959   0.28876   0.29671   0.31140   0.31926

 Mulliken charges:
               1
     1  C   -0.172977
     2  C   -0.222896
     3  C   -0.172873
     4  C    0.159582
     5  C   -0.170631
     6  C   -0.217874
     7  H    0.221168
     8  H    0.224239
     9  H    0.275387
    10  H    0.276991
    11  H    0.224066
    12  N    0.488040
    13  O   -0.459226
    14  O   -0.459319
    15  C   -0.174085
    16  C   -0.217861
    17  C   -0.168533
    18  C    0.159554
    19  C   -0.170203
    20  C   -0.226589
    21  H    0.224188
    22  H    0.225645
    23  H    0.279028
    24  H    0.279499
    25  H    0.222788
    26  N    0.487990
    27  O   -0.457225
    28  O   -0.457875
 Sum of Mulliken charges =  -0.00000

 Dipole moment (field-independent basis, Debye):
    X=              0.5722    Y=              8.1792    Z=              1.2624  Tot=              8.2959
 Quadrupole moment (field-independent basis, Debye-Ang):
   XX=           -144.1948   YY=           -105.7370   ZZ=           -103.1575
   XY=             -0.8758   XZ=              7.9012   YZ=             -4.1360

 Normal termination of Gaussian 16 at Thu May  6 06:40:45 2021.
