 Gaussian 16, Revision A.03,
 Gaussian 16:  EM64L-G16RevA.03 25-Dec-2016

 -------------
 #p 6-31g* mp2
 -------------

 ------------------------------------------------------
 Input file generated by CHIRIPA (05-May-2021 14:55:21)
 ------------------------------------------------------
 Symbolic Z-matrix:
 Charge =  0 Multiplicity = 1

                         Standard orientation:
 ---------------------------------------------------------------------
 Center     Atomic      Atomic             Coordinates (Angstroms)
 Number     Number       Type             X           Y           Z
 ---------------------------------------------------------------------
      1          6           0        3.204138    2.507786   -0.707348
      2          6           0        3.475783    1.365014   -1.466822
      3          6           0        3.177540    0.093513   -0.967939
      4          6           0        2.605542    0.001136    0.299962
      5          6           0        2.322999    1.120865    1.080773
      6          6           0        2.629626    2.382286    0.561788
      7          1           0        3.439077    3.491604   -1.102700
      8          1           0        3.921919    1.459458   -2.452767
      9          1           0        3.377341   -0.807810   -1.534610
     10          1           0        1.877876    0.994887    2.060269
     11          1           0        2.417563    3.268036    1.153838
     12          7           0        2.285368   -1.339610    0.838748
     13          8           0        1.781769   -1.394120    1.958593
     14          8           0        2.544078   -2.310589    0.131001
     15          6           0       -2.760257   -0.481030   -0.633712
     16          6           0       -2.356103   -1.937874   -0.405127
     17          6           0       -1.069054   -2.316365   -1.138641
     18          1           0       -2.885747   -0.306706   -1.711120
     19          1           0       -1.942759    0.175034   -0.304058
     20          1           0       -3.174677   -2.590946   -0.733833
     21          1           0       -2.231748   -2.108800    0.671877
     22          1           0       -0.236380   -1.689103   -0.804279
     23          1           0       -1.184667   -2.173989   -2.217976
     24          1           0       -0.798608   -3.361980   -0.961415
     25          6           0       -4.045018   -0.087563    0.093132
     26          6           0       -4.449173    1.369281   -0.135453
     27          6           0       -5.736222    1.747772    0.598061
     28          1           0       -4.862517   -0.743627   -0.236523
     29          1           0       -3.919529   -0.261888    1.170540
     30          1           0       -4.573528    1.540207   -1.212457
     31          1           0       -3.630599    2.022353    0.193253
     32          1           0       -5.620609    1.605395    1.677396
     33          1           0       -6.568896    1.120509    0.263699
     34          1           0       -6.006667    2.793386    0.420835
 ---------------------------------------------------------------------

 SCF Done:  E(RHF) =  -669.535611187     A.U. after   15 cycles
 E2 =    -0.2091559589D+01 EUMP2 =    -0.67162717077537D+03

 The electronic state is 1-A.
 Alpha  occ. eigenvalues --  -20.60841 -20.60829 -15.85872 -11.31245 -11.27814
 Alpha  occ. eigenvalues --  -11.27803 -11.27550 -11.26823 -11.26810 -11.21465
 Alpha  occ. eigenvalues --  -11.21110 -11.21024 -11.20966 -11.20960 -11.20325
 Alpha  occ. eigenvalues --   -1.59910  -1.39461  -1.19414  -1.08812  -1.08087
 Alpha  occ. eigenvalues --   -1.04813  -1.03140  -0.95647  -0.95584  -0.86602
 Alpha  occ. eigenvalues --   -0.86212  -0.82475  -0.79221  -0.77892  -0.77524
 Alpha  occ. eigenvalues --   -0.72098  -0.71257  -0.70518  -0.65066  -0.64815
 Alpha  occ. eigenvalues --   -0.64718  -0.62160  -0.60534  -0.58968  -0.57188
 Alpha  occ. eigenvalues --   -0.55315  -0.54880  -0.53144  -0.52905  -0.52247
 Alpha  occ. eigenvalues --   -0.52021  -0.49558  -0.48856  -0.48853  -0.47537
 Alpha  occ. eigenvalues --   -0.46281  -0.45443  -0.45363  -0.44804  -0.43385
 Alpha  occ. eigenvalues --   -0.37394  -0.36414
 Alpha virt. eigenvalues --    0.05000   0.11225   0.16473   0.21375   0.23140
 Alpha virt. eigenvalues --    0.24593   0.26861   0.27281   0.27749   0.28115
 Alpha virt. eigenvalues --    0.28422   0.30761   0.31639   0.32115   0.32496

 Mulliken charges:
               1
     1  C   -0.170532
     2  C   -0.218435
     3  C   -0.170889
     4  C    0.155674
     5  C   -0.171493
     6  C   -0.218527
     7  H    0.225880
     8  H    0.223800
     9  H    0.276419
    10  H    0.275576
    11  H    0.223624
    12  N    0.488582
    13  O   -0.459964
    14  O   -0.457535
    15  C   -0.297245
    16  C   -0.301668
    17  C   -0.470470
    18  H    0.147088
    19  H    0.146495
    20  H    0.149672
    21  H    0.158239
    22  H    0.150337
    23  H    0.148624
    24  H    0.169255
    25  C   -0.298234
    26  C   -0.298803
    27  C   -0.475485
    28  H    0.149483
    29  H    0.151001
    30  H    0.150840
    31  H    0.149221
    32  H    0.155382
    33  H    0.155571
    34  H    0.158518
 Sum of Mulliken charges =  -0.00000

 Dipole moment (field-independent basis, Debye):
    X=              1.2442    Y=              4.6218    Z=             -1.8573  Tot=              5.1341
 Quadrupole moment (field-independent basis, Debye-Ang):
   XX=            -89.8040   YY=            -94.1650   ZZ=            -92.2612
   XY=             12.3856   XZ=             -5.7379   YZ=              3.3909

 Normal termination of Gaussian 16 at Thu May  6 19:09:13 2021.
