 Gaussian 16, Revision A.03,
 Gaussian 16:  EM64L-G16RevA.03 25-Dec-2016

 -------------
 #p 6-31g* mp2
 -------------

 ------------------------------------------------------
 Input file generated by CHIRIPA (05-May-2021 14:53:17)
 ------------------------------------------------------
 Symbolic Z-matrix:
 Charge =  0 Multiplicity = 1

                         Standard orientation:
 ---------------------------------------------------------------------
 Center     Atomic      Atomic             Coordinates (Angstroms)
 Number     Number       Type             X           Y           Z
 ---------------------------------------------------------------------
      1          6           0        3.521798   -0.316599   -0.352574
      2          6           0        2.827487   -1.573840   -0.877230
      3          6           0        3.807468   -2.707954   -1.179248
      4          1           0        4.260403    0.022257   -1.091887
      5          1           0        4.083567   -0.569085    0.557405
      6          1           0        2.266071   -1.318759   -1.785173
      7          1           0        2.090314   -1.909632   -0.136665
      8          1           0        4.359240   -2.990821   -0.276954
      9          1           0        4.535995   -2.396591   -1.934829
     10          1           0        3.289876   -3.596901   -1.553056
     11          6           0        2.555279    0.826038   -0.046065
     12          6           0        3.249590    2.083278    0.478591
     13          6           0        2.269609    3.217393    0.780610
     14          1           0        1.993510    1.078524   -0.956044
     15          1           0        1.816674    0.487182    0.693249
     16          1           0        3.986763    2.419071   -0.261973
     17          1           0        3.811006    1.828198    1.386535
     18          1           0        1.541082    2.906029    1.536190
     19          1           0        1.717837    3.500260   -0.121684
     20          1           0        2.787201    4.106340    1.154418
     21          6           0       -1.292047   -1.946739    1.618938
     22          6           0       -0.757765   -0.655419    1.559307
     23          6           0       -1.348913    0.320969    0.751989
     24          6           0       -2.478444   -0.030035    0.014260
     25          6           0       -3.034285   -1.307872    0.052482
     26          6           0       -2.426601   -2.268278    0.866663
     27          1           0       -0.826407   -2.699013    2.248748
     28          1           0        0.123266   -0.402873    2.142445
     29          1           0       -0.956046    1.328375    0.687127
     30          1           0       -3.913373   -1.529754   -0.540301
     31          1           0       -2.843708   -3.270326    0.911013
     32          7           0       -3.113018    0.995163   -0.844044
     33          8           0       -4.107434    0.660714   -1.484291
     34          8           0       -2.603966    2.113751   -0.860283
 ---------------------------------------------------------------------

 SCF Done:  E(RHF) =  -669.534993737     A.U. after   15 cycles
 E2 =    -0.2093106782D+01 EUMP2 =    -0.67162810051844D+03

 The electronic state is 1-A.
 Alpha  occ. eigenvalues --  -20.60756 -20.60750 -15.85809 -11.31174 -11.27754
 Alpha  occ. eigenvalues --  -11.27732 -11.27514 -11.26772 -11.26763 -11.22029
 Alpha  occ. eigenvalues --  -11.21998 -11.21898 -11.21815 -11.21478 -11.21451
 Alpha  occ. eigenvalues --   -1.59831  -1.39384  -1.19358  -1.08900  -1.08752
 Alpha  occ. eigenvalues --   -1.04766  -1.03953  -0.96408  -0.95585  -0.87420
 Alpha  occ. eigenvalues --   -0.86163  -0.82432  -0.80008  -0.78747  -0.77441
 Alpha  occ. eigenvalues --   -0.72028  -0.71154  -0.70465  -0.65603  -0.65009
 Alpha  occ. eigenvalues --   -0.64743  -0.62128  -0.61339  -0.59767  -0.58017
 Alpha  occ. eigenvalues --   -0.55714  -0.55269  -0.53170  -0.53027  -0.52927
 Alpha  occ. eigenvalues --   -0.52740  -0.50348  -0.48790  -0.48781  -0.48322
 Alpha  occ. eigenvalues --   -0.47049  -0.46254  -0.46161  -0.44789  -0.44215
 Alpha  occ. eigenvalues --   -0.37335  -0.36304
 Alpha virt. eigenvalues --    0.05054   0.11188   0.16436   0.19544   0.22884
 Alpha virt. eigenvalues --    0.23424   0.25490   0.26343   0.26973   0.28474
 Alpha virt. eigenvalues --    0.29730   0.30565   0.31355   0.31572   0.31965

 Mulliken charges:
               1
     1  C   -0.298602
     2  C   -0.300055
     3  C   -0.476038
     4  H    0.152738
     5  H    0.147458
     6  H    0.155745
     7  H    0.147748
     8  H    0.153683
     9  H    0.157279
    10  H    0.160492
    11  C   -0.302733
    12  C   -0.299971
    13  C   -0.477794
    14  H    0.156017
    15  H    0.141443
    16  H    0.155534
    17  H    0.150376
    18  H    0.146658
    19  H    0.163701
    20  H    0.163977
    21  C   -0.172020
    22  C   -0.218229
    23  C   -0.169801
    24  C    0.157384
    25  C   -0.170537
    26  C   -0.218730
    27  H    0.225602
    28  H    0.223238
    29  H    0.279285
    30  H    0.275583
    31  H    0.223448
    32  N    0.487986
    33  O   -0.460585
    34  O   -0.460278
 Sum of Mulliken charges =  -0.00000

 Dipole moment (field-independent basis, Debye):
    X=              2.2825    Y=             -3.5416    Z=              2.8987  Tot=              5.1142
 Quadrupole moment (field-independent basis, Debye-Ang):
   XX=           -104.0637   YY=            -93.0903   ZZ=            -94.1331
   XY=             12.4539   XZ=             -6.6207   YZ=              0.2140

 Normal termination of Gaussian 16 at Thu May  6 10:41:51 2021.
