 Gaussian 16, Revision A.03,
 Gaussian 16:  EM64L-G16RevA.03 25-Dec-2016

 -------------
 #p 6-31g* mp2
 -------------

 ------------------------------------------------------
 Input file generated by CHIRIPA (05-May-2021 14:57:25)
 ------------------------------------------------------
 Symbolic Z-matrix:
 Charge =  0 Multiplicity = 1

                         Standard orientation:
 ---------------------------------------------------------------------
 Center     Atomic      Atomic             Coordinates (Angstroms)
 Number     Number       Type             X           Y           Z
 ---------------------------------------------------------------------
      1          6           0       -4.910133    0.706163    0.436092
      2          6           0       -3.890462    1.469464   -0.141976
      3          6           0       -2.687068    0.871188   -0.527276
      4          6           0       -2.536530   -0.498929   -0.318925
      5          6           0       -3.533763   -1.286315    0.254519
      6          6           0       -4.728849   -0.666870    0.632149
      7          1           0       -5.841732    1.179141    0.732424
      8          1           0       -4.028467    2.535976   -0.295440
      9          1           0       -1.881180    1.438382   -0.977002
     10          1           0       -3.366877   -2.347392    0.394816
     11          1           0       -5.519011   -1.262146    1.080853
     12          7           0       -1.266948   -1.143502   -0.722765
     13          8           0       -1.159074   -2.352328   -0.528499
     14          8           0       -0.403764   -0.427688   -1.225915
     15          6           0        1.377260    2.511941    0.295873
     16          6           0        2.388196    2.350938   -0.657336
     17          6           0        3.152724    1.180926   -0.690767
     18          6           0        2.878076    0.187814    0.248161
     19          6           0        1.877698    0.318548    1.210161
     20          6           0        1.125680    1.497022    1.224941
     21          1           0        0.788215    3.424120    0.314599
     22          1           0        2.585795    3.137465   -1.380090
     23          1           0        3.941395    1.030097   -1.417861
     24          1           0        1.704105   -0.483119    1.917701
     25          1           0        0.341206    1.619314    1.966352
     26          7           0        3.680824   -1.055304    0.222642
     27          8           0        3.419117   -1.915363    1.060762
     28          8           0        4.556527   -1.146062   -0.634998
 ---------------------------------------------------------------------

 SCF Done:  E(RHF) =  -868.336479678     A.U. after   16 cycles
 E2 =    -0.2602414943D+01 EUMP2 =    -0.87093889462163D+03

 The electronic state is 1-A.
 Alpha  occ. eigenvalues --  -20.61055 -20.61021 -20.59752 -20.59734 -15.86066
 Alpha  occ. eigenvalues --  -15.84801 -11.31598 -11.30192 -11.28206 -11.28143
 Alpha  occ. eigenvalues --  -11.27929 -11.27246 -11.27180 -11.26822 -11.26819
 Alpha  occ. eigenvalues --  -11.26731 -11.25959 -11.25931  -1.60108  -1.58807
 Alpha  occ. eigenvalues --   -1.39656  -1.38366  -1.19781  -1.18396  -1.09142
 Alpha  occ. eigenvalues --   -1.07835  -1.05203  -1.03864  -0.95952  -0.94664
 Alpha  occ. eigenvalues --   -0.86587  -0.85293  -0.82782  -0.81523  -0.77811
 Alpha  occ. eigenvalues --   -0.76519  -0.72302  -0.71462  -0.71048  -0.70870
 Alpha  occ. eigenvalues --   -0.70089  -0.69658  -0.65424  -0.65198  -0.64128
 Alpha  occ. eigenvalues --   -0.63958  -0.62543  -0.61250  -0.55681  -0.54493
 Alpha  occ. eigenvalues --   -0.53534  -0.53289  -0.52122  -0.52031  -0.49090
 Alpha  occ. eigenvalues --   -0.49027  -0.47803  -0.47783  -0.44992  -0.43769
 Alpha  occ. eigenvalues --   -0.37770  -0.36844  -0.36361  -0.35361
 Alpha virt. eigenvalues --    0.04712   0.06040   0.10765   0.12254   0.16179
 Alpha virt. eigenvalues --    0.17428   0.20935   0.22021   0.26781   0.27743
 Alpha virt. eigenvalues --    0.27931   0.29019   0.30533   0.31454   0.32219

 Mulliken charges:
               1
     1  C   -0.171080
     2  C   -0.219543
     3  C   -0.174309
     4  C    0.157123
     5  C   -0.171225
     6  C   -0.218536
     7  H    0.226445
     8  H    0.221762
     9  H    0.273808
    10  H    0.278118
    11  H    0.225240
    12  N    0.486256
    13  O   -0.456182
    14  O   -0.457731
    15  C   -0.172133
    16  C   -0.215385
    17  C   -0.166299
    18  C    0.171008
    19  C   -0.163111
    20  C   -0.216966
    21  H    0.215545
    22  H    0.218558
    23  H    0.273698
    24  H    0.273728
    25  H    0.215695
    26  N    0.488932
    27  O   -0.460288
    28  O   -0.463127
 Sum of Mulliken charges =  -0.00000

 Dipole moment (field-independent basis, Debye):
    X=             -7.3151    Y=              6.3289    Z=              1.4057  Tot=              9.7746
 Quadrupole moment (field-independent basis, Debye-Ang):
   XX=            -97.4540   YY=           -102.2190   ZZ=           -103.4240
   XY=             11.2923   XZ=             -5.9146   YZ=             -3.7033

 Normal termination of Gaussian 16 at Thu May  6 05:09:29 2021.
