 Gaussian 16, Revision A.03,
 Gaussian 16:  EM64L-G16RevA.03 25-Dec-2016

 -------------
 #p 6-31g* mp2
 -------------

 ------------------------------------------------------
 Input file generated by CHIRIPA (05-May-2021 14:57:21)
 ------------------------------------------------------
 Symbolic Z-matrix:
 Charge =  0 Multiplicity = 1

                         Standard orientation:
 ---------------------------------------------------------------------
 Center     Atomic      Atomic             Coordinates (Angstroms)
 Number     Number       Type             X           Y           Z
 ---------------------------------------------------------------------
      1          6           0        2.465133    2.133341    0.868259
      2          6           0        3.819711    2.158642    0.520409
      3          6           0        4.470580    0.989676    0.114901
      4          6           0        3.733093   -0.192377    0.068509
      5          6           0        2.382476   -0.249816    0.408840
      6          6           0        1.752096    0.931312    0.811464
      7          1           0        1.967480    3.046146    1.182147
      8          1           0        4.375969    3.090715    0.563574
      9          1           0        5.518351    0.980825   -0.159898
     10          1           0        1.854353   -1.194114    0.355878
     11          1           0        0.700019    0.908682    1.081032
     12          7           0        4.411293   -1.436347   -0.359258
     13          8           0        3.739293   -2.464937   -0.391742
     14          8           0        5.602025   -1.359225   -0.653956
     15          6           0       -2.649379    2.212839   -0.823470
     16          6           0       -1.831837    1.079227   -0.768067
     17          6           0       -2.359600   -0.158995   -0.390152
     18          6           0       -3.715281   -0.227796   -0.072839
     19          6           0       -4.555538    0.883588   -0.118499
     20          6           0       -4.006228    2.111580   -0.499080
     21          1           0       -2.231031    3.170746   -1.118079
     22          1           0       -0.777736    1.154897   -1.019448
     23          1           0       -1.749381   -1.052537   -0.338843
     24          1           0       -5.602596    0.776885    0.137825
     25          1           0       -4.643521    2.990287   -0.541225
     26          7           0       -4.285405   -1.533230    0.328655
     27          8           0       -5.482902   -1.567443    0.603366
     28          8           0       -3.523976   -2.497499    0.361033
 ---------------------------------------------------------------------

 SCF Done:  E(RHF) =  -868.337059211     A.U. after   16 cycles
 E2 =    -0.2600506920D+01 EUMP2 =    -0.87093756613135D+03

 The electronic state is 1-A.
 Alpha  occ. eigenvalues --  -20.61214 -20.61208 -20.61175 -20.61168 -15.86274
 Alpha  occ. eigenvalues --  -15.86234 -11.31803 -11.31770 -11.28435 -11.28397
 Alpha  occ. eigenvalues --  -11.28369 -11.28348 -11.28169 -11.28161 -11.27436
 Alpha  occ. eigenvalues --  -11.27416 -11.27402 -11.27381  -1.60287  -1.60247
 Alpha  occ. eigenvalues --   -1.39836  -1.39796  -1.20001  -1.19968  -1.09364
 Alpha  occ. eigenvalues --   -1.09327  -1.05467  -1.05366  -0.96165  -0.96135
 Alpha  occ. eigenvalues --   -0.86871  -0.86726  -0.83047  -0.82917  -0.78088
 Alpha  occ. eigenvalues --   -0.77910  -0.72485  -0.72446  -0.71615  -0.71576
 Alpha  occ. eigenvalues --   -0.71107  -0.71066  -0.65676  -0.65632  -0.65609
 Alpha  occ. eigenvalues --   -0.65193  -0.62941  -0.62537  -0.55941  -0.55868
 Alpha  occ. eigenvalues --   -0.53864  -0.53747  -0.53560  -0.53255  -0.49260
 Alpha  occ. eigenvalues --   -0.49234  -0.49217  -0.49193  -0.45205  -0.45163
 Alpha  occ. eigenvalues --   -0.38013  -0.37939  -0.37108  -0.36936
 Alpha virt. eigenvalues --    0.04492   0.04557   0.10354   0.10760   0.15768
 Alpha virt. eigenvalues --    0.15970   0.19891   0.21645   0.25373   0.27132
 Alpha virt. eigenvalues --    0.27714   0.28908   0.29985   0.30771   0.31457

 Mulliken charges:
               1
     1  C   -0.173373
     2  C   -0.218228
     3  C   -0.169636
     4  C    0.159525
     5  C   -0.173797
     6  C   -0.228682
     7  H    0.225453
     8  H    0.225156
     9  H    0.277891
    10  H    0.277365
    11  H    0.227220
    12  N    0.487874
    13  O   -0.457818
    14  O   -0.458796
    15  C   -0.172701
    16  C   -0.227896
    17  C   -0.174697
    18  C    0.159768
    19  C   -0.169790
    20  C   -0.218144
    21  H    0.225711
    22  H    0.227505
    23  H    0.275678
    24  H    0.277961
    25  H    0.225389
    26  N    0.487889
    27  O   -0.458487
    28  O   -0.458340
 Sum of Mulliken charges =  -0.00000

 Dipole moment (field-independent basis, Debye):
    X=             -0.3828    Y=              8.9350    Z=              0.0877  Tot=              8.9436
 Quadrupole moment (field-independent basis, Debye-Ang):
   XX=           -128.4787   YY=           -107.1592   ZZ=           -105.9286
   XY=             -0.4824   XZ=              9.5503   YZ=             -0.0908

 Normal termination of Gaussian 16 at Thu May  6 00:08:38 2021.
