 Gaussian 16, Revision A.03,
 Gaussian 16:  EM64L-G16RevA.03 25-Dec-2016

 -------------
 #p 6-31g* mp2
 -------------

 ------------------------------------------------------
 Input file generated by CHIRIPA (05-May-2021 14:51:11)
 ------------------------------------------------------
 Symbolic Z-matrix:
 Charge =  0 Multiplicity = 1

                         Standard orientation:
 ---------------------------------------------------------------------
 Center     Atomic      Atomic             Coordinates (Angstroms)
 Number     Number       Type             X           Y           Z
 ---------------------------------------------------------------------
      1          6           0       -2.324053   -1.132103    0.010164
      2          6           0       -1.397084   -1.158217    1.225907
      3          6           0       -0.164686   -2.037275    1.010852
      4          1           0       -2.639955   -2.157884   -0.224191
      5          1           0       -1.762617   -0.770852   -0.862580
      6          1           0       -1.960470   -1.517999    2.096407
      7          1           0       -1.083504   -0.132234    1.457512
      8          1           0        0.421741   -1.676907    0.159477
      9          1           0       -0.460207   -3.070546    0.802001
     10          1           0        0.484159   -2.041535    1.892238
     11          6           0       -3.560575   -0.257531    0.209829
     12          6           0       -4.487544   -0.231416   -1.005914
     13          6           0       -5.719941    0.647641   -0.790859
     14          1           0       -4.122011   -0.618782    1.082573
     15          1           0       -3.244672    0.768251    0.444184
     16          1           0       -4.801124   -1.257400   -1.237520
     17          1           0       -3.924158    0.128365   -1.876414
     18          1           0       -5.424420    1.680913   -0.582009
     19          1           0       -6.306369    0.287274    0.060516
     20          1           0       -6.368787    0.651901   -1.672245
     21          6           0        2.446060    1.007942    0.379000
     22          6           0        1.738121    2.241566   -0.182228
     23          6           0        0.748499    2.856741    0.807724
     24          1           0        1.694195    0.258442    0.661655
     25          1           0        2.973756    1.284889    1.302164
     26          1           0        1.213056    1.962687   -1.104806
     27          1           0        2.491767    2.988141   -0.463759
     28          1           0        1.261343    3.162517    1.725380
     29          1           0       -0.024634    2.131237    1.080689
     30          1           0        0.253770    3.737253    0.386057
     31          6           0        3.438567    0.381692   -0.598993
     32          6           0        4.146507   -0.851932   -0.037764
     33          6           0        5.136128   -1.467108   -1.027716
     34          1           0        2.910871    0.104744   -1.522157
     35          1           0        4.190432    1.131192   -0.881648
     36          1           0        3.392861   -1.598507    0.243766
     37          1           0        4.671571   -0.573053    0.884813
     38          1           0        5.909261   -0.741604   -1.300682
     39          1           0        4.623285   -1.772884   -1.945372
     40          1           0        5.630857   -2.347619   -0.606050
 ---------------------------------------------------------------------

 SCF Done:  E(RHF) =  -470.732671885     A.U. after   11 cycles
 E2 =    -0.1584311210D+01 EUMP2 =    -0.47231698309466D+03

 The electronic state is 1-A.
 Alpha  occ. eigenvalues --  -11.21695 -11.21633 -11.21609 -11.21557 -11.21466
 Alpha  occ. eigenvalues --  -11.21400 -11.21366 -11.21278 -11.21166 -11.21107
 Alpha  occ. eigenvalues --  -11.21089 -11.21041  -1.08506  -1.08400  -1.03606
 Alpha  occ. eigenvalues --   -1.03513  -0.96064  -0.95957  -0.87079  -0.86976
 Alpha  occ. eigenvalues --   -0.79672  -0.79574  -0.78303  -0.78224  -0.65352
 Alpha  occ. eigenvalues --   -0.64879  -0.61127  -0.60787  -0.59415  -0.59329
 Alpha  occ. eigenvalues --   -0.57652  -0.57587  -0.55518  -0.55122  -0.52753
 Alpha  occ. eigenvalues --   -0.52655  -0.52473  -0.52400  -0.50130  -0.49802
 Alpha  occ. eigenvalues --   -0.48030  -0.47872  -0.46770  -0.46552  -0.45927
 Alpha  occ. eigenvalues --   -0.45741  -0.45724  -0.45486  -0.43843  -0.43762
 Alpha virt. eigenvalues --    0.19660   0.22476   0.23817   0.24664   0.25707
 Alpha virt. eigenvalues --    0.26289   0.26862   0.27628   0.28814   0.29748
 Alpha virt. eigenvalues --    0.30403   0.31376   0.31762   0.31981   0.32253

 Mulliken charges:
               1
     1  C   -0.297889
     2  C   -0.308119
     3  C   -0.480095
     4  H    0.150064
     5  H    0.149157
     6  H    0.153126
     7  H    0.158201
     8  H    0.156844
     9  H    0.156765
    10  H    0.161658
    11  C   -0.298835
    12  C   -0.299683
    13  C   -0.475793
    14  H    0.149789
    15  H    0.150078
    16  H    0.151993
    17  H    0.151979
    18  H    0.155462
    19  H    0.155242
    20  H    0.160344
    21  C   -0.308719
    22  C   -0.298796
    23  C   -0.481198
    24  H    0.162129
    25  H    0.149071
    26  H    0.150747
    27  H    0.152145
    28  H    0.155723
    29  H    0.158986
    30  H    0.160283
    31  C   -0.297787
    32  C   -0.302197
    33  C   -0.475569
    34  H    0.148427
    35  H    0.149632
    36  H    0.154826
    37  H    0.151742
    38  H    0.155001
    39  H    0.155027
    40  H    0.160243
 Sum of Mulliken charges =  -0.00000

 Dipole moment (field-independent basis, Debye):
    X=             -0.0344    Y=             -0.0325    Z=              0.0277  Tot=              0.0548
 Quadrupole moment (field-independent basis, Debye-Ang):
   XX=            -85.4373   YY=            -84.4596   ZZ=            -84.8732
   XY=              1.8199   XZ=              0.5790   YZ=             -0.4402

 Normal termination of Gaussian 16 at Wed May  5 19:49:35 2021.
