 Gaussian 16, Revision A.03,
 Gaussian 16:  EM64L-G16RevA.03 25-Dec-2016

 -------------
 #p 6-31g* mp2
 -------------

 ------------------------------------------------------
 Input file generated by CHIRIPA (05-May-2021 14:57:26)
 ------------------------------------------------------
 Symbolic Z-matrix:
 Charge =  0 Multiplicity = 1

                         Standard orientation:
 ---------------------------------------------------------------------
 Center     Atomic      Atomic             Coordinates (Angstroms)
 Number     Number       Type             X           Y           Z
 ---------------------------------------------------------------------
      1          6           0       -1.923290    1.361746    1.039810
      2          6           0       -2.868466    2.053622    0.275304
      3          6           0       -3.927655    1.371871   -0.331230
      4          6           0       -4.011518   -0.007980   -0.151593
      5          6           0       -3.085606   -0.725491    0.604155
      6          6           0       -2.034680   -0.023161    1.201510
      7          1           0       -1.103696    1.899340    1.507415
      8          1           0       -2.784467    3.129162    0.148011
      9          1           0       -4.673312    1.882634   -0.928335
     10          1           0       -3.195768   -1.797609    0.712986
     11          1           0       -1.302104   -0.563087    1.794686
     12          7           0       -5.128461   -0.740612   -0.788845
     13          8           0       -5.180033   -1.956290   -0.615337
     14          8           0       -5.931198   -0.085299   -1.449764
     15          6           0        5.754586    0.099005   -1.568104
     16          6           0        5.474618   -1.134124   -0.970166
     17          6           0        4.409335   -1.263102   -0.074015
     18          6           0        3.641123   -0.133240    0.202666
     19          6           0        3.894888    1.108925   -0.376919
     20          6           0        4.965219    1.214628   -1.270097
     21          1           0        6.584083    0.190158   -2.263101
     22          1           0        6.085963   -2.002228   -1.199731
     23          1           0        4.170382   -2.205779    0.403142
     24          1           0        3.267681    1.956420   -0.128362
     25          1           0        5.180316    2.173547   -1.732969
     26          7           0        2.510684   -0.257462    1.149808
     27          8           0        1.848906    0.753036    1.376920
     28          8           0        2.307829   -1.362975    1.647130
 ---------------------------------------------------------------------

 SCF Done:  E(RHF) =  -868.341074840     A.U. after   16 cycles
 E2 =    -0.2598424689D+01 EUMP2 =    -0.87093949952887D+03

 The electronic state is 1-A.
 Alpha  occ. eigenvalues --  -20.61914 -20.61884 -20.60007 -20.59997 -15.86911
 Alpha  occ. eigenvalues --  -15.85049 -11.31932 -11.30178 -11.28475 -11.28441
 Alpha  occ. eigenvalues --  -11.28131 -11.27400 -11.27377 -11.26774 -11.26657
 Alpha  occ. eigenvalues --  -11.26223 -11.25707 -11.25439  -1.60951  -1.59086
 Alpha  occ. eigenvalues --   -1.40515  -1.38646  -1.20069  -1.18304  -1.09528
 Alpha  occ. eigenvalues --   -1.07702  -1.05421  -1.03668  -0.96424  -0.94586
 Alpha  occ. eigenvalues --   -0.86835  -0.85045  -0.83273  -0.81435  -0.78355
 Alpha  occ. eigenvalues --   -0.76546  -0.73163  -0.72237  -0.71270  -0.71174
 Alpha  occ. eigenvalues --   -0.70409  -0.69305  -0.65728  -0.65422  -0.63927
 Alpha  occ. eigenvalues --   -0.63615  -0.62775  -0.61014  -0.55932  -0.54035
 Alpha  occ. eigenvalues --   -0.53764  -0.53509  -0.52026  -0.51720  -0.49920
 Alpha  occ. eigenvalues --   -0.49876  -0.48041  -0.48001  -0.45989  -0.44106
 Alpha  occ. eigenvalues --   -0.38024  -0.37007  -0.36221  -0.35295
 Alpha virt. eigenvalues --    0.04147   0.05972   0.10654   0.12373   0.15713
 Alpha virt. eigenvalues --    0.17554   0.20806   0.22731   0.26752   0.27633
 Alpha virt. eigenvalues --    0.28555   0.29535   0.30485   0.31783   0.32381

 Mulliken charges:
               1
     1  C   -0.172152
     2  C   -0.220874
     3  C   -0.173090
     4  C    0.157090
     5  C   -0.173839
     6  C   -0.223406
     7  H    0.239119
     8  H    0.218390
     9  H    0.271142
    10  H    0.273293
    11  H    0.239904
    12  N    0.488225
    13  O   -0.462636
    14  O   -0.464129
    15  C   -0.169420
    16  C   -0.218418
    17  C   -0.169894
    18  C    0.158181
    19  C   -0.169840
    20  C   -0.218354
    21  H    0.228375
    22  H    0.226163
    23  H    0.276779
    24  H    0.273496
    25  H    0.225290
    26  N    0.491667
    27  O   -0.471705
    28  O   -0.459356
 Sum of Mulliken charges =  -0.00000

 Dipole moment (field-independent basis, Debye):
    X=              8.5674    Y=              2.9422    Z=             -1.0132  Tot=              9.1151
 Quadrupole moment (field-independent basis, Debye-Ang):
   XX=           -108.3086   YY=            -96.8727   ZZ=           -107.3042
   XY=            -12.2764   XZ=            -21.1237   YZ=             -2.4895

 Normal termination of Gaussian 16 at Thu May  6 22:53:26 2021.
