 Gaussian 16, Revision A.03,
 Gaussian 16:  EM64L-G16RevA.03 25-Dec-2016

 -------------
 #p 6-31g* mp2
 -------------

 ------------------------------------------------------
 Input file generated by CHIRIPA (05-May-2021 14:51:13)
 ------------------------------------------------------
 Symbolic Z-matrix:
 Charge =  0 Multiplicity = 1

                         Standard orientation:
 ---------------------------------------------------------------------
 Center     Atomic      Atomic             Coordinates (Angstroms)
 Number     Number       Type             X           Y           Z
 ---------------------------------------------------------------------
      1          6           0       -2.032705    0.700131   -0.492346
      2          6           0       -2.447137    2.141655   -0.789396
      3          6           0       -1.263689    3.109760   -0.785393
      4          1           0       -1.530493    0.663515    0.484070
      5          1           0       -1.291821    0.378083   -1.237176
      6          1           0       -3.188049    2.460421   -0.045049
      7          1           0       -2.948591    2.174812   -1.765132
      8          1           0       -0.525590    2.819026   -1.539903
      9          1           0       -0.766409    3.106258    0.189954
     10          1           0       -1.582576    4.134523   -0.999942
     11          6           0       -3.204856   -0.279558   -0.492853
     12          6           0       -2.790424   -1.721082   -0.195803
     13          6           0       -3.973873   -2.689187   -0.199806
     14          1           0       -3.945740    0.042490    0.251977
     15          1           0       -3.707068   -0.242942   -1.469269
     16          1           0       -2.288970   -1.754239    0.779933
     17          1           0       -2.049512   -2.039848   -0.940151
     18          1           0       -4.471153   -2.685685   -1.175153
     19          1           0       -4.711971   -2.398453    0.554704
     20          1           0       -3.654986   -3.713950    0.014743
     21          6           0        2.333488    0.249853    1.031406
     22          6           0        1.159678   -0.364880    1.794464
     23          6           0        0.599767    0.567671    2.869008
     24          1           0        3.128744    0.510893    1.743002
     25          1           0        2.007625    1.191221    0.567686
     26          1           0        1.487278   -1.305507    2.255457
     27          1           0        0.367200   -0.624662    1.080945
     28          1           0        0.246248    1.502349    2.421791
     29          1           0        1.372690    0.817636    3.602977
     30          1           0       -0.238474    0.108326    3.402125
     31          6           0        2.904073   -0.670425   -0.046206
     32          6           0        4.077884   -0.055694   -0.809265
     33          6           0        4.637794   -0.988245   -1.883809
     34          1           0        3.229937   -1.611793    0.417513
     35          1           0        2.108817   -0.931466   -0.757803
     36          1           0        4.870361    0.204090   -0.095747
     37          1           0        3.750284    0.884933   -1.270258
     38          1           0        3.864871   -1.238209   -2.617778
     39          1           0        4.991313   -1.922922   -1.436592
     40          1           0        5.476035   -0.528899   -2.416926
 ---------------------------------------------------------------------

 SCF Done:  E(RHF) =  -470.732917593     A.U. after   11 cycles
 E2 =    -0.1584419771D+01 EUMP2 =    -0.47231733736385D+03

 The electronic state is 1-A.
 Alpha  occ. eigenvalues --  -11.21656 -11.21645 -11.21575 -11.21504 -11.21440
 Alpha  occ. eigenvalues --  -11.21379 -11.21361 -11.21298 -11.21159 -11.21107
 Alpha  occ. eigenvalues --  -11.21101 -11.21057  -1.08503  -1.08375  -1.03587
 Alpha  occ. eigenvalues --   -1.03507  -0.96040  -0.95963  -0.87050  -0.86983
 Alpha  occ. eigenvalues --   -0.79648  -0.79576  -0.78377  -0.78138  -0.65244
 Alpha  occ. eigenvalues --   -0.64919  -0.61062  -0.60846  -0.59412  -0.59320
 Alpha  occ. eigenvalues --   -0.57670  -0.57552  -0.55371  -0.55218  -0.52729
 Alpha  occ. eigenvalues --   -0.52661  -0.52462  -0.52391  -0.49983  -0.49908
 Alpha  occ. eigenvalues --   -0.47998  -0.47900  -0.46740  -0.46622  -0.46067
 Alpha  occ. eigenvalues --   -0.45762  -0.45679  -0.45275  -0.43831  -0.43753
 Alpha virt. eigenvalues --    0.19950   0.22984   0.23214   0.24062   0.25328
 Alpha virt. eigenvalues --    0.26156   0.26581   0.28401   0.28874   0.29555
 Alpha virt. eigenvalues --    0.29946   0.31247   0.31570   0.31874   0.32417

 Mulliken charges:
               1
     1  C   -0.306969
     2  C   -0.299017
     3  C   -0.478412
     4  H    0.160301
     5  H    0.148407
     6  H    0.152262
     7  H    0.152146
     8  H    0.155022
     9  H    0.156556
    10  H    0.160980
    11  C   -0.297777
    12  C   -0.301917
    13  C   -0.475720
    14  H    0.149625
    15  H    0.149689
    16  H    0.154028
    17  H    0.151720
    18  H    0.155316
    19  H    0.155297
    20  H    0.160553
    21  C   -0.298797
    22  C   -0.307286
    23  C   -0.479157
    24  H    0.149278
    25  H    0.150769
    26  H    0.151625
    27  H    0.160512
    28  H    0.156097
    29  H    0.156014
    30  H    0.159405
    31  C   -0.298432
    32  C   -0.299682
    33  C   -0.475631
    34  H    0.149401
    35  H    0.149683
    36  H    0.151926
    37  H    0.151964
    38  H    0.154876
    39  H    0.155161
    40  H    0.160182
 Sum of Mulliken charges =  -0.00000

 Dipole moment (field-independent basis, Debye):
    X=             -0.0380    Y=             -0.0001    Z=             -0.0046  Tot=              0.0383
 Quadrupole moment (field-independent basis, Debye-Ang):
   XX=            -85.1565   YY=            -85.5792   ZZ=            -84.0471
   XY=             -0.6015   XZ=              0.7321   YZ=             -0.5425

 Normal termination of Gaussian 16 at Thu May  6 03:58:29 2021.
