 Gaussian 16, Revision A.03,
 Gaussian 16:  EM64L-G16RevA.03 25-Dec-2016

 -------------
 #p 6-31g* mp2
 -------------

 ------------------------------------------------------
 Input file generated by CHIRIPA (05-May-2021 14:57:25)
 ------------------------------------------------------
 Symbolic Z-matrix:
 Charge =  0 Multiplicity = 1

                         Standard orientation:
 ---------------------------------------------------------------------
 Center     Atomic      Atomic             Coordinates (Angstroms)
 Number     Number       Type             X           Y           Z
 ---------------------------------------------------------------------
      1          6           0        5.202731   -1.762235   -0.516102
      2          6           0        3.858774   -2.012183   -0.219748
      3          6           0        2.967367   -0.954109   -0.018695
      4          6           0        3.456102    0.347333   -0.122024
      5          6           0        4.789430    0.628680   -0.415911
      6          6           0        5.662959   -0.444924   -0.613067
      7          1           0        5.888253   -2.590204   -0.670770
      8          1           0        3.498562   -3.034204   -0.143822
      9          1           0        1.921900   -1.119094    0.211947
     10          1           0        5.119076    1.658230   -0.485049
     11          1           0        6.706167   -0.247822   -0.843091
     12          7           0        2.521873    1.475689    0.088758
     13          8           0        2.977296    2.613187   -0.007804
     14          8           0        1.351891    1.201230    0.346541
     15          6           0       -5.604640    0.103841   -1.365503
     16          6           0       -5.192652   -1.172213   -0.967412
     17          6           0       -4.088895   -1.331075   -0.124187
     18          6           0       -3.417247   -0.187006    0.303930
     19          6           0       -3.803327    1.097704   -0.075217
     20          6           0       -4.909887    1.232736   -0.918922
     21          1           0       -6.463154    0.217993   -2.020727
     22          1           0       -5.730306   -2.050715   -1.312677
     23          1           0       -3.748423   -2.307175    0.199425
     24          1           0       -3.247339    1.954607    0.285354
     25          1           0       -5.227586    2.224971   -1.226468
     26          7           0       -2.247264   -0.342572    1.196870
     27          8           0       -1.672452    0.681253    1.560201
     28          8           0       -1.927198   -1.485384    1.516515
 ---------------------------------------------------------------------

 SCF Done:  E(RHF) =  -868.336814960     A.U. after   16 cycles
 E2 =    -0.2599845335D+01 EUMP2 =    -0.87093666029425D+03

 The electronic state is 1-A.
 Alpha  occ. eigenvalues --  -20.60162 -20.59986 -20.59875 -20.59783 -15.85111
 Alpha  occ. eigenvalues --  -15.84874 -11.30653 -11.30418 -11.27292 -11.27190
 Alpha  occ. eigenvalues --  -11.27061 -11.27045 -11.26942 -11.26835 -11.26340
 Alpha  occ. eigenvalues --  -11.26277 -11.26118 -11.26051  -1.59139  -1.58916
 Alpha  occ. eigenvalues --   -1.38686  -1.38455  -1.18848  -1.18623  -1.08217
 Alpha  occ. eigenvalues --   -1.07996  -1.04277  -1.04046  -0.95022  -0.94788
 Alpha  occ. eigenvalues --   -0.85668  -0.85439  -0.81855  -0.81602  -0.76864
 Alpha  occ. eigenvalues --   -0.76623  -0.71397  -0.71045  -0.70419  -0.70252
 Alpha  occ. eigenvalues --   -0.69961  -0.69731  -0.64500  -0.64291  -0.64262
 Alpha  occ. eigenvalues --   -0.64056  -0.61618  -0.61377  -0.54787  -0.54567
 Alpha  occ. eigenvalues --   -0.52601  -0.52380  -0.52373  -0.52137  -0.48139
 Alpha  occ. eigenvalues --   -0.48088  -0.47876  -0.47824  -0.44029  -0.43818
 Alpha  occ. eigenvalues --   -0.36847  -0.36636  -0.35889  -0.35660
 Alpha virt. eigenvalues --    0.05670   0.05906   0.11763   0.11988   0.17118
 Alpha virt. eigenvalues --    0.17352   0.21859   0.22100   0.27761   0.28005
 Alpha virt. eigenvalues --    0.28774   0.29040   0.31370   0.31633   0.33077

 Mulliken charges:
               1
     1  C   -0.171619
     2  C   -0.219434
     3  C   -0.172354
     4  C    0.157594
     5  C   -0.171790
     6  C   -0.219045
     7  H    0.222856
     8  H    0.223057
     9  H    0.284895
    10  H    0.273575
    11  H    0.220555
    12  N    0.487457
    13  O   -0.467313
    14  O   -0.449297
    15  C   -0.171508
    16  C   -0.218816
    17  C   -0.172262
    18  C    0.158719
    19  C   -0.169703
    20  C   -0.218936
    21  H    0.223667
    22  H    0.220781
    23  H    0.272484
    24  H    0.281069
    25  H    0.223163
    26  N    0.487331
    27  O   -0.442861
    28  O   -0.472262
 Sum of Mulliken charges =  -0.00000

 Dipole moment (field-independent basis, Debye):
    X=             -0.9529    Y=             -3.2447    Z=             -3.7552  Tot=              5.0535
 Quadrupole moment (field-independent basis, Debye-Ang):
   XX=            -54.1707   YY=           -101.4854   ZZ=           -108.1671
   XY=            -11.1326   XZ=              6.1156   YZ=              0.7158

 Normal termination of Gaussian 16 at Thu May  6 18:05:28 2021.
