 Gaussian 16, Revision A.03,
 Gaussian 16:  EM64L-G16RevA.03 25-Dec-2016

 -------------
 #p 6-31g* mp2
 -------------

 ------------------------------------------------------
 Input file generated by CHIRIPA (05-May-2021 14:53:12)
 ------------------------------------------------------
 Symbolic Z-matrix:
 Charge =  0 Multiplicity = 1

                         Standard orientation:
 ---------------------------------------------------------------------
 Center     Atomic      Atomic             Coordinates (Angstroms)
 Number     Number       Type             X           Y           Z
 ---------------------------------------------------------------------
      1          6           0       -2.633749   -0.654625   -0.013659
      2          6           0       -2.080858   -1.648913   -1.035269
      3          6           0       -0.664017   -2.115296   -0.699349
      4          1           0       -1.963830    0.214280    0.042537
      5          1           0       -2.626242   -1.119988    0.981719
      6          1           0       -2.090696   -1.182303   -2.028644
      7          1           0       -2.752273   -2.515465   -1.089179
      8          1           0       -0.641564   -2.604928    0.279608
      9          1           0        0.023772   -1.264191   -0.665195
     10          1           0       -0.288333   -2.825468   -1.442570
     11          6           0       -4.049334   -0.179155   -0.335800
     12          6           0       -4.602225    0.815133    0.685811
     13          6           0       -6.019067    1.281516    0.349891
     14          1           0       -4.056841    0.286208   -1.331177
     15          1           0       -4.719253   -1.048060   -0.391995
     16          1           0       -3.930811    1.681685    0.739721
     17          1           0       -4.592388    0.348523    1.679186
     18          1           0       -6.706856    0.430411    0.315737
     19          1           0       -6.041520    1.771148   -0.629066
     20          1           0       -6.394750    1.991688    1.093112
     21          6           0        2.720869   -2.083136    0.878998
     22          6           0        2.440415   -1.076256    1.808545
     23          6           0        2.376828    0.261797    1.408395
     24          6           0        2.599917    0.558572    0.064726
     25          6           0        2.881494   -0.422067   -0.885196
     26          6           0        2.940128   -1.753409   -0.462541
     27          1           0        2.768342   -3.119961    1.198586
     28          1           0        2.269706   -1.329390    2.851055
     29          1           0        2.161607    1.061179    2.107026
     30          1           0        3.047144   -0.138797   -1.917542
     31          1           0        3.158132   -2.533280   -1.186640
     32          7           0        2.535223    1.971556   -0.370809
     33          8           0        2.735579    2.206901   -1.560391
     34          8           0        2.285383    2.816954    0.485650
 ---------------------------------------------------------------------

 SCF Done:  E(RHF) =  -669.534559178     A.U. after   15 cycles
 E2 =    -0.2093249555D+01 EUMP2 =    -0.67162780873380D+03

 The electronic state is 1-A.
 Alpha  occ. eigenvalues --  -20.60817 -20.60812 -15.85871 -11.31240 -11.27792
 Alpha  occ. eigenvalues --  -11.27758 -11.27496 -11.26795 -11.26760 -11.21644
 Alpha  occ. eigenvalues --  -11.21529 -11.21411 -11.21328 -11.21158 -11.20987
 Alpha  occ. eigenvalues --   -1.59895  -1.39447  -1.19404  -1.08790  -1.08424
 Alpha  occ. eigenvalues --   -1.04795  -1.03533  -0.95994  -0.95626  -0.87019
 Alpha  occ. eigenvalues --   -0.86187  -0.82454  -0.79607  -0.78238  -0.77509
 Alpha  occ. eigenvalues --   -0.72085  -0.71222  -0.70489  -0.65057  -0.65040
 Alpha  occ. eigenvalues --   -0.64788  -0.62137  -0.60944  -0.59373  -0.57635
 Alpha  occ. eigenvalues --   -0.55367  -0.55279  -0.53498  -0.52882  -0.52662
 Alpha  occ. eigenvalues --   -0.52088  -0.49878  -0.48845  -0.48842  -0.47865
 Alpha  occ. eigenvalues --   -0.46612  -0.45766  -0.45693  -0.44851  -0.43804
 Alpha  occ. eigenvalues --   -0.37341  -0.36345
 Alpha virt. eigenvalues --    0.05016   0.11212   0.16512   0.21311   0.22872
 Alpha virt. eigenvalues --    0.24282   0.26625   0.27095   0.27466   0.27953
 Alpha virt. eigenvalues --    0.28432   0.30591   0.31324   0.31840   0.31953

 Mulliken charges:
               1
     1  C   -0.298299
     2  C   -0.300515
     3  C   -0.476189
     4  H    0.152189
     5  H    0.146610
     6  H    0.153274
     7  H    0.150054
     8  H    0.149135
     9  H    0.164235
    10  H    0.152626
    11  C   -0.298289
    12  C   -0.300172
    13  C   -0.475777
    14  H    0.151225
    15  H    0.148546
    16  H    0.154826
    17  H    0.150204
    18  H    0.154182
    19  H    0.156283
    20  H    0.160572
    21  C   -0.167626
    22  C   -0.217306
    23  C   -0.171763
    24  C    0.159193
    25  C   -0.175516
    26  C   -0.213292
    27  H    0.225800
    28  H    0.223580
    29  H    0.275777
    30  H    0.275605
    31  H    0.223659
    32  N    0.487872
    33  O   -0.460390
    34  O   -0.460314
 Sum of Mulliken charges =  -0.00000

 Dipole moment (field-independent basis, Debye):
    X=              0.3126    Y=             -4.9305    Z=              1.5512  Tot=              5.1782
 Quadrupole moment (field-independent basis, Debye-Ang):
   XX=            -95.0570   YY=           -100.3326   ZZ=            -89.9707
   XY=            -12.9337   XZ=              2.6553   YZ=              1.5495

 Normal termination of Gaussian 16 at Thu May  6 07:20:11 2021.
