 Gaussian 16, Revision A.03,
 Gaussian 16:  EM64L-G16RevA.03 25-Dec-2016

 -------------
 #p 6-31g* mp2
 -------------

 ------------------------------------------------------
 Input file generated by CHIRIPA (05-May-2021 14:53:18)
 ------------------------------------------------------
 Symbolic Z-matrix:
 Charge =  0 Multiplicity = 1

                         Standard orientation:
 ---------------------------------------------------------------------
 Center     Atomic      Atomic             Coordinates (Angstroms)
 Number     Number       Type             X           Y           Z
 ---------------------------------------------------------------------
      1          6           0        4.136638    0.932087    0.278399
      2          6           0        3.075399    1.950658   -0.139058
      3          6           0        3.130600    3.234909    0.688858
      4          1           0        4.005347    0.690295    1.341999
      5          1           0        5.131311    1.388994    0.182194
      6          1           0        2.083104    1.491508   -0.043413
      7          1           0        3.209111    2.189909   -1.201836
      8          1           0        4.107380    3.718393    0.585207
      9          1           0        2.974975    3.016025    1.750212
     10          1           0        2.363426    3.949033    0.373690
     11          6           0        4.094149   -0.357077   -0.540123
     12          6           0        5.155388   -1.375648   -0.122665
     13          6           0        5.100187   -2.659899   -0.950582
     14          1           0        3.099476   -0.813984   -0.443918
     15          1           0        4.225439   -0.115285   -1.603722
     16          1           0        5.021676   -1.614899    0.940113
     17          1           0        6.147683   -0.916498   -0.218311
     18          1           0        5.255812   -2.441015   -2.011935
     19          1           0        4.123407   -3.143383   -0.846930
     20          1           0        5.867361   -3.374023   -0.635414
     21          6           0       -1.010472   -0.920585    1.112651
     22          6           0       -2.143208   -1.723252    1.283403
     23          6           0       -3.369951   -1.347492    0.728017
     24          6           0       -3.428291   -0.157330    0.004553
     25          6           0       -2.317481    0.663757   -0.183083
     26          6           0       -1.101064    0.268262    0.381243
     27          1           0       -0.061521   -1.220149    1.547562
     28          1           0       -2.075806   -2.647051    1.850938
     29          1           0       -4.262549   -1.950035    0.844754
     30          1           0       -2.415776    1.579105   -0.753954
     31          1           0       -0.223009    0.893600    0.247015
     32          7           0       -4.721523    0.250917   -0.588143
     33          8           0       -4.746658    1.304129   -1.221190
     34          8           0       -5.685535   -0.490042   -0.408426
 ---------------------------------------------------------------------

 SCF Done:  E(RHF) =  -669.535472829     A.U. after   15 cycles
 E2 =    -0.2091151569D+01 EUMP2 =    -0.67162662439811D+03

 The electronic state is 1-A.
 Alpha  occ. eigenvalues --  -20.60750 -20.60745 -15.85803 -11.31172 -11.27742
 Alpha  occ. eigenvalues --  -11.27734 -11.27492 -11.26764 -11.26736 -11.22661
 Alpha  occ. eigenvalues --  -11.22318 -11.22280 -11.22199 -11.21921 -11.21685
 Alpha  occ. eigenvalues --   -1.59825  -1.39378  -1.19345  -1.09295  -1.08742
 Alpha  occ. eigenvalues --   -1.04749  -1.04354  -0.96773  -0.95576  -0.87786
 Alpha  occ. eigenvalues --   -0.86152  -0.82408  -0.80432  -0.79102  -0.77452
 Alpha  occ. eigenvalues --   -0.72022  -0.71148  -0.70460  -0.65966  -0.64998
 Alpha  occ. eigenvalues --   -0.64756  -0.62156  -0.61703  -0.60145  -0.58387
 Alpha  occ. eigenvalues --   -0.56059  -0.55256  -0.53461  -0.53191  -0.53078
 Alpha  occ. eigenvalues --   -0.52857  -0.50712  -0.48814  -0.48776  -0.48697
 Alpha  occ. eigenvalues --   -0.47470  -0.46628  -0.46565  -0.44783  -0.44608
 Alpha  occ. eigenvalues --   -0.37331  -0.36350
 Alpha virt. eigenvalues --    0.05081   0.11288   0.16570   0.18930   0.22659
 Alpha virt. eigenvalues --    0.23435   0.25020   0.26246   0.26880   0.27916
 Alpha virt. eigenvalues --    0.29370   0.29852   0.30920   0.31212   0.31901

 Mulliken charges:
               1
     1  C   -0.298417
     2  C   -0.305767
     3  C   -0.476216
     4  H    0.148285
     5  H    0.153938
     6  H    0.143311
     7  H    0.157124
     8  H    0.159743
     9  H    0.155382
    10  H    0.161697
    11  C   -0.297829
    12  C   -0.300212
    13  C   -0.475867
    14  H    0.143521
    15  H    0.153061
    16  H    0.150806
    17  H    0.154496
    18  H    0.157318
    19  H    0.153878
    20  H    0.162324
    21  C   -0.174046
    22  C   -0.218482
    23  C   -0.171237
    24  C    0.159109
    25  C   -0.173086
    26  C   -0.226862
    27  H    0.225067
    28  H    0.223319
    29  H    0.275556
    30  H    0.276384
    31  H    0.236609
    32  N    0.487967
    33  O   -0.460329
    34  O   -0.460545
 Sum of Mulliken charges =  -0.00000

 Dipole moment (field-independent basis, Debye):
    X=              4.7817    Y=             -1.3934    Z=              2.0477  Tot=              5.3851
 Quadrupole moment (field-independent basis, Debye-Ang):
   XX=           -124.1734   YY=            -91.6282   ZZ=            -94.5398
   XY=              6.8539   XZ=             -8.6755   YZ=             -2.9365

 Normal termination of Gaussian 16 at Thu May  6 15:40:11 2021.
