 Gaussian 16, Revision A.03,
 Gaussian 16:  EM64L-G16RevA.03 25-Dec-2016

 -------------
 #p 6-31g* mp2
 -------------

 ------------------------------------------------------
 Input file generated by CHIRIPA (05-May-2021 14:57:22)
 ------------------------------------------------------
 Symbolic Z-matrix:
 Charge =  0 Multiplicity = 1

                         Standard orientation:
 ---------------------------------------------------------------------
 Center     Atomic      Atomic             Coordinates (Angstroms)
 Number     Number       Type             X           Y           Z
 ---------------------------------------------------------------------
      1          6           0        5.350473    1.803261    0.056864
      2          6           0        4.149192    2.069685   -0.608315
      3          6           0        3.171538    1.078111   -0.732904
      4          6           0        3.429473   -0.174354   -0.177846
      5          6           0        4.616320   -0.470532    0.490707
      6          6           0        5.579798    0.536237    0.603289
      7          1           0        6.104432    2.579441    0.148984
      8          1           0        3.968371    3.052756   -1.033660
      9          1           0        2.232706    1.257250   -1.242730
     10          1           0        4.767868   -1.460157    0.904342
     11          1           0        6.511802    0.326486    1.120415
     12          7           0        2.401978   -1.232132   -0.303387
     13          8           0        2.653454   -2.327409    0.194374
     14          8           0        1.364608   -0.945912   -0.897170
     15          6           0       -5.521338    1.604822   -0.150165
     16          6           0       -5.584992    0.321961   -0.704004
     17          6           0       -4.525668   -0.575536   -0.540054
     18          6           0       -3.412955   -0.155127    0.186866
     19          6           0       -3.319763    1.116317    0.750814
     20          6           0       -4.390919    1.997213    0.574199
     21          1           0       -6.348843    2.295571   -0.282443
     22          1           0       -6.461637    0.014500   -1.267036
     23          1           0       -4.548678   -1.574599   -0.958102
     24          1           0       -2.432674    1.394099    1.306986
     25          1           0       -4.338731    2.992880    1.005440
     26          7           0       -2.285232   -1.096480    0.367136
     27          8           0       -1.316080   -0.701858    1.011848
     28          8           0       -2.391831   -2.211107   -0.139695
 ---------------------------------------------------------------------

 SCF Done:  E(RHF) =  -868.335100928     A.U. after   16 cycles
 E2 =    -0.2600667254D+01 EUMP2 =    -0.87093576818185D+03

 The electronic state is 1-A.
 Alpha  occ. eigenvalues --  -20.59671 -20.59643 -20.59609 -20.59531 -15.84737
 Alpha  occ. eigenvalues --  -15.84644 -11.30522 -11.30430 -11.27159 -11.27121
 Alpha  occ. eigenvalues --  -11.27062 -11.27040 -11.26965 -11.26883 -11.26269
 Alpha  occ. eigenvalues --  -11.26237 -11.26181 -11.26156  -1.58705  -1.58616
 Alpha  occ. eigenvalues --   -1.38266  -1.38169  -1.18732  -1.18642  -1.08047
 Alpha  occ. eigenvalues --   -1.07957  -1.04202  -1.04114  -0.94818  -0.94718
 Alpha  occ. eigenvalues --   -0.85580  -0.85493  -0.81660  -0.81562  -0.76627
 Alpha  occ. eigenvalues --   -0.76537  -0.71018  -0.70845  -0.70086  -0.69869
 Alpha  occ. eigenvalues --   -0.69842  -0.69756  -0.64380  -0.64292  -0.64212
 Alpha  occ. eigenvalues --   -0.64129  -0.61549  -0.61462  -0.54692  -0.54609
 Alpha  occ. eigenvalues --   -0.52505  -0.52414  -0.52304  -0.52219  -0.47856
 Alpha  occ. eigenvalues --   -0.47673  -0.47596  -0.47468  -0.43794  -0.43231
 Alpha  occ. eigenvalues --   -0.36736  -0.36641  -0.35826  -0.35738
 Alpha virt. eigenvalues --    0.05844   0.06117   0.11823   0.11912   0.17283
 Alpha virt. eigenvalues --    0.17508   0.21890   0.21970   0.27766   0.27842
 Alpha virt. eigenvalues --    0.28811   0.28910   0.31392   0.31492   0.33054

 Mulliken charges:
               1
     1  C   -0.172334
     2  C   -0.218769
     3  C   -0.170843
     4  C    0.161169
     5  C   -0.171290
     6  C   -0.218531
     7  H    0.222383
     8  H    0.219639
     9  H    0.273818
    10  H    0.275576
    11  H    0.221124
    12  N    0.489578
    13  O   -0.460175
    14  O   -0.451407
    15  C   -0.172329
    16  C   -0.218496
    17  C   -0.171237
    18  C    0.160733
    19  C   -0.171863
    20  C   -0.218667
    21  H    0.222755
    22  H    0.221542
    23  H    0.276149
    24  H    0.273229
    25  H    0.219990
    26  N    0.489785
    27  O   -0.455335
    28  O   -0.456193
 Sum of Mulliken charges =  -0.00000

 Dipole moment (field-independent basis, Debye):
    X=             -0.3821    Y=              6.7583    Z=             -0.2043  Tot=              6.7722
 Quadrupole moment (field-independent basis, Debye-Ang):
   XX=            -53.1340   YY=           -103.7757   ZZ=           -103.9957
   XY=              1.2990   XZ=              5.8020   YZ=              0.2808

 Normal termination of Gaussian 16 at Fri May  7 04:50:41 2021.
