 Gaussian 16, Revision A.03,
 Gaussian 16:  EM64L-G16RevA.03 25-Dec-2016

 -------------
 #p 6-31g* mp2
 -------------

 ------------------------------------------------------
 Input file generated by CHIRIPA (05-May-2021 14:51:10)
 ------------------------------------------------------
 Symbolic Z-matrix:
 Charge =  0 Multiplicity = 1

                         Standard orientation:
 ---------------------------------------------------------------------
 Center     Atomic      Atomic             Coordinates (Angstroms)
 Number     Number       Type             X           Y           Z
 ---------------------------------------------------------------------
      1          6           0       -3.931608    0.967118   -0.278078
      2          6           0       -3.166560    2.110661    0.389002
      3          6           0       -3.537033    3.480725   -0.179742
      4          1           0       -3.733380    0.982982   -1.358541
      5          1           0       -5.010378    1.136448   -0.155692
      6          1           0       -2.089530    1.938508    0.266592
      7          1           0       -3.366481    2.091956    1.468028
      8          1           0       -4.605286    3.678172   -0.043910
      9          1           0       -3.321079    3.523852   -1.252172
     10          1           0       -2.978487    4.283660    0.311360
     11          6           0       -3.572102   -0.408852    0.279764
     12          6           0       -4.337149   -1.552395   -0.387316
     13          6           0       -3.966677   -2.922459    0.181428
     14          1           0       -2.493332   -0.578182    0.157377
     15          1           0       -3.770330   -0.424716    1.360227
     16          1           0       -4.137229   -1.533690   -1.466342
     17          1           0       -5.414180   -1.380242   -0.264906
     18          1           0       -4.182630   -2.965586    1.253858
     19          1           0       -2.898423   -3.119906    0.045596
     20          1           0       -4.525223   -3.725394   -0.309674
     21          6           0        4.269852    0.260211    0.154780
     22          6           0        5.688742   -0.121756   -0.268112
     23          6           0        6.713729    0.967336    0.049812
     24          1           0        3.982959    1.193818   -0.348228
     25          1           0        4.260241    0.470499    1.233243
     26          1           0        5.695389   -0.332605   -1.345198
     27          1           0        5.972220   -1.054663    0.235813
     28          1           0        6.736496    1.172907    1.124904
     29          1           0        6.458092    1.899069   -0.465090
     30          1           0        7.721205    0.673457   -0.260811
     31          6           0        3.233857   -0.818477   -0.156465
     32          6           0        1.814968   -0.436510    0.266426
     33          6           0        0.789981   -1.525602   -0.051498
     34          1           0        3.243468   -1.028766   -1.234928
     35          1           0        3.520751   -1.752084    0.346542
     36          1           0        1.531490    0.496397   -0.237499
     37          1           0        1.808321   -0.225661    1.343512
     38          1           0        1.045617   -2.457335    0.463404
     39          1           0        0.767213   -1.731173   -1.126590
     40          1           0       -0.217496   -1.231723    0.259126
 ---------------------------------------------------------------------

 SCF Done:  E(RHF) =  -470.733388130     A.U. after   11 cycles
 E2 =    -0.1582673389D+01 EUMP2 =    -0.47231606151948D+03

 The electronic state is 1-A.
 Alpha  occ. eigenvalues --  -11.21647 -11.21617 -11.21599 -11.21579 -11.21431
 Alpha  occ. eigenvalues --  -11.21394 -11.21371 -11.21334 -11.21116 -11.21083
 Alpha  occ. eigenvalues --  -11.21070 -11.21030  -1.08459  -1.08420  -1.03562
 Alpha  occ. eigenvalues --   -1.03512  -0.96016  -0.95960  -0.87037  -0.86973
 Alpha  occ. eigenvalues --   -0.79638  -0.79563  -0.78270  -0.78239  -0.65092
 Alpha  occ. eigenvalues --   -0.65060  -0.60955  -0.60916  -0.59424  -0.59301
 Alpha  occ. eigenvalues --   -0.57666  -0.57539  -0.55300  -0.55247  -0.52764
 Alpha  occ. eigenvalues --   -0.52648  -0.52473  -0.52335  -0.49956  -0.49896
 Alpha  occ. eigenvalues --   -0.47982  -0.47865  -0.46658  -0.46603  -0.45814
 Alpha  occ. eigenvalues --   -0.45772  -0.45734  -0.45698  -0.43784  -0.43741
 Alpha virt. eigenvalues --    0.21114   0.23047   0.23858   0.24344   0.25949
 Alpha virt. eigenvalues --    0.26628   0.27125   0.27431   0.27980   0.28991
 Alpha virt. eigenvalues --    0.30577   0.31413   0.31717   0.31831   0.32219

 Mulliken charges:
               1
     1  C   -0.297496
     2  C   -0.299942
     3  C   -0.475698
     4  H    0.149571
     5  H    0.149605
     6  H    0.151875
     7  H    0.151960
     8  H    0.155230
     9  H    0.155106
    10  H    0.160271
    11  C   -0.308291
    12  C   -0.298827
    13  C   -0.476996
    14  H    0.158519
    15  H    0.149474
    16  H    0.151893
    17  H    0.151835
    18  H    0.154904
    19  H    0.156940
    20  H    0.160140
    21  C   -0.298272
    22  C   -0.299671
    23  C   -0.475724
    24  H    0.149654
    25  H    0.149654
    26  H    0.151934
    27  H    0.152005
    28  H    0.155236
    29  H    0.155198
    30  H    0.160311
    31  C   -0.298589
    32  C   -0.298867
    33  C   -0.485343
    34  H    0.149518
    35  H    0.149865
    36  H    0.151548
    37  H    0.152433
    38  H    0.155900
    39  H    0.154971
    40  H    0.168165
 Sum of Mulliken charges =  -0.00000

 Dipole moment (field-independent basis, Debye):
    X=              0.0146    Y=             -0.0044    Z=              0.0054  Tot=              0.0162
 Quadrupole moment (field-independent basis, Debye-Ang):
   XX=            -84.9848   YY=            -86.2127   ZZ=            -83.5514
   XY=             -0.5627   XZ=             -0.5460   YZ=             -0.1277

 Normal termination of Gaussian 16 at Wed May  5 23:01:28 2021.
