 Gaussian 16, Revision A.03,
 Gaussian 16:  EM64L-G16RevA.03 25-Dec-2016

 -------------
 #p 6-31g* mp2
 -------------

 ------------------------------------------------------
 Input file generated by CHIRIPA (05-May-2021 14:55:19)
 ------------------------------------------------------
 Symbolic Z-matrix:
 Charge =  0 Multiplicity = 1

                         Standard orientation:
 ---------------------------------------------------------------------
 Center     Atomic      Atomic             Coordinates (Angstroms)
 Number     Number       Type             X           Y           Z
 ---------------------------------------------------------------------
      1          6           0        0.633324    0.244157    0.870673
      2          6           0        1.680313    0.914538    1.511707
      3          6           0        3.003529    0.717725    1.105615
      4          6           0        3.244731   -0.160543    0.050268
      5          6           0        2.223171   -0.843116   -0.608367
      6          6           0        0.907612   -0.630988   -0.185457
      7          1           0       -0.391608    0.402995    1.192667
      8          1           0        1.470264    1.594773    2.332198
      9          1           0        3.833114    1.223780    1.584274
     10          1           0        2.463819   -1.515030   -1.423253
     11          1           0        0.096503   -1.152970   -0.685139
     12          7           0        4.641507   -0.377007   -0.388547
     13          8           0        4.827614   -1.155979   -1.320858
     14          8           0        5.523747    0.236399    0.208131
     15          6           0       -4.085816   -0.523862   -0.410621
     16          6           0       -4.348959   -1.529844    0.710422
     17          6           0       -4.802802   -2.892891    0.187047
     18          1           0       -4.999747   -0.403012   -1.008173
     19          1           0       -3.321586   -0.930897   -1.087135
     20          1           0       -5.111465   -1.120433    1.385392
     21          1           0       -3.434351   -1.648169    1.305492
     22          1           0       -4.041706   -3.326187   -0.469908
     23          1           0       -5.728350   -2.795453   -0.389554
     24          1           0       -4.985267   -3.596618    1.005175
     25          6           0       -3.631368    0.843521    0.096792
     26          6           0       -3.368225    1.849505   -1.024252
     27          6           0       -2.914382    3.212551   -0.500876
     28          1           0       -4.395598    1.250558    0.773306
     29          1           0       -2.717437    0.722672    0.694344
     30          1           0       -4.282833    1.967829   -1.619321
     31          1           0       -2.605719    1.440093   -1.699221
     32          1           0       -1.988834    3.115113    0.075725
     33          1           0       -3.675477    3.645847    0.156079
     34          1           0       -2.731917    3.916279   -1.319005
 ---------------------------------------------------------------------

 SCF Done:  E(RHF) =  -669.535471297     A.U. after   15 cycles
 E2 =    -0.2091625236D+01 EUMP2 =    -0.67162709653277D+03

 The electronic state is 1-A.
 Alpha  occ. eigenvalues --  -20.60768 -20.60763 -15.85822 -11.31196 -11.27766
 Alpha  occ. eigenvalues --  -11.27761 -11.27496 -11.26789 -11.26776 -11.22573
 Alpha  occ. eigenvalues --  -11.22535 -11.22506 -11.22398 -11.21911 -11.21835
 Alpha  occ. eigenvalues --   -1.59843  -1.39396  -1.19369  -1.09448  -1.08762
 Alpha  occ. eigenvalues --   -1.04774  -1.04435  -0.96887  -0.95597  -0.87895
 Alpha  occ. eigenvalues --   -0.86171  -0.82432  -0.80497  -0.79277  -0.77474
 Alpha  occ. eigenvalues --   -0.72039  -0.71166  -0.70508  -0.66104  -0.65020
 Alpha  occ. eigenvalues --   -0.64766  -0.62121  -0.61834  -0.60246  -0.58496
 Alpha  occ. eigenvalues --   -0.56211  -0.55281  -0.53528  -0.53298  -0.53100
 Alpha  occ. eigenvalues --   -0.52866  -0.50832  -0.48818  -0.48794  -0.48788
 Alpha  occ. eigenvalues --   -0.47542  -0.46796  -0.46735  -0.44800  -0.44724
 Alpha  occ. eigenvalues --   -0.37347  -0.36378
 Alpha virt. eigenvalues --    0.05048   0.11262   0.16469   0.18054   0.22849
 Alpha virt. eigenvalues --    0.23467   0.24711   0.25223   0.26856   0.28160
 Alpha virt. eigenvalues --    0.30099   0.30417   0.30969   0.31209   0.31627

 Mulliken charges:
               1
     1  C   -0.177004
     2  C   -0.220421
     3  C   -0.170593
     4  C    0.158485
     5  C   -0.170753
     6  C   -0.222224
     7  H    0.235566
     8  H    0.224212
     9  H    0.275671
    10  H    0.275687
    11  H    0.223581
    12  N    0.487986
    13  O   -0.460413
    14  O   -0.460329
    15  C   -0.298698
    16  C   -0.299827
    17  C   -0.475857
    18  H    0.154897
    19  H    0.145385
    20  H    0.155025
    21  H    0.147070
    22  H    0.154452
    23  H    0.157854
    24  H    0.163213
    25  C   -0.302625
    26  C   -0.300425
    27  C   -0.475547
    28  H    0.154511
    29  H    0.140086
    30  H    0.156307
    31  H    0.151964
    32  H    0.150778
    33  H    0.157032
    34  H    0.164955
 Sum of Mulliken charges =  -0.00000

 Dipole moment (field-independent basis, Debye):
    X=             -5.1468    Y=              0.7974    Z=              1.4911  Tot=              5.4174
 Quadrupole moment (field-independent basis, Debye-Ang):
   XX=           -124.7593   YY=            -94.0748   ZZ=            -92.5695
   XY=              3.7762   XZ=              6.1543   YZ=              2.0848

 Normal termination of Gaussian 16 at Thu May  6 19:03:34 2021.
