 Gaussian 16, Revision A.03,
 Gaussian 16:  EM64L-G16RevA.03 25-Dec-2016

 -------------
 #p 6-31g* mp2
 -------------

 ------------------------------------------------------
 Input file generated by CHIRIPA (05-May-2021 14:53:17)
 ------------------------------------------------------
 Symbolic Z-matrix:
 Charge =  0 Multiplicity = 1

                         Standard orientation:
 ---------------------------------------------------------------------
 Center     Atomic      Atomic             Coordinates (Angstroms)
 Number     Number       Type             X           Y           Z
 ---------------------------------------------------------------------
      1          6           0        4.053835   -0.654591    0.368640
      2          6           0        3.764599   -1.811427   -0.588470
      3          6           0        4.040265   -3.179145    0.036949
      4          1           0        5.102772   -0.707271    0.690977
      5          1           0        3.442325   -0.774960    1.273605
      6          1           0        4.375451   -1.688165   -1.491953
      7          1           0        2.716280   -1.755875   -0.908715
      8          1           0        3.420455   -3.327687    0.927101
      9          1           0        5.089053   -3.259591    0.340550
     10          1           0        3.826848   -3.991717   -0.664507
     11          6           0        3.783054    0.719203   -0.242176
     12          6           0        4.072291    1.876038    0.714933
     13          6           0        3.796625    3.243757    0.089515
     14          1           0        4.394564    0.839571   -1.147141
     15          1           0        2.734117    0.771883   -0.564513
     16          1           0        5.120610    1.820487    1.035179
     17          1           0        3.461439    1.752776    1.618417
     18          1           0        2.747837    3.324203   -0.214086
     19          1           0        4.416435    3.392298   -0.800638
     20          1           0        4.010042    4.056328    0.790971
     21          6           0       -0.557805   -0.112355   -0.350936
     22          6           0       -1.249088    1.082220   -0.578181
     23          6           0       -2.636196    1.142087   -0.414186
     24          6           0       -3.303313   -0.016816   -0.020249
     25          6           0       -2.642822   -1.221919    0.213783
     26          6           0       -1.255648   -1.258591    0.043626
     27          1           0        0.519759   -0.149852   -0.480725
     28          1           0       -0.709738    1.973963   -0.884680
     29          1           0       -3.196292    2.053725   -0.583388
     30          1           0       -3.207918   -2.094401    0.518510
     31          1           0       -0.721403   -2.187694    0.220813
     32          7           0       -4.771816    0.034284    0.156627
     33          8           0       -5.336375   -1.000601    0.504367
     34          8           0       -5.330464    1.108255   -0.055824
 ---------------------------------------------------------------------

 SCF Done:  E(RHF) =  -669.535352832     A.U. after   15 cycles
 E2 =    -0.2091729071D+01 EUMP2 =    -0.67162708190317D+03

 The electronic state is 1-A.
 Alpha  occ. eigenvalues --  -20.60747 -20.60742 -15.85801 -11.31168 -11.27740
 Alpha  occ. eigenvalues --  -11.27736 -11.27456 -11.26755 -11.26744 -11.22753
 Alpha  occ. eigenvalues --  -11.22617 -11.22542 -11.22459 -11.22019 -11.21974
 Alpha  occ. eigenvalues --   -1.59823  -1.39376  -1.19341  -1.09538  -1.08734
 Alpha  occ. eigenvalues --   -1.04746  -1.04549  -0.96992  -0.95572  -0.88001
 Alpha  occ. eigenvalues --   -0.86143  -0.82408  -0.80611  -0.79360  -0.77450
 Alpha  occ. eigenvalues --   -0.72019  -0.71146  -0.70490  -0.66182  -0.64994
 Alpha  occ. eigenvalues --   -0.64741  -0.62105  -0.61943  -0.60350  -0.58601
 Alpha  occ. eigenvalues --   -0.56332  -0.55228  -0.53645  -0.53400  -0.53074
 Alpha  occ. eigenvalues --   -0.52837  -0.50941  -0.48922  -0.48780  -0.48774
 Alpha  occ. eigenvalues --   -0.47667  -0.46882  -0.46796  -0.44825  -0.44782
 Alpha  occ. eigenvalues --   -0.37319  -0.36352
 Alpha virt. eigenvalues --    0.05083   0.11298   0.16562   0.17934   0.22481
 Alpha virt. eigenvalues --    0.23153   0.24869   0.26151   0.26349   0.27141
 Alpha virt. eigenvalues --    0.29944   0.30386   0.30868   0.31183   0.31967

 Mulliken charges:
               1
     1  C   -0.300295
     2  C   -0.301344
     3  C   -0.476407
     4  H    0.155239
     5  H    0.149661
     6  H    0.156745
     7  H    0.142660
     8  H    0.154403
     9  H    0.159441
    10  H    0.162948
    11  C   -0.301521
    12  C   -0.300691
    13  C   -0.474957
    14  H    0.154534
    15  H    0.139158
    16  H    0.156189
    17  H    0.153688
    18  H    0.149527
    19  H    0.157655
    20  H    0.164637
    21  C   -0.180290
    22  C   -0.221968
    23  C   -0.170592
    24  C    0.158181
    25  C   -0.170553
    26  C   -0.221253
    27  H    0.240107
    28  H    0.223192
    29  H    0.275622
    30  H    0.275515
    31  H    0.223717
    32  N    0.487976
    33  O   -0.460467
    34  O   -0.460459
 Sum of Mulliken charges =  -0.00000

 Dipole moment (field-independent basis, Debye):
    X=              5.4788    Y=             -0.1780    Z=             -0.5743  Tot=              5.5116
 Quadrupole moment (field-independent basis, Debye-Ang):
   XX=           -127.1878   YY=            -90.8112   ZZ=            -95.1997
   XY=              0.7193   XZ=              1.7093   YZ=             -1.0646

 Normal termination of Gaussian 16 at Thu May  6 04:23:54 2021.
