 Gaussian 16, Revision A.03,
 Gaussian 16:  EM64L-G16RevA.03 25-Dec-2016

 -------------
 #p 6-31g* mp2
 -------------

 ------------------------------------------------------
 Input file generated by CHIRIPA (05-May-2021 14:57:26)
 ------------------------------------------------------
 Symbolic Z-matrix:
 Charge =  0 Multiplicity = 1

                         Standard orientation:
 ---------------------------------------------------------------------
 Center     Atomic      Atomic             Coordinates (Angstroms)
 Number     Number       Type             X           Y           Z
 ---------------------------------------------------------------------
      1          6           0        5.417839    0.627246    1.458648
      2          6           0        4.714023   -0.573446    1.598300
      3          6           0        3.652611   -0.878129    0.740909
      4          6           0        3.320430    0.044860   -0.249565
      5          6           0        4.002464    1.249465   -0.414022
      6          6           0        5.060444    1.533272    0.454702
      7          1           0        6.241036    0.855822    2.129092
      8          1           0        4.989371   -1.278955    2.377073
      9          1           0        3.090803   -1.800318    0.826684
     10          1           0        3.704691    1.932974   -1.199874
     11          1           0        5.605261    2.466515    0.343904
     12          7           0        2.198578   -0.266644   -1.163246
     13          8           0        1.925592    0.563206   -2.027805
     14          8           0        1.613498   -1.334753   -0.997528
     15          6           0       -5.116278    1.764729    0.653688
     16          6           0       -4.259551    1.884932   -0.445445
     17          6           0       -3.362885    0.860126   -0.762166
     18          6           0       -3.349584   -0.276107    0.045352
     19          6           0       -4.190578   -0.425482    1.147035
     20          6           0       -5.079122    0.611938    1.445025
     21          1           0       -5.809675    2.565722    0.892449
     22          1           0       -4.286213    2.779065   -1.061773
     23          1           0       -2.688533    0.927053   -1.607263
     24          1           0       -4.140886   -1.328804    1.742818
     25          1           0       -5.743303    0.515848    2.299235
     26          7           0       -2.404623   -1.367699   -0.280031
     27          8           0       -2.412419   -2.358585    0.447101
     28          8           0       -1.674060   -1.211735   -1.256038
 ---------------------------------------------------------------------

 SCF Done:  E(RHF) =  -868.335080410     A.U. after   16 cycles
 E2 =    -0.2600440199D+01 EUMP2 =    -0.87093552060885D+03

 The electronic state is 1-A.
 Alpha  occ. eigenvalues --  -20.59881 -20.59761 -20.59683 -20.59535 -15.84885
 Alpha  occ. eigenvalues --  -15.84663 -11.30588 -11.30399 -11.27225 -11.27162
 Alpha  occ. eigenvalues --  -11.27049 -11.27012 -11.26963 -11.26850 -11.26308
 Alpha  occ. eigenvalues --  -11.26269 -11.26142 -11.26096  -1.58895  -1.58684
 Alpha  occ. eigenvalues --   -1.38442  -1.38224  -1.18796  -1.18615  -1.08130
 Alpha  occ. eigenvalues --   -1.07946  -1.04246  -1.04068  -0.94907  -0.94708
 Alpha  occ. eigenvalues --   -0.85629  -0.85450  -0.81735  -0.81534  -0.76725
 Alpha  occ. eigenvalues --   -0.76521  -0.71137  -0.70818  -0.70275  -0.69998
 Alpha  occ. eigenvalues --   -0.69901  -0.69720  -0.64438  -0.64266  -0.64239
 Alpha  occ. eigenvalues --   -0.64076  -0.61586  -0.61403  -0.54741  -0.54571
 Alpha  occ. eigenvalues --   -0.52564  -0.52388  -0.52341  -0.52163  -0.47971
 Alpha  occ. eigenvalues --   -0.47856  -0.47641  -0.47479  -0.43870  -0.43423
 Alpha  occ. eigenvalues --   -0.36803  -0.36628  -0.35868  -0.35692
 Alpha virt. eigenvalues --    0.05767   0.06056   0.11781   0.11956   0.17215
 Alpha virt. eigenvalues --    0.17458   0.21882   0.22050   0.27771   0.27941
 Alpha virt. eigenvalues --    0.28811   0.28998   0.31406   0.31574   0.33091

 Mulliken charges:
               1
     1  C   -0.172040
     2  C   -0.218759
     3  C   -0.171776
     4  C    0.158500
     5  C   -0.172222
     6  C   -0.218677
     7  H    0.223228
     8  H    0.222320
     9  H    0.279242
    10  H    0.273433
    11  H    0.220770
    12  N    0.485788
    13  O   -0.466700
    14  O   -0.442976
    15  C   -0.172238
    16  C   -0.219116
    17  C   -0.172185
    18  C    0.158182
    19  C   -0.172278
    20  C   -0.218883
    21  H    0.222457
    22  H    0.221815
    23  H    0.281838
    24  H    0.273560
    25  H    0.220240
    26  N    0.485610
    27  O   -0.467738
    28  O   -0.441393
 Sum of Mulliken charges =  -0.00000

 Dipole moment (field-independent basis, Debye):
    X=              0.6845    Y=              4.7199    Z=              4.1434  Tot=              6.3177
 Quadrupole moment (field-independent basis, Debye-Ang):
   XX=            -59.3049   YY=           -102.5749   ZZ=           -103.1781
   XY=             -6.8347   XZ=              4.3115   YZ=             -4.8184

 Normal termination of Gaussian 16 at Thu May  6 02:02:08 2021.
