 Gaussian 16, Revision A.03,
 Gaussian 16:  EM64L-G16RevA.03 25-Dec-2016

 -------------
 #p 6-31g* mp2
 -------------

 ------------------------------------------------------
 Input file generated by CHIRIPA (05-May-2021 14:51:08)
 ------------------------------------------------------
 Symbolic Z-matrix:
 Charge =  0 Multiplicity = 1

                         Standard orientation:
 ---------------------------------------------------------------------
 Center     Atomic      Atomic             Coordinates (Angstroms)
 Number     Number       Type             X           Y           Z
 ---------------------------------------------------------------------
      1          6           0       -2.672375   -0.526932    0.874051
      2          6           0       -1.396924   -1.279122    0.492711
      3          6           0       -0.647443   -1.826072    1.707996
      4          1           0       -2.414683    0.299679    1.550257
      5          1           0       -3.331297   -1.199916    1.440010
      6          1           0       -0.741205   -0.605331   -0.073553
      7          1           0       -1.657659   -2.103922   -0.182818
      8          1           0       -1.280597   -2.519308    2.271149
      9          1           0       -0.358935   -1.012203    2.381035
     10          1           0        0.261039   -2.360101    1.412474
     11          6           0       -3.432688    0.025834   -0.330151
     12          6           0       -4.708138    0.778024    0.051190
     13          6           0       -5.457619    1.324974   -1.164096
     14          1           0       -2.773766    0.698818   -0.896109
     15          1           0       -3.690380   -0.800777   -1.006356
     16          1           0       -4.447403    1.602824    0.726718
     17          1           0       -5.363858    0.104234    0.617453
     18          1           0       -5.746127    0.511105   -1.837135
     19          1           0       -4.824466    2.018210   -1.727249
     20          1           0       -6.366101    1.859004   -0.868574
     21          6           0        2.837671    0.978998   -0.353369
     22          6           0        3.650991    1.950390    0.502724
     23          6           0        3.209352    3.403849    0.328927
     24          1           0        2.927763    1.267284   -1.409646
     25          1           0        1.774331    1.073710   -0.093116
     26          1           0        4.712633    1.852885    0.241910
     27          1           0        3.559110    1.659643    1.557067
     28          1           0        2.157465    3.522872    0.608149
     29          1           0        3.317543    3.717212   -0.714481
     30          1           0        3.803935    4.081099    0.949946
     31          6           0        3.267391   -0.477901   -0.190531
     32          6           0        2.454072   -1.449292   -1.046624
     33          6           0        2.895709   -2.902751   -0.872828
     34          1           0        4.330731   -0.572612   -0.450784
     35          1           0        3.177301   -0.766186    0.865745
     36          1           0        2.545953   -1.158545   -2.100968
     37          1           0        1.392429   -1.351788   -0.785811
     38          1           0        2.787520   -3.216113    0.170581
     39          1           0        3.947598   -3.021773   -1.152049
     40          1           0        2.301128   -3.580002   -1.493846
 ---------------------------------------------------------------------

 SCF Done:  E(RHF) =  -470.732954672     A.U. after   11 cycles
 E2 =    -0.1583811826D+01 EUMP2 =    -0.47231676649875D+03

 The electronic state is 1-A.
 Alpha  occ. eigenvalues --  -11.21669 -11.21626 -11.21613 -11.21515 -11.21449
 Alpha  occ. eigenvalues --  -11.21406 -11.21386 -11.21334 -11.21144 -11.21090
 Alpha  occ. eigenvalues --  -11.21087 -11.21065  -1.08492  -1.08410  -1.03613
 Alpha  occ. eigenvalues --   -1.03494  -0.96037  -0.95970  -0.87043  -0.86994
 Alpha  occ. eigenvalues --   -0.79708  -0.79539  -0.78355  -0.78170  -0.65232
 Alpha  occ. eigenvalues --   -0.64969  -0.61122  -0.60875  -0.59405  -0.59281
 Alpha  occ. eigenvalues --   -0.57659  -0.57547  -0.55318  -0.55258  -0.52717
 Alpha  occ. eigenvalues --   -0.52669  -0.52455  -0.52389  -0.49972  -0.49924
 Alpha  occ. eigenvalues --   -0.48034  -0.47869  -0.46857  -0.46527  -0.46002
 Alpha  occ. eigenvalues --   -0.45796  -0.45752  -0.45339  -0.43826  -0.43774
 Alpha virt. eigenvalues --    0.20066   0.22911   0.23671   0.24424   0.25790
 Alpha virt. eigenvalues --    0.26564   0.26904   0.27729   0.28148   0.29278
 Alpha virt. eigenvalues --    0.30529   0.31181   0.31526   0.31779   0.32272

 Mulliken charges:
               1
     1  C   -0.297625
     2  C   -0.305003
     3  C   -0.480062
     4  H    0.149479
     5  H    0.149780
     6  H    0.155385
     7  H    0.152632
     8  H    0.156117
     9  H    0.154885
    10  H    0.164009
    11  C   -0.298508
    12  C   -0.299683
    13  C   -0.475752
    14  H    0.149781
    15  H    0.149831
    16  H    0.151947
    17  H    0.151989
    18  H    0.155237
    19  H    0.155323
    20  H    0.160343
    21  C   -0.300097
    22  C   -0.299661
    23  C   -0.475658
    24  H    0.149682
    25  H    0.149991
    26  H    0.152187
    27  H    0.152078
    28  H    0.154742
    29  H    0.155214
    30  H    0.160360
    31  C   -0.297913
    32  C   -0.310351
    33  C   -0.476601
    34  H    0.149393
    35  H    0.150055
    36  H    0.151606
    37  H    0.164129
    38  H    0.155192
    39  H    0.155289
    40  H    0.160260
 Sum of Mulliken charges =  -0.00000

 Dipole moment (field-independent basis, Debye):
    X=             -0.0290    Y=             -0.0071    Z=             -0.0011  Tot=              0.0299
 Quadrupole moment (field-independent basis, Debye-Ang):
   XX=            -84.5311   YY=            -85.4243   ZZ=            -84.8154
   XY=              1.1213   XZ=             -0.9656   YZ=              0.3304

 Normal termination of Gaussian 16 at Wed May  5 15:04:08 2021.
