 Gaussian 16, Revision A.03,
 Gaussian 16:  EM64L-G16RevA.03 25-Dec-2016

 -------------
 #p 6-31g* mp2
 -------------

 ------------------------------------------------------
 Input file generated by CHIRIPA (05-May-2021 14:55:23)
 ------------------------------------------------------
 Symbolic Z-matrix:
 Charge =  0 Multiplicity = 1

                         Standard orientation:
 ---------------------------------------------------------------------
 Center     Atomic      Atomic             Coordinates (Angstroms)
 Number     Number       Type             X           Y           Z
 ---------------------------------------------------------------------
      1          6           0        1.910054    2.308644    0.799699
      2          6           0        3.153189    2.464231    0.177664
      3          6           0        3.850752    1.352073   -0.303022
      4          6           0        3.273090    0.093356   -0.144186
      5          6           0        2.036324   -0.094145    0.471072
      6          6           0        1.356564    1.032203    0.944163
      7          1           0        1.375085    3.178106    1.170158
      8          1           0        3.585460    3.454326    0.064093
      9          1           0        4.814735    1.443858   -0.788544
     10          1           0        1.630955   -1.093822    0.569760
     11          1           0        0.391295    0.908368    1.426828
     12          7           0        4.002145   -1.091547   -0.649047
     13          8           0        3.471662   -2.189755   -0.496850
     14          8           0        5.090257   -0.899629   -1.187395
     15          6           0       -3.662663   -0.973260    0.360299
     16          6           0       -2.222493   -0.660089    0.767512
     17          6           0       -1.489156   -1.877985    1.330307
     18          1           0       -4.207515   -1.360574    1.232117
     19          1           0       -3.658024   -1.777791   -0.388102
     20          1           0       -2.229767    0.144564    1.513901
     21          1           0       -1.681058   -0.273296   -0.105332
     22          1           0       -1.452275   -2.682248    0.588416
     23          1           0       -2.004101   -2.262014    2.216848
     24          1           0       -0.461473   -1.631642    1.614986
     25          6           0       -4.408846    0.234336   -0.204193
     26          6           0       -5.849016   -0.078835   -0.611405
     27          6           0       -6.582354    1.139061   -1.174201
     28          1           0       -4.413486    1.038867    0.544208
     29          1           0       -3.863994    0.621649   -1.076011
     30          1           0       -6.390451   -0.465629    0.261438
     31          1           0       -5.841743   -0.883488   -1.357795
     32          1           0       -6.067409    1.523090   -2.060742
     33          1           0       -6.619235    1.943323   -0.432310
     34          1           0       -7.610037    0.892717   -1.458880
 ---------------------------------------------------------------------

 SCF Done:  E(RHF) =  -669.535141838     A.U. after   15 cycles
 E2 =    -0.2092157761D+01 EUMP2 =    -0.67162729959913D+03

 The electronic state is 1-A.
 Alpha  occ. eigenvalues --  -20.60719 -20.60713 -15.85770 -11.31120 -11.27696
 Alpha  occ. eigenvalues --  -11.27657 -11.27427 -11.26714 -11.26651 -11.22501
 Alpha  occ. eigenvalues --  -11.22026 -11.22011 -11.21955 -11.21901 -11.21432
 Alpha  occ. eigenvalues --   -1.59794  -1.39347  -1.19293  -1.09054  -1.08690
 Alpha  occ. eigenvalues --   -1.04709  -1.04164  -0.96608  -0.95528  -0.87620
 Alpha  occ. eigenvalues --   -0.86091  -0.82365  -0.80258  -0.78848  -0.77413
 Alpha  occ. eigenvalues --   -0.71990  -0.71117  -0.70417  -0.65671  -0.64952
 Alpha  occ. eigenvalues --   -0.64698  -0.62224  -0.61545  -0.59903  -0.58187
 Alpha  occ. eigenvalues --   -0.55853  -0.55190  -0.53328  -0.53039  -0.53015
 Alpha  occ. eigenvalues --   -0.52765  -0.50513  -0.48759  -0.48743  -0.48543
 Alpha  occ. eigenvalues --   -0.47271  -0.46379  -0.46283  -0.44756  -0.44418
 Alpha  occ. eigenvalues --   -0.37275  -0.36289
 Alpha virt. eigenvalues --    0.05106   0.11348   0.16556   0.19751   0.22556
 Alpha virt. eigenvalues --    0.23802   0.25638   0.26086   0.26560   0.27936
 Alpha virt. eigenvalues --    0.29259   0.29694   0.30881   0.31418   0.31966

 Mulliken charges:
               1
     1  C   -0.171997
     2  C   -0.218672
     3  C   -0.170929
     4  C    0.160417
     5  C   -0.180036
     6  C   -0.223848
     7  H    0.225579
     8  H    0.223161
     9  H    0.275304
    10  H    0.280972
    11  H    0.232374
    12  N    0.488350
    13  O   -0.460530
    14  O   -0.460742
    15  C   -0.298454
    16  C   -0.306263
    17  C   -0.480558
    18  H    0.151755
    19  H    0.153823
    20  H    0.145442
    21  H    0.154973
    22  H    0.164688
    23  H    0.160839
    24  H    0.152028
    25  C   -0.298942
    26  C   -0.300268
    27  C   -0.476056
    28  H    0.147930
    29  H    0.150638
    30  H    0.152778
    31  H    0.153858
    32  H    0.155744
    33  H    0.154696
    34  H    0.161946
 Sum of Mulliken charges =  -0.00000

 Dipole moment (field-independent basis, Debye):
    X=             -2.7870    Y=              4.0880    Z=              1.7250  Tot=              5.2397
 Quadrupole moment (field-independent basis, Debye-Ang):
   XX=           -108.8826   YY=            -92.9245   ZZ=            -94.8800
   XY=             16.7992   XZ=              4.3712   YZ=             -0.9561

 Normal termination of Gaussian 16 at Thu May  6 07:51:24 2021.
