 Gaussian 16, Revision A.03,
 Gaussian 16:  EM64L-G16RevA.03 25-Dec-2016

 -------------
 #p 6-31g* mp2
 -------------

 ------------------------------------------------------
 Input file generated by CHIRIPA (05-May-2021 14:55:20)
 ------------------------------------------------------
 Symbolic Z-matrix:
 Charge =  0 Multiplicity = 1

                         Standard orientation:
 ---------------------------------------------------------------------
 Center     Atomic      Atomic             Coordinates (Angstroms)
 Number     Number       Type             X           Y           Z
 ---------------------------------------------------------------------
      1          6           0        0.247074   -2.360678    1.218044
      2          6           0        0.926073   -1.370023    1.935042
      3          6           0        1.785427   -0.482667    1.280323
      4          6           0        1.943054   -0.615140   -0.098406
      5          6           0        1.280580   -1.591679   -0.840558
      6          6           0        0.426179   -2.468154   -0.165029
      7          1           0       -0.418569   -3.045771    1.734728
      8          1           0        0.788903   -1.284207    3.009223
      9          1           0        2.323463    0.293507    1.810879
     10          1           0        1.437607   -1.652479   -1.910634
     11          1           0       -0.099843   -3.236540   -0.724429
     12          7           0        2.850192    0.318504   -0.802542
     13          8           0        2.971932    0.180903   -2.017813
     14          8           0        3.422290    1.170218   -0.125841
     15          6           0       -3.031212    0.855227   -0.183340
     16          6           0       -3.345849   -0.618722   -0.441148
     17          6           0       -4.821153   -0.861033   -0.761388
     18          1           0       -3.652397    1.216258    0.647763
     19          1           0       -3.317257    1.443844   -1.066007
     20          1           0       -3.058015   -1.204563    0.441211
     21          1           0       -2.723704   -0.976338   -1.271608
     22          1           0       -5.118482   -0.301582   -1.654254
     23          1           0       -5.454692   -0.531103    0.068297
     24          1           0       -5.023837   -1.921259   -0.942219
     25          6           0       -1.560268    1.113455    0.138170
     26          6           0       -1.245631    2.587403    0.395979
     27          6           0        0.229674    2.829714    0.716218
     28          1           0       -1.274223    0.524838    1.020838
     29          1           0       -0.939083    0.752424   -0.692932
     30          1           0       -1.867776    2.945019    1.226438
     31          1           0       -1.533464    3.173245   -0.486380
     32          1           0        0.863213    2.499785   -0.113466
     33          1           0        0.527002    2.270263    1.609084
     34          1           0        0.432358    3.889940    0.897049
 ---------------------------------------------------------------------

 SCF Done:  E(RHF) =  -669.533922897     A.U. after   15 cycles
 E2 =    -0.2097053176D+01 EUMP2 =    -0.67163097607347D+03

 The electronic state is 1-A.
 Alpha  occ. eigenvalues --  -20.60881 -20.60856 -15.85891 -11.31218 -11.27821
 Alpha  occ. eigenvalues --  -11.27796 -11.27564 -11.26827 -11.26809 -11.21929
 Alpha  occ. eigenvalues --  -11.21488 -11.21430 -11.21395 -11.21226 -11.20763
 Alpha  occ. eigenvalues --   -1.59939  -1.39491  -1.19424  -1.08822  -1.08477
 Alpha  occ. eigenvalues --   -1.04832  -1.03583  -0.96011  -0.95658  -0.87039
 Alpha  occ. eigenvalues --   -0.86212  -0.82496  -0.79676  -0.78300  -0.77537
 Alpha  occ. eigenvalues --   -0.72125  -0.71272  -0.70540  -0.65141  -0.65071
 Alpha  occ. eigenvalues --   -0.64829  -0.62186  -0.60989  -0.59420  -0.57635
 Alpha  occ. eigenvalues --   -0.55357  -0.55280  -0.53357  -0.52942  -0.52655
 Alpha  occ. eigenvalues --   -0.52355  -0.49974  -0.48889  -0.48883  -0.48000
 Alpha  occ. eigenvalues --   -0.46734  -0.45809  -0.45667  -0.44781  -0.43804
 Alpha  occ. eigenvalues --   -0.37334  -0.36326
 Alpha virt. eigenvalues --    0.04944   0.11129   0.16358   0.20954   0.22920
 Alpha virt. eigenvalues --    0.23977   0.26056   0.26861   0.27267   0.27815
 Alpha virt. eigenvalues --    0.28417   0.30501   0.31247   0.31734   0.32216

 Mulliken charges:
               1
     1  C   -0.168859
     2  C   -0.221166
     3  C   -0.165824
     4  C    0.160137
     5  C   -0.173007
     6  C   -0.214405
     7  H    0.225970
     8  H    0.223397
     9  H    0.276524
    10  H    0.275523
    11  H    0.224120
    12  N    0.486822
    13  O   -0.459957
    14  O   -0.457073
    15  C   -0.297935
    16  C   -0.297489
    17  C   -0.475598
    18  H    0.148294
    19  H    0.150750
    20  H    0.145100
    21  H    0.149429
    22  H    0.157359
    23  H    0.155565
    24  H    0.157268
    25  C   -0.302892
    26  C   -0.300305
    27  C   -0.474783
    28  H    0.150509
    29  H    0.150276
    30  H    0.148583
    31  H    0.153005
    32  H    0.162972
    33  H    0.145139
    34  H    0.162549
 Sum of Mulliken charges =  -0.00000

 Dipole moment (field-independent basis, Debye):
    X=             -3.0147    Y=             -3.3000    Z=              2.4516  Tot=              5.0979
 Quadrupole moment (field-independent basis, Debye-Ang):
   XX=           -109.0458   YY=            -90.2281   ZZ=            -90.7742
   XY=             -4.1885   XZ=              5.8315   YZ=              0.6386

 Normal termination of Gaussian 16 at Thu May  6 07:44:14 2021.
