 Gaussian 16, Revision A.03,
 Gaussian 16:  EM64L-G16RevA.03 25-Dec-2016

 -------------
 #p 6-31g* mp2
 -------------

 ------------------------------------------------------
 Input file generated by CHIRIPA (05-May-2021 14:53:11)
 ------------------------------------------------------
 Symbolic Z-matrix:
 Charge =  0 Multiplicity = 1

                         Standard orientation:
 ---------------------------------------------------------------------
 Center     Atomic      Atomic             Coordinates (Angstroms)
 Number     Number       Type             X           Y           Z
 ---------------------------------------------------------------------
      1          6           0        2.834563   -0.582861    0.863011
      2          6           0        1.663698   -1.521670    0.570268
      3          6           0        0.675323   -1.614419    1.733155
      4          1           0        3.358131   -0.930016    1.764290
      5          1           0        2.444113    0.417867    1.094285
      6          1           0        2.056308   -2.519992    0.338260
      7          1           0        1.142971   -1.172350   -0.330529
      8          1           0        0.256027   -0.629288    1.961868
      9          1           0        1.174553   -1.984586    2.634458
     10          1           0       -0.153677   -2.290736    1.502474
     11          6           0        3.831244   -0.479639   -0.290115
     12          6           0        5.002109    0.459170    0.002628
     13          6           0        5.990483    0.551918   -1.160260
     14          1           0        4.221693   -1.480367   -0.521390
     15          1           0        3.307675   -0.132485   -1.191395
     16          1           0        5.522835    0.109850    0.903425
     17          1           0        4.609499    1.457491    0.234636
     18          1           0        5.491254    0.922086   -2.061562
     19          1           0        6.409780   -0.433212   -1.388973
     20          1           0        6.819484    1.228236   -0.929579
     21          6           0       -0.874879    2.198406    0.219217
     22          6           0       -2.150286    2.304327    0.783698
     23          6           0       -3.116157    1.322142    0.545047
     24          6           0       -2.770979    0.242629   -0.266616
     25          6           0       -1.508930    0.108846   -0.843351
     26          6           0       -0.558829    1.102935   -0.591077
     27          1           0       -0.130693    2.966014    0.409898
     28          1           0       -2.398537    3.153980    1.413386
     29          1           0       -4.111185    1.379211    0.969406
     30          1           0       -1.290981   -0.749760   -1.466819
     31          1           0        0.430867    1.018063   -1.030786
     32          7           0       -3.785156   -0.803467   -0.526475
     33          8           0       -3.456132   -1.744700   -1.245127
     34          8           0       -4.889890   -0.662356   -0.006581
 ---------------------------------------------------------------------

 SCF Done:  E(RHF) =  -669.534059052     A.U. after   15 cycles
 E2 =    -0.2094521253D+01 EUMP2 =    -0.67162858030495D+03

 The electronic state is 1-A.
 Alpha  occ. eigenvalues --  -20.60801 -20.60795 -15.85854 -11.31241 -11.27799
 Alpha  occ. eigenvalues --  -11.27795 -11.27561 -11.26836 -11.26810 -11.22248
 Alpha  occ. eigenvalues --  -11.22125 -11.22102 -11.22021 -11.21618 -11.21277
 Alpha  occ. eigenvalues --   -1.59875  -1.39428  -1.19422  -1.09079  -1.08805
 Alpha  occ. eigenvalues --   -1.04856  -1.04038  -0.96491  -0.95640  -0.87503
 Alpha  occ. eigenvalues --   -0.86223  -0.82492  -0.80139  -0.78901  -0.77517
 Alpha  occ. eigenvalues --   -0.72073  -0.71198  -0.70529  -0.65863  -0.65074
 Alpha  occ. eigenvalues --   -0.64762  -0.62286  -0.61368  -0.59855  -0.58101
 Alpha  occ. eigenvalues --   -0.55850  -0.55325  -0.53179  -0.53039  -0.52937
 Alpha  occ. eigenvalues --   -0.52865  -0.50414  -0.48833  -0.48826  -0.48430
 Alpha  occ. eigenvalues --   -0.47194  -0.46421  -0.46370  -0.44828  -0.44337
 Alpha  occ. eigenvalues --   -0.37396  -0.36347
 Alpha virt. eigenvalues --    0.04998   0.11124   0.16394   0.19292   0.22842
 Alpha virt. eigenvalues --    0.24096   0.24977   0.25962   0.26784   0.28479
 Alpha virt. eigenvalues --    0.29036   0.30994   0.31185   0.31346   0.32070

 Mulliken charges:
               1
     1  C   -0.299854
     2  C   -0.298708
     3  C   -0.478534
     4  H    0.154168
     5  H    0.142895
     6  H    0.156044
     7  H    0.141064
     8  H    0.158042
     9  H    0.155426
    10  H    0.165201
    11  C   -0.298929
    12  C   -0.299212
    13  C   -0.475902
    14  H    0.154040
    15  H    0.142416
    16  H    0.154701
    17  H    0.148353
    18  H    0.154172
    19  H    0.157468
    20  H    0.161843
    21  C   -0.174077
    22  C   -0.218363
    23  C   -0.171161
    24  C    0.157977
    25  C   -0.167467
    26  C   -0.217843
    27  H    0.225908
    28  H    0.223822
    29  H    0.275869
    30  H    0.276116
    31  H    0.226924
    32  N    0.488120
    33  O   -0.460372
    34  O   -0.460145
 Sum of Mulliken charges =  -0.00000

 Dipole moment (field-independent basis, Debye):
    X=              3.5889    Y=              3.6266    Z=              0.9804  Tot=              5.1955
 Quadrupole moment (field-independent basis, Debye-Ang):
   XX=           -112.6480   YY=            -91.5374   ZZ=            -94.6214
   XY=            -12.0386   XZ=             -4.7882   YZ=              0.6427

 Normal termination of Gaussian 16 at Thu May  6 02:30:59 2021.
