 Gaussian 16, Revision A.03,
 Gaussian 16:  EM64L-G16RevA.03 25-Dec-2016

 -------------
 #p 6-31g* mp2
 -------------

 ------------------------------------------------------
 Input file generated by CHIRIPA (05-May-2021 14:51:08)
 ------------------------------------------------------
 Symbolic Z-matrix:
 Charge =  0 Multiplicity = 1

                         Standard orientation:
 ---------------------------------------------------------------------
 Center     Atomic      Atomic             Coordinates (Angstroms)
 Number     Number       Type             X           Y           Z
 ---------------------------------------------------------------------
      1          6           0       -3.183113   -0.322849    0.453949
      2          6           0       -1.914123   -0.327324   -0.399062
      3          6           0       -0.640631   -0.460898    0.436505
      4          1           0       -3.128662    0.502903    1.176523
      5          1           0       -3.224716   -1.250302    1.041738
      6          1           0       -1.875626    0.599238   -0.986103
      7          1           0       -1.971687   -1.153045   -1.119817
      8          1           0       -0.652626   -1.392956    1.010722
      9          1           0       -0.556019    0.369282    1.145195
     10          1           0        0.254485   -0.461912   -0.193277
     11          6           0       -4.464505   -0.189951   -0.367087
     12          6           0       -5.733496   -0.185476    0.485924
     13          6           0       -7.006987   -0.051901   -0.349643
     14          1           0       -4.422903    0.737502   -0.954876
     15          1           0       -4.518957   -1.015703   -1.089661
     16          1           0       -5.675931    0.640245    1.206679
     17          1           0       -5.771992   -1.112037    1.072965
     18          1           0       -7.091599   -0.882082   -1.058334
     19          1           0       -6.994992    0.880157   -0.923860
     20          1           0       -7.902104   -0.050888    0.280139
     21          6           0        3.258925    0.751393   -0.182426
     22          6           0        3.614088    2.193961    0.179295
     23          6           0        2.473952    3.172409   -0.104471
     24          1           0        2.988322    0.702795   -1.246078
     25          1           0        2.365769    0.448605    0.381478
     26          1           0        4.507122    2.493477   -0.384084
     27          1           0        3.884061    2.239096    1.242166
     28          1           0        1.581727    2.901066    0.469037
     29          1           0        2.208327    3.156892   -1.166452
     30          1           0        2.749324    4.197753    0.161418
     31          6           0        4.388694   -0.238593    0.095564
     32          6           0        4.033531   -1.681161   -0.266157
     33          6           0        5.173667   -2.659608    0.017609
     34          1           0        5.281850    0.064196   -0.468339
     35          1           0        4.659297   -0.189996    1.159216
     36          1           0        3.763557   -1.726296   -1.329028
     37          1           0        3.140497   -1.980677    0.297222
     38          1           0        5.439291   -2.644093    1.079591
     39          1           0        6.065891   -2.388267   -0.555899
     40          1           0        4.898295   -3.684954   -0.248280
 ---------------------------------------------------------------------

 SCF Done:  E(RHF) =  -470.733105690     A.U. after   11 cycles
 E2 =    -0.1582828411D+01 EUMP2 =    -0.47231593410136D+03

 The electronic state is 1-A.
 Alpha  occ. eigenvalues --  -11.21598 -11.21594 -11.21576 -11.21569 -11.21400
 Alpha  occ. eigenvalues --  -11.21353 -11.21340 -11.21278 -11.21068 -11.21052
 Alpha  occ. eigenvalues --  -11.21052 -11.21047  -1.08430  -1.08392  -1.03531
 Alpha  occ. eigenvalues --   -1.03497  -0.95997  -0.95935  -0.87024  -0.86947
 Alpha  occ. eigenvalues --   -0.79625  -0.79544  -0.78261  -0.78188  -0.65067
 Alpha  occ. eigenvalues --   -0.65021  -0.60957  -0.60867  -0.59393  -0.59291
 Alpha  occ. eigenvalues --   -0.57662  -0.57491  -0.55270  -0.55239  -0.52797
 Alpha  occ. eigenvalues --   -0.52621  -0.52429  -0.52285  -0.49934  -0.49883
 Alpha  occ. eigenvalues --   -0.47926  -0.47866  -0.46675  -0.46549  -0.45796
 Alpha  occ. eigenvalues --   -0.45756  -0.45711  -0.45650  -0.43769  -0.43657
 Alpha virt. eigenvalues --    0.21817   0.23050   0.23823   0.24528   0.25968
 Alpha virt. eigenvalues --    0.26492   0.26732   0.27465   0.27791   0.29266
 Alpha virt. eigenvalues --    0.30369   0.31564   0.31678   0.31899   0.32229

 Mulliken charges:
               1
     1  C   -0.298524
     2  C   -0.299596
     3  C   -0.481734
     4  H    0.149536
     5  H    0.149396
     6  H    0.152409
     7  H    0.151955
     8  H    0.154552
     9  H    0.154033
    10  H    0.167782
    11  C   -0.298280
    12  C   -0.299617
    13  C   -0.475701
    14  H    0.149612
    15  H    0.149628
    16  H    0.151932
    17  H    0.151878
    18  H    0.155165
    19  H    0.155214
    20  H    0.160232
    21  C   -0.306205
    22  C   -0.299055
    23  C   -0.476248
    24  H    0.148279
    25  H    0.159663
    26  H    0.151647
    27  H    0.151739
    28  H    0.155615
    29  H    0.154923
    30  H    0.160050
    31  C   -0.297570
    32  C   -0.300867
    33  C   -0.475596
    34  H    0.149207
    35  H    0.149492
    36  H    0.151461
    37  H    0.153107
    38  H    0.155206
    39  H    0.155150
    40  H    0.160130
 Sum of Mulliken charges =  -0.00000

 Dipole moment (field-independent basis, Debye):
    X=             -0.0080    Y=             -0.0081    Z=              0.0021  Tot=              0.0116
 Quadrupole moment (field-independent basis, Debye-Ang):
   XX=            -86.3598   YY=            -84.4607   ZZ=            -84.1338
   XY=              0.7740   XZ=             -0.8548   YZ=              0.1140

 Normal termination of Gaussian 16 at Thu May  6 05:17:06 2021.
