 Gaussian 16, Revision A.03,
 Gaussian 16:  EM64L-G16RevA.03 25-Dec-2016

 -------------
 #p 6-31g* mp2
 -------------

 ------------------------------------------------------
 Input file generated by CHIRIPA (05-May-2021 14:57:25)
 ------------------------------------------------------
 Symbolic Z-matrix:
 Charge =  0 Multiplicity = 1

                         Standard orientation:
 ---------------------------------------------------------------------
 Center     Atomic      Atomic             Coordinates (Angstroms)
 Number     Number       Type             X           Y           Z
 ---------------------------------------------------------------------
      1          6           0        3.029893   -2.330681   -0.251677
      2          6           0        4.197188   -1.563929   -0.173988
      3          6           0        4.126247   -0.172849   -0.053934
      4          6           0        2.865776    0.421238   -0.014406
      5          6           0        1.684665   -0.315383   -0.089612
      6          6           0        1.779562   -1.705064   -0.209316
      7          1           0        3.094307   -3.410762   -0.344802
      8          1           0        5.169575   -2.047088   -0.206638
      9          1           0        5.013951    0.444846    0.008150
     10          1           0        0.729701    0.194742   -0.054455
     11          1           0        0.871351   -2.298007   -0.269448
     12          7           0        2.777994    1.893171    0.112505
     13          8           0        1.655393    2.392511    0.145126
     14          8           0        3.833453    2.519661    0.176954
     15          6           0       -3.625556    2.202298   -0.340895
     16          6           0       -3.354858    1.749972    0.954730
     17          6           0       -2.941258    0.432790    1.174991
     18          6           0       -2.808190   -0.408826    0.071694
     19          6           0       -3.070364    0.012183   -1.231114
     20          6           0       -3.482697    1.333492   -1.427766
     21          1           0       -3.946359    3.227119   -0.502829
     22          1           0       -3.464947    2.422480    1.800696
     23          1           0       -2.725049    0.056448    2.167482
     24          1           0       -2.951592   -0.681593   -2.054513
     25          1           0       -3.692229    1.682032   -2.435069
     26          7           0       -2.371001   -1.805452    0.292377
     27          8           0       -2.261390   -2.527173   -0.696431
     28          8           0       -2.146219   -2.151962    1.449979
 ---------------------------------------------------------------------

 SCF Done:  E(RHF) =  -868.340335447     A.U. after   16 cycles
 E2 =    -0.2599455800D+01 EUMP2 =    -0.87093979124664D+03

 The electronic state is 1-A.
 Alpha  occ. eigenvalues --  -20.61541 -20.61523 -20.60579 -20.60564 -15.86552
 Alpha  occ. eigenvalues --  -15.85617 -11.31556 -11.30769 -11.28070 -11.28039
 Alpha  occ. eigenvalues --  -11.27665 -11.27307 -11.27257 -11.26951 -11.26919
 Alpha  occ. eigenvalues --  -11.26911 -11.26292 -11.26083  -1.60626  -1.59653
 Alpha  occ. eigenvalues --   -1.40174  -1.39213  -1.19668  -1.18891  -1.09123
 Alpha  occ. eigenvalues --   -1.08315  -1.04991  -1.04250  -0.96018  -0.95200
 Alpha  occ. eigenvalues --   -0.86408  -0.85647  -0.82853  -0.82035  -0.77959
 Alpha  occ. eigenvalues --   -0.77123  -0.72753  -0.71971  -0.71843  -0.70971
 Alpha  occ. eigenvalues --   -0.70733  -0.69989  -0.65302  -0.64971  -0.64533
 Alpha  occ. eigenvalues --   -0.64208  -0.62343  -0.61587  -0.55477  -0.54732
 Alpha  occ. eigenvalues --   -0.53362  -0.53068  -0.52602  -0.52290  -0.49541
 Alpha  occ. eigenvalues --   -0.49493  -0.48610  -0.48575  -0.45644  -0.44668
 Alpha  occ. eigenvalues --   -0.37599  -0.36848  -0.36565  -0.35842
 Alpha virt. eigenvalues --    0.04488   0.05382   0.11088   0.11820   0.16080
 Alpha virt. eigenvalues --    0.16954   0.21289   0.21911   0.27239   0.27302
 Alpha virt. eigenvalues --    0.28204   0.28742   0.30963   0.31669   0.32314

 Mulliken charges:
               1
     1  C   -0.171740
     2  C   -0.218475
     3  C   -0.172650
     4  C    0.157808
     5  C   -0.174641
     6  C   -0.222984
     7  H    0.228024
     8  H    0.221864
     9  H    0.273231
    10  H    0.270484
    11  H    0.242205
    12  N    0.488151
    13  O   -0.464734
    14  O   -0.461763
    15  C   -0.166285
    16  C   -0.214633
    17  C   -0.171348
    18  C    0.152021
    19  C   -0.172837
    20  C   -0.216842
    21  H    0.229803
    22  H    0.227640
    23  H    0.276554
    24  H    0.274743
    25  H    0.225745
    26  N    0.484607
    27  O   -0.465229
    28  O   -0.458717
 Sum of Mulliken charges =  -0.00000

 Dipole moment (field-independent basis, Debye):
    X=             -1.5387    Y=             -0.1894    Z=             -1.1932  Tot=              1.9563
 Quadrupole moment (field-independent basis, Debye-Ang):
   XX=            -89.8495   YY=           -113.7991   ZZ=           -100.8057
   XY=            -29.0106   XZ=              1.1217   YZ=              1.5029

 Normal termination of Gaussian 16 at Thu May  6 21:18:33 2021.
