 Gaussian 16, Revision A.03,
 Gaussian 16:  EM64L-G16RevA.03 25-Dec-2016

 -------------
 #p 6-31g* mp2
 -------------

 ------------------------------------------------------
 Input file generated by CHIRIPA (05-May-2021 14:55:25)
 ------------------------------------------------------
 Symbolic Z-matrix:
 Charge =  0 Multiplicity = 1

                         Standard orientation:
 ---------------------------------------------------------------------
 Center     Atomic      Atomic             Coordinates (Angstroms)
 Number     Number       Type             X           Y           Z
 ---------------------------------------------------------------------
      1          6           0        6.118318   -0.031426    0.071069
      2          6           0        5.408315   -1.176912   -0.303469
      3          6           0        4.018725   -1.134354   -0.451034
      4          6           0        3.368243    0.075806   -0.215075
      5          6           0        4.047577    1.234113    0.159252
      6          6           0        5.436884    1.168315    0.300829
      7          1           0        7.197675   -0.073513    0.183376
      8          1           0        5.934894   -2.110018   -0.482555
      9          1           0        3.444306   -2.006123   -0.739961
     10          1           0        3.494932    2.149829    0.330908
     11          1           0        5.985686    2.059490    0.591808
     12          7           0        1.897296    0.133161   -0.368126
     13          8           0        1.347627    1.211514   -0.154449
     14          8           0        1.321889   -0.901321   -0.698866
     15          6           0       -4.134605   -0.366877    0.759453
     16          6           0       -2.673360   -0.027620    0.463392
     17          6           0       -1.711093   -0.598589    1.505424
     18          1           0       -4.399218    0.016965    1.754234
     19          1           0       -4.248192   -1.458840    0.805386
     20          1           0       -2.562835    1.063350    0.416661
     21          1           0       -2.412249   -0.412146   -0.530880
     22          1           0       -1.792014   -1.689585    1.547614
     23          1           0       -1.943455   -0.205705    2.500538
     24          1           0       -0.671993   -0.344152    1.274354
     25          6           0       -5.108717    0.197013   -0.273437
     26          6           0       -6.569963   -0.142243    0.022623
     27          6           0       -7.532230    0.428725   -1.019408
     28          1           0       -4.995130    1.288976   -0.319371
     29          1           0       -4.844103   -0.186828   -1.268218
     30          1           0       -6.831073    0.242283    1.016895
     31          1           0       -6.680487   -1.233214    0.069355
     32          1           0       -7.299867    0.035841   -2.014521
     33          1           0       -7.451309    1.519722   -1.061598
     34          1           0       -8.571330    0.174288   -0.788339
 ---------------------------------------------------------------------

 SCF Done:  E(RHF) =  -669.536415857     A.U. after   15 cycles
 E2 =    -0.2091599540D+01 EUMP2 =    -0.67162801539706D+03

 The electronic state is 1-A.
 Alpha  occ. eigenvalues --  -20.61053 -20.61048 -15.86054 -11.31351 -11.27905
 Alpha  occ. eigenvalues --  -11.27902 -11.27638 -11.26902 -11.26893 -11.20806
 Alpha  occ. eigenvalues --  -11.20407 -11.20375 -11.20139 -11.19905 -11.19218
 Alpha  occ. eigenvalues --   -1.60100  -1.39652  -1.19512  -1.08923  -1.07277
 Alpha  occ. eigenvalues --   -1.04901  -1.02283  -0.95770  -0.94752  -0.86303
 Alpha  occ. eigenvalues --   -0.85793  -0.82603  -0.78415  -0.77664  -0.77014
 Alpha  occ. eigenvalues --   -0.72260  -0.71423  -0.70620  -0.65165  -0.64904
 Alpha  occ. eigenvalues --   -0.63923  -0.62247  -0.59696  -0.58189  -0.56328
 Alpha  occ. eigenvalues --   -0.55396  -0.54080  -0.53238  -0.52991  -0.51469
 Alpha  occ. eigenvalues --   -0.51205  -0.49033  -0.48936  -0.48753  -0.46683
 Alpha  occ. eigenvalues --   -0.45481  -0.45067  -0.44568  -0.44459  -0.42529
 Alpha  occ. eigenvalues --   -0.37485  -0.36499
 Alpha virt. eigenvalues --    0.04823   0.11157   0.16336   0.21295   0.23922
 Alpha virt. eigenvalues --    0.25640   0.27218   0.27741   0.28169   0.28623
 Alpha virt. eigenvalues --    0.29283   0.30851   0.32414   0.32549   0.32796

 Mulliken charges:
               1
     1  C   -0.170372
     2  C   -0.218642
     3  C   -0.170666
     4  C    0.160639
     5  C   -0.170703
     6  C   -0.218642
     7  H    0.226226
     8  H    0.224050
     9  H    0.276071
    10  H    0.276028
    11  H    0.224041
    12  N    0.486060
    13  O   -0.459210
    14  O   -0.458272
    15  C   -0.297908
    16  C   -0.295941
    17  C   -0.479113
    18  H    0.145288
    19  H    0.146090
    20  H    0.152661
    21  H    0.158409
    22  H    0.147398
    23  H    0.143216
    24  H    0.179473
    25  C   -0.297261
    26  C   -0.298624
    27  C   -0.475037
    28  H    0.148511
    29  H    0.149377
    30  H    0.150167
    31  H    0.150395
    32  H    0.154487
    33  H    0.154290
    34  H    0.157517
 Sum of Mulliken charges =  -0.00000

 Dipole moment (field-independent basis, Debye):
    X=              5.6446    Y=             -0.1622    Z=              0.4049  Tot=              5.6615
 Quadrupole moment (field-independent basis, Debye-Ang):
   XX=            -62.4685   YY=            -89.5633   ZZ=            -96.0784
   XY=             -0.1465   XZ=              0.4954   YZ=              2.3685

 Normal termination of Gaussian 16 at Thu May  6 01:37:10 2021.
