 Gaussian 16, Revision A.03,
 Gaussian 16:  EM64L-G16RevA.03 25-Dec-2016

 -------------
 #p 6-31g* mp2
 -------------

 ------------------------------------------------------
 Input file generated by CHIRIPA (05-May-2021 14:55:24)
 ------------------------------------------------------
 Symbolic Z-matrix:
 Charge =  0 Multiplicity = 1

                         Standard orientation:
 ---------------------------------------------------------------------
 Center     Atomic      Atomic             Coordinates (Angstroms)
 Number     Number       Type             X           Y           Z
 ---------------------------------------------------------------------
      1          6           0        2.307248    1.896313   -0.300590
      2          6           0        3.679078    2.154323   -0.210945
      3          6           0        4.592331    1.103486   -0.083437
      4          6           0        4.096784   -0.199019   -0.048727
      5          6           0        2.735896   -0.488313   -0.135808
      6          6           0        1.840858    0.578143   -0.262802
      7          1           0        1.604886    2.718695   -0.399442
      8          1           0        4.044138    3.177030   -0.240020
      9          1           0        5.659561    1.274787   -0.012064
     10          1           0        2.402072   -1.518344   -0.103959
     11          1           0        0.776023    0.374788   -0.332215
     12          7           0        5.053963   -1.319760    0.085988
     13          8           0        4.591985   -2.458365    0.114148
     14          8           0        6.248053   -1.038371    0.160866
     15          6           0       -4.287698   -0.082949    0.025447
     16          6           0       -3.470159    1.105595    0.532376
     17          6           0       -1.962986    0.887985    0.395012
     18          1           0       -3.993999   -0.984908    0.579663
     19          1           0       -4.037593   -0.268306   -1.028348
     20          1           0       -3.722752    1.289525    1.584508
     21          1           0       -3.765974    2.004867   -0.022979
     22          1           0       -1.691011    0.726535   -0.653112
     23          1           0       -1.647543    0.007128    0.963508
     24          1           0       -1.397715    1.749774    0.763315
     25          6           0       -5.796218    0.119575    0.156134
     26          6           0       -6.613757   -1.068969   -0.350795
     27          6           0       -8.120930   -0.851358   -0.213431
     28          1           0       -6.046323    0.304932    1.209929
     29          1           0       -6.089917    1.021534   -0.398082
     30          1           0       -6.317941   -1.968241    0.204561
     31          1           0       -6.361163   -1.252898   -1.402927
     32          1           0       -8.436373    0.029498   -0.781927
     33          1           0       -8.392905   -0.689909    0.834693
     34          1           0       -8.686201   -1.713148   -0.581734
 ---------------------------------------------------------------------

 SCF Done:  E(RHF) =  -669.535574398     A.U. after   15 cycles
 E2 =    -0.2091056736D+01 EUMP2 =    -0.67162663113395D+03

 The electronic state is 1-A.
 Alpha  occ. eigenvalues --  -20.60684 -20.60679 -15.85735 -11.31077 -11.27643
 Alpha  occ. eigenvalues --  -11.27615 -11.27364 -11.26664 -11.26551 -11.22517
 Alpha  occ. eigenvalues --  -11.22374 -11.22086 -11.22035 -11.21912 -11.21425
 Alpha  occ. eigenvalues --   -1.59760  -1.39314  -1.19238  -1.09101  -1.08639
 Alpha  occ. eigenvalues --   -1.04637  -1.04252  -0.96741  -0.95480  -0.87788
 Alpha  occ. eigenvalues --   -0.86025  -0.82312  -0.80347  -0.78865  -0.77358
 Alpha  occ. eigenvalues --   -0.71954  -0.71083  -0.70353  -0.65725  -0.64888
 Alpha  occ. eigenvalues --   -0.64643  -0.62003  -0.61638  -0.60125  -0.58314
 Alpha  occ. eigenvalues --   -0.56022  -0.55146  -0.53544  -0.53219  -0.52965
 Alpha  occ. eigenvalues --   -0.52561  -0.50675  -0.48740  -0.48712  -0.48598
 Alpha  occ. eigenvalues --   -0.47337  -0.46417  -0.46307  -0.44725  -0.44485
 Alpha  occ. eigenvalues --   -0.37222  -0.36235
 Alpha virt. eigenvalues --    0.05161   0.11386   0.16656   0.20535   0.22305
 Alpha virt. eigenvalues --    0.23759   0.25619   0.26040   0.26734   0.27744
 Alpha virt. eigenvalues --    0.28901   0.29802   0.30651   0.31547   0.32183

 Mulliken charges:
               1
     1  C   -0.174944
     2  C   -0.218388
     3  C   -0.171700
     4  C    0.159100
     5  C   -0.173803
     6  C   -0.227620
     7  H    0.225109
     8  H    0.222776
     9  H    0.275068
    10  H    0.275503
    11  H    0.241979
    12  N    0.487992
    13  O   -0.460701
    14  O   -0.460852
    15  C   -0.299456
    16  C   -0.299305
    17  C   -0.485102
    18  H    0.151308
    19  H    0.149997
    20  H    0.155885
    21  H    0.153789
    22  H    0.151282
    23  H    0.158698
    24  H    0.158905
    25  C   -0.298954
    26  C   -0.300215
    27  C   -0.476095
    28  H    0.150806
    29  H    0.150264
    30  H    0.153032
    31  H    0.152478
    32  H    0.155499
    33  H    0.155858
    34  H    0.161808
 Sum of Mulliken charges =  -0.00000

 Dipole moment (field-independent basis, Debye):
    X=             -3.6692    Y=              3.9397    Z=             -0.4430  Tot=              5.4019
 Quadrupole moment (field-independent basis, Debye-Ang):
   XX=           -120.2546   YY=            -94.4461   ZZ=            -94.7229
   XY=             19.8366   XZ=             -1.7281   YZ=             -0.4087

 Normal termination of Gaussian 16 at Wed May  5 16:04:19 2021.
