 Gaussian 16, Revision A.03,
 Gaussian 16:  EM64L-G16RevA.03 25-Dec-2016

 -------------
 #p 6-31g* mp2
 -------------

 ------------------------------------------------------
 Input file generated by CHIRIPA (05-May-2021 14:53:12)
 ------------------------------------------------------
 Symbolic Z-matrix:
 Charge =  0 Multiplicity = 1

                         Standard orientation:
 ---------------------------------------------------------------------
 Center     Atomic      Atomic             Coordinates (Angstroms)
 Number     Number       Type             X           Y           Z
 ---------------------------------------------------------------------
      1          6           0       -2.590075    0.643576    0.406114
      2          6           0       -2.865764    1.705366    1.471282
      3          6           0       -1.607731    2.471046    1.882234
      4          1           0       -1.837875   -0.061223    0.786111
      5          1           0       -2.148496    1.126003   -0.476874
      6          1           0       -3.307970    1.221278    2.351468
      7          1           0       -3.617536    2.407609    1.088778
      8          1           0       -1.167183    2.979923    1.018774
      9          1           0       -0.855858    1.786851    2.288639
     10          1           0       -1.827678    3.224987    2.644504
     11          6           0       -3.838027   -0.130349   -0.015056
     12          6           0       -3.562339   -1.192139   -1.080224
     13          6           0       -4.820372   -1.957819   -1.491176
     14          1           0       -4.279606   -0.612776    0.867932
     15          1           0       -4.590228    0.574450   -0.395053
     16          1           0       -2.810566   -1.894381   -0.697720
     17          1           0       -3.120133   -0.708050   -1.960411
     18          1           0       -5.572245   -1.273624   -1.897581
     19          1           0       -5.260920   -2.466695   -0.627716
     20          1           0       -4.600425   -2.711760   -2.253446
     21          6           0        2.524639   -1.916146    1.697169
     22          6           0        3.729473   -1.491084    1.127768
     23          6           0        3.733880   -0.540963    0.102195
     24          6           0        2.509657   -0.034615   -0.331601
     25          6           0        1.292678   -0.438093    0.215628
     26          6           0        1.312225   -1.389222    1.240087
     27          1           0        2.530519   -2.654614    2.493426
     28          1           0        4.672555   -1.898576    1.480745
     29          1           0        4.652000   -0.194228   -0.356335
     30          1           0        0.368418   -0.013720   -0.157293
     31          1           0        0.375001   -1.717479    1.680435
     32          7           0        2.501643    0.971769   -1.416740
     33          8           0        1.409719    1.402528   -1.781137
     34          8           0        3.587439    1.310760   -1.882327
 ---------------------------------------------------------------------

 SCF Done:  E(RHF) =  -669.535634069     A.U. after   15 cycles
 E2 =    -0.2092424101D+01 EUMP2 =    -0.67162805816983D+03

 The electronic state is 1-A.
 Alpha  occ. eigenvalues --  -20.60731 -20.60726 -15.85781 -11.31101 -11.27704
 Alpha  occ. eigenvalues --  -11.27612 -11.27455 -11.26713 -11.26700 -11.21917
 Alpha  occ. eigenvalues --  -11.21890 -11.21857 -11.21711 -11.21283 -11.21207
 Alpha  occ. eigenvalues --   -1.59803  -1.39358  -1.19291  -1.08790  -1.08699
 Alpha  occ. eigenvalues --   -1.04695  -1.03794  -0.96249  -0.95534  -0.87262
 Alpha  occ. eigenvalues --   -0.86094  -0.82375  -0.79866  -0.78685  -0.77386
 Alpha  occ. eigenvalues --   -0.72003  -0.71123  -0.70406  -0.65431  -0.64939
 Alpha  occ. eigenvalues --   -0.64705  -0.62063  -0.61174  -0.59611  -0.57864
 Alpha  occ. eigenvalues --   -0.55535  -0.55208  -0.53027  -0.52926  -0.52834
 Alpha  occ. eigenvalues --   -0.52604  -0.50182  -0.48758  -0.48757  -0.48164
 Alpha  occ. eigenvalues --   -0.46892  -0.46164  -0.46042  -0.44771  -0.44085
 Alpha  occ. eigenvalues --   -0.37283  -0.36290
 Alpha virt. eigenvalues --    0.05097   0.11349   0.16554   0.19817   0.22904
 Alpha virt. eigenvalues --    0.24031   0.24927   0.25983   0.27717   0.28165
 Alpha virt. eigenvalues --    0.29969   0.30445   0.31442   0.31653   0.31839

 Mulliken charges:
               1
     1  C   -0.308074
     2  C   -0.298887
     3  C   -0.479630
     4  H    0.136531
     5  H    0.163582
     6  H    0.150201
     7  H    0.155844
     8  H    0.165333
     9  H    0.150237
    10  H    0.161803
    11  C   -0.297264
    12  C   -0.300928
    13  C   -0.475843
    14  H    0.148321
    15  H    0.153709
    16  H    0.145701
    17  H    0.158243
    18  H    0.157262
    19  H    0.154122
    20  H    0.161720
    21  C   -0.170275
    22  C   -0.219277
    23  C   -0.170035
    24  C    0.157639
    25  C   -0.176517
    26  C   -0.223993
    27  H    0.225269
    28  H    0.223184
    29  H    0.275318
    30  H    0.287407
    31  H    0.223329
    32  N    0.488142
    33  O   -0.461630
    34  O   -0.460544
 Sum of Mulliken charges =  -0.00000

 Dipole moment (field-independent basis, Debye):
    X=             -0.1137    Y=             -3.3975    Z=              3.7117  Tot=              5.0331
 Quadrupole moment (field-independent basis, Debye-Ang):
   XX=            -89.7521   YY=            -94.9143   ZZ=            -97.7110
   XY=            -10.2238   XZ=              9.5512   YZ=              0.2484

 Normal termination of Gaussian 16 at Thu May  6 12:00:41 2021.
