 Gaussian 16, Revision A.03,
 Gaussian 16:  EM64L-G16RevA.03 25-Dec-2016

 -------------
 #p 6-31g* mp2
 -------------

 ------------------------------------------------------
 Input file generated by CHIRIPA (05-May-2021 14:57:23)
 ------------------------------------------------------
 Symbolic Z-matrix:
 Charge =  0 Multiplicity = 1

                         Standard orientation:
 ---------------------------------------------------------------------
 Center     Atomic      Atomic             Coordinates (Angstroms)
 Number     Number       Type             X           Y           Z
 ---------------------------------------------------------------------
      1          6           0       -3.433707   -2.368411    0.481520
      2          6           0       -4.121233   -1.668402   -0.515383
      3          6           0       -3.765824   -0.354360   -0.834013
      4          6           0       -2.713203    0.231587   -0.132625
      5          6           0       -2.008986   -0.439712    0.865737
      6          6           0       -2.381632   -1.752917    1.167689
      7          1           0       -3.716492   -3.388866    0.722562
      8          1           0       -4.938696   -2.143879   -1.049911
      9          1           0       -4.281126    0.210627   -1.601262
     10          1           0       -1.198399    0.060859    1.381291
     11          1           0       -1.845913   -2.294136    1.942371
     12          7           0       -2.327823    1.622261   -0.461116
     13          8           0       -1.396831    2.116030    0.171405
     14          8           0       -2.964052    2.192171   -1.344888
     15          6           0        1.862093    2.060508    1.207135
     16          6           0        1.716866    0.808316    1.813308
     17          6           0        2.219693   -0.341440    1.197049
     18          6           0        2.865140   -0.201820   -0.030628
     19          6           0        3.025558    1.031764   -0.659778
     20          6           0        2.514824    2.168045   -0.025300
     21          1           0        1.468414    2.948432    1.692936
     22          1           0        1.210398    0.721797    2.770413
     23          1           0        2.121139   -1.323204    1.644088
     24          1           0        3.535192    1.086357   -1.614090
     25          1           0        2.629063    3.139219   -0.498394
     26          7           0        3.401646   -1.411883   -0.692678
     27          8           0        3.966267   -1.262154   -1.774076
     28          8           0        3.247380   -2.487146   -0.117657
 ---------------------------------------------------------------------

 SCF Done:  E(RHF) =  -868.338584216     A.U. after   16 cycles
 E2 =    -0.2601185287D+01 EUMP2 =    -0.87093976950292D+03

 The electronic state is 1-A.
 Alpha  occ. eigenvalues --  -20.61205 -20.61181 -20.60597 -20.60576 -15.86238
 Alpha  occ. eigenvalues --  -15.85645 -11.31436 -11.30844 -11.27989 -11.27981
 Alpha  occ. eigenvalues --  -11.27695 -11.27564 -11.27401 -11.27051 -11.26986
 Alpha  occ. eigenvalues --  -11.26950 -11.26453 -11.26234  -1.60266  -1.59671
 Alpha  occ. eigenvalues --   -1.39826  -1.39230  -1.19596  -1.19022  -1.09019
 Alpha  occ. eigenvalues --   -1.08396  -1.04987  -1.04438  -0.95888  -0.95265
 Alpha  occ. eigenvalues --   -0.86389  -0.85814  -0.82743  -0.82130  -0.77811
 Alpha  occ. eigenvalues --   -0.77232  -0.72496  -0.71867  -0.71575  -0.70996
 Alpha  occ. eigenvalues --   -0.70708  -0.70053  -0.65258  -0.65006  -0.64672
 Alpha  occ. eigenvalues --   -0.64432  -0.62369  -0.61793  -0.55484  -0.54814
 Alpha  occ. eigenvalues --   -0.53311  -0.53168  -0.52626  -0.52513  -0.49237
 Alpha  occ. eigenvalues --   -0.49208  -0.48631  -0.48606  -0.45269  -0.44676
 Alpha  occ. eigenvalues --   -0.37561  -0.36817  -0.36615  -0.36006
 Alpha virt. eigenvalues --    0.04730   0.05344   0.11082   0.11524   0.16220
 Alpha virt. eigenvalues --    0.16846   0.20622   0.22146   0.26239   0.27598
 Alpha virt. eigenvalues --    0.28708   0.29099   0.30491   0.31371   0.32391

 Mulliken charges:
               1
     1  C   -0.168997
     2  C   -0.218645
     3  C   -0.169673
     4  C    0.155691
     5  C   -0.170909
     6  C   -0.219548
     7  H    0.227694
     8  H    0.224854
     9  H    0.275958
    10  H    0.274878
    11  H    0.222382
    12  N    0.490399
    13  O   -0.468962
    14  O   -0.459057
    15  C   -0.147729
    16  C   -0.228598
    17  C   -0.173999
    18  C    0.157305
    19  C   -0.169915
    20  C   -0.216767
    21  H    0.232744
    22  H    0.216714
    23  H    0.269024
    24  H    0.275288
    25  H    0.226804
    26  N    0.488487
    27  O   -0.460317
    28  O   -0.465107
 Sum of Mulliken charges =  -0.00000

 Dipole moment (field-independent basis, Debye):
    X=             -3.3374    Y=             -0.3636    Z=              3.3591  Tot=              4.7491
 Quadrupole moment (field-independent basis, Debye-Ang):
   XX=           -106.1614   YY=           -107.6197   ZZ=           -100.9257
   XY=             27.7803   XZ=              5.2714   YZ=             -2.1159

 Normal termination of Gaussian 16 at Thu May  6 11:17:29 2021.
