 Gaussian 16, Revision A.03,
 Gaussian 16:  EM64L-G16RevA.03 25-Dec-2016

 -------------
 #p 6-31g* mp2
 -------------

 ------------------------------------------------------
 Input file generated by CHIRIPA (05-May-2021 14:55:20)
 ------------------------------------------------------
 Symbolic Z-matrix:
 Charge =  0 Multiplicity = 1

                         Standard orientation:
 ---------------------------------------------------------------------
 Center     Atomic      Atomic             Coordinates (Angstroms)
 Number     Number       Type             X           Y           Z
 ---------------------------------------------------------------------
      1          6           0        4.699665    1.960174   -0.025239
      2          6           0        5.078449    0.713771    0.484197
      3          6           0        4.175791   -0.353786    0.492909
      4          6           0        2.896698   -0.138765   -0.017950
      5          6           0        2.489441    1.091210   -0.532335
      6          6           0        3.408646    2.144590   -0.530987
      7          1           0        5.407299    2.783971   -0.028099
      8          1           0        6.080407    0.567658    0.877613
      9          1           0        4.442681   -1.329161    0.881280
     10          1           0        1.483641    1.206377   -0.917718
     11          1           0        3.111715    3.111467   -0.927253
     12          7           0        1.932335   -1.261436   -0.014052
     13          8           0        0.811362   -1.046264   -0.469855
     14          8           0        2.315702   -2.335300    0.444733
     15          6           0       -4.067324    0.633147   -0.258500
     16          6           0       -4.869571    1.512524    0.701231
     17          6           0       -5.174066    2.894502    0.122254
     18          1           0       -3.126919    1.141337   -0.512128
     19          1           0       -4.626373    0.523044   -1.198040
     20          1           0       -4.309807    1.619799    1.639193
     21          1           0       -5.808088    1.002096    0.952754
     22          1           0       -5.753369    2.805665   -0.802472
     23          1           0       -4.246575    3.426878   -0.112133
     24          1           0       -5.748265    3.506500    0.824831
     25          6           0       -3.755105   -0.751583    0.306097
     26          6           0       -2.952859   -1.630961   -0.653632
     27          6           0       -2.648363   -3.012938   -0.074656
     28          1           0       -3.196057   -0.641480    1.245638
     29          1           0       -4.695510   -1.259774    0.559725
     30          1           0       -2.014341   -1.120532   -0.905156
     31          1           0       -3.512621   -1.738236   -1.591595
     32          1           0       -3.575854   -3.545314    0.159731
     33          1           0       -2.069060   -2.924102    0.850070
     34          1           0       -2.074165   -3.624937   -0.777232
 ---------------------------------------------------------------------

 SCF Done:  E(RHF) =  -669.536054908     A.U. after   15 cycles
 E2 =    -0.2091005455D+01 EUMP2 =    -0.67162706036316D+03

 The electronic state is 1-A.
 Alpha  occ. eigenvalues --  -20.60964 -20.60957 -15.86007 -11.31320 -11.27886
 Alpha  occ. eigenvalues --  -11.27878 -11.27618 -11.26889 -11.26879 -11.21089
 Alpha  occ. eigenvalues --  -11.20730 -11.20675 -11.20362 -11.20110 -11.19541
 Alpha  occ. eigenvalues --   -1.60027  -1.39584  -1.19488  -1.08892  -1.07541
 Alpha  occ. eigenvalues --   -1.04884  -1.02558  -0.95737  -0.95042  -0.86284
 Alpha  occ. eigenvalues --   -0.86069  -0.82573  -0.78699  -0.77631  -0.77269
 Alpha  occ. eigenvalues --   -0.72234  -0.71344  -0.70597  -0.65147  -0.64887
 Alpha  occ. eigenvalues --   -0.64169  -0.62232  -0.59933  -0.58485  -0.56620
 Alpha  occ. eigenvalues --   -0.55387  -0.54337  -0.53216  -0.52975  -0.51736
 Alpha  occ. eigenvalues --   -0.51473  -0.49042  -0.48976  -0.48946  -0.46994
 Alpha  occ. eigenvalues --   -0.45742  -0.45009  -0.44828  -0.44654  -0.42833
 Alpha  occ. eigenvalues --   -0.37466  -0.36485
 Alpha virt. eigenvalues --    0.04907   0.11170   0.16406   0.21257   0.23639
 Alpha virt. eigenvalues --    0.25298   0.27068   0.27418   0.28001   0.28644
 Alpha virt. eigenvalues --    0.28927   0.30872   0.32124   0.32389   0.32785

 Mulliken charges:
               1
     1  C   -0.170600
     2  C   -0.218561
     3  C   -0.170558
     4  C    0.157368
     5  C   -0.170616
     6  C   -0.218492
     7  H    0.226112
     8  H    0.223922
     9  H    0.275963
    10  H    0.275163
    11  H    0.223945
    12  N    0.495300
    13  O   -0.467326
    14  O   -0.458709
    15  C   -0.296752
    16  C   -0.298887
    17  C   -0.474727
    18  H    0.147052
    19  H    0.147621
    20  H    0.150721
    21  H    0.151420
    22  H    0.154593
    23  H    0.152074
    24  H    0.158305
    25  C   -0.297474
    26  C   -0.307012
    27  C   -0.470736
    28  H    0.149304
    29  H    0.145504
    30  H    0.174103
    31  H    0.143710
    32  H    0.145146
    33  H    0.159980
    34  H    0.163144
 Sum of Mulliken charges =  -0.00000

 Dipole moment (field-independent basis, Debye):
    X=              3.7505    Y=              3.8959    Z=             -0.0211  Tot=              5.4078
 Quadrupole moment (field-independent basis, Debye-Ang):
   XX=            -73.5289   YY=            -95.7555   ZZ=            -94.6491
   XY=              9.4861   XZ=              1.9016   YZ=             -1.1383

 Normal termination of Gaussian 16 at Wed May  5 22:11:37 2021.
