 Gaussian 16, Revision A.03,
 Gaussian 16:  EM64L-G16RevA.03 25-Dec-2016

 -------------
 #p 6-31g* mp2
 -------------

 ------------------------------------------------------
 Input file generated by CHIRIPA (05-May-2021 14:51:08)
 ------------------------------------------------------
 Symbolic Z-matrix:
 Charge =  0 Multiplicity = 1

                         Standard orientation:
 ---------------------------------------------------------------------
 Center     Atomic      Atomic             Coordinates (Angstroms)
 Number     Number       Type             X           Y           Z
 ---------------------------------------------------------------------
      1          6           0       -4.131239   -0.216171   -0.480241
      2          6           0       -4.078605   -1.620180    0.123061
      3          6           0       -5.149424   -2.549813   -0.448712
      4          1           0       -5.125957    0.215152   -0.302921
      5          1           0       -4.011568   -0.288254   -1.570139
      6          1           0       -4.196954   -1.545354    1.211643
      7          1           0       -3.083835   -2.048136   -0.055549
      8          1           0       -5.030490   -2.654116   -1.532030
      9          1           0       -6.149934   -2.148477   -0.257638
     10          1           0       -5.093639   -3.548127   -0.003610
     11          6           0       -3.066872    0.724816    0.081360
     12          6           0       -3.119507    2.128825   -0.521942
     13          6           0       -2.048688    3.058457    0.049831
     14          1           0       -3.186543    0.796899    1.171258
     15          1           0       -2.072155    0.293492   -0.095960
     16          1           0       -4.114277    2.556781   -0.343332
     17          1           0       -3.001157    2.053999   -1.610524
     18          1           0       -1.048178    2.657122   -0.141243
     19          1           0       -2.167622    3.162761    1.133149
     20          1           0       -2.104472    4.056772   -0.395271
     21          6           0        2.850435   -0.148933    0.090391
     22          6           0        2.020096   -0.338433    1.360277
     23          6           0        0.524413   -0.124272    1.126049
     24          1           0        2.680662    0.862465   -0.303557
     25          1           0        2.495121   -0.847931   -0.679382
     26          1           0        2.377780    0.359755    2.127878
     27          1           0        2.192013   -1.349432    1.751354
     28          1           0        0.146505   -0.829986    0.379220
     29          1           0        0.333329    0.888912    0.757883
     30          1           0       -0.050291   -0.264654    2.046848
     31          6           0        4.347677   -0.359711    0.308490
     32          6           0        5.178016   -0.170211   -0.961396
     33          6           0        6.673699   -0.384373   -0.727169
     34          1           0        4.702990    0.339285    1.078264
     35          1           0        4.517450   -1.371110    0.702438
     36          1           0        5.006099    0.840788   -1.352473
     37          1           0        4.820331   -0.868399   -1.728996
     38          1           0        6.864782   -1.397557   -0.359002
     39          1           0        7.051606    0.321342    0.019661
     40          1           0        7.248403   -0.243991   -1.647966
 ---------------------------------------------------------------------

 SCF Done:  E(RHF) =  -470.732335724     A.U. after   11 cycles
 E2 =    -0.1583646412D+01 EUMP2 =    -0.47231598213551D+03

 The electronic state is 1-A.
 Alpha  occ. eigenvalues --  -11.21613 -11.21591 -11.21548 -11.21526 -11.21421
 Alpha  occ. eigenvalues --  -11.21362 -11.21297 -11.21178 -11.21079 -11.21058
 Alpha  occ. eigenvalues --  -11.21035 -11.21033  -1.08448  -1.08339  -1.03554
 Alpha  occ. eigenvalues --   -1.03460  -0.96001  -0.95916  -0.87033  -0.86931
 Alpha  occ. eigenvalues --   -0.79707  -0.79473  -0.78307  -0.78070  -0.65076
 Alpha  occ. eigenvalues --   -0.64984  -0.61007  -0.60830  -0.59359  -0.59290
 Alpha  occ. eigenvalues --   -0.57612  -0.57534  -0.55405  -0.55098  -0.52745
 Alpha  occ. eigenvalues --   -0.52611  -0.52453  -0.52325  -0.50061  -0.49746
 Alpha  occ. eigenvalues --   -0.48126  -0.47744  -0.46688  -0.46476  -0.45977
 Alpha  occ. eigenvalues --   -0.45723  -0.45646  -0.45304  -0.43771  -0.43702
 Alpha virt. eigenvalues --    0.21754   0.23011   0.23566   0.24579   0.25592
 Alpha virt. eigenvalues --    0.26162   0.26909   0.27489   0.27818   0.29672
 Alpha virt. eigenvalues --    0.30415   0.31492   0.31755   0.31896   0.32136

 Mulliken charges:
               1
     1  C   -0.297736
     2  C   -0.299544
     3  C   -0.475612
     4  H    0.149029
     5  H    0.148772
     6  H    0.151757
     7  H    0.151552
     8  H    0.154971
     9  H    0.155151
    10  H    0.159951
    11  C   -0.306547
    12  C   -0.299232
    13  C   -0.478922
    14  H    0.148312
    15  H    0.163015
    16  H    0.151419
    17  H    0.151229
    18  H    0.157721
    19  H    0.155181
    20  H    0.159945
    21  C   -0.298293
    22  C   -0.300461
    23  C   -0.480854
    24  H    0.149191
    25  H    0.149134
    26  H    0.152040
    27  H    0.151804
    28  H    0.153759
    29  H    0.160948
    30  H    0.162013
    31  C   -0.298234
    32  C   -0.299657
    33  C   -0.475717
    34  H    0.149679
    35  H    0.149724
    36  H    0.151967
    37  H    0.151831
    38  H    0.155192
    39  H    0.155248
    40  H    0.160275
 Sum of Mulliken charges =  -0.00000

 Dipole moment (field-independent basis, Debye):
    X=              0.0339    Y=             -0.0014    Z=              0.0194  Tot=              0.0391
 Quadrupole moment (field-independent basis, Debye-Ang):
   XX=            -86.3617   YY=            -84.4534   ZZ=            -84.2971
   XY=             -0.4840   XZ=             -0.7336   YZ=              0.2071

 Normal termination of Gaussian 16 at Wed May  5 16:35:58 2021.
