 Gaussian 16, Revision A.03,
 Gaussian 16:  EM64L-G16RevA.03 25-Dec-2016

 -------------
 #p 6-31g* mp2
 -------------

 ------------------------------------------------------
 Input file generated by CHIRIPA (05-May-2021 14:53:18)
 ------------------------------------------------------
 Symbolic Z-matrix:
 Charge =  0 Multiplicity = 1

                         Standard orientation:
 ---------------------------------------------------------------------
 Center     Atomic      Atomic             Coordinates (Angstroms)
 Number     Number       Type             X           Y           Z
 ---------------------------------------------------------------------
      1          6           0       -3.927590    0.152384    0.674761
      2          6           0       -2.950088    1.240568    0.229419
      3          6           0       -1.718193    1.333317    1.130322
      4          1           0       -4.241723    0.351328    1.708534
      5          1           0       -3.407372   -0.815408    0.686914
      6          1           0       -3.472365    2.205805    0.216779
      7          1           0       -2.638394    1.039116   -0.803480
      8          1           0       -1.172099    0.384445    1.135091
      9          1           0       -2.010808    1.557763    2.161147
     10          1           0       -1.032852    2.117490    0.793808
     11          6           0       -5.164204    0.047413   -0.216023
     12          6           0       -6.141706   -1.040771    0.229319
     13          6           0       -7.373601   -1.133521   -0.671584
     14          1           0       -5.684422    1.015205   -0.228176
     15          1           0       -4.850071   -0.151531   -1.249796
     16          1           0       -6.453400   -0.839319    1.262218
     17          1           0       -5.619429   -2.006008    0.241959
     18          1           0       -7.080986   -1.357966   -1.702409
     19          1           0       -7.919695   -0.184648   -0.676353
     20          1           0       -8.058942   -1.917693   -0.335070
     21          6           0        1.402985    1.112336   -0.756146
     22          6           0        1.414572   -0.278469   -0.607657
     23          6           0        2.599231   -0.948551   -0.288092
     24          6           0        3.759190   -0.193127   -0.123417
     25          6           0        3.779793    1.193560   -0.264703
     26          6           0        2.583551    1.842624   -0.584497
     27          1           0        0.478214    1.624707   -1.004482
     28          1           0        0.499233   -0.848193   -0.740375
     29          1           0        2.636566   -2.024387   -0.167261
     30          1           0        4.708101    1.734379   -0.126221
     31          1           0        2.577525    2.922834   -0.699201
     32          7           0        5.019468   -0.891387    0.215014
     33          8           0        6.028010   -0.202970    0.354873
     34          8           0        4.974867   -2.113880    0.334009
 ---------------------------------------------------------------------

 SCF Done:  E(RHF) =  -669.534511660     A.U. after   15 cycles
 E2 =    -0.2092041950D+01 EUMP2 =    -0.67162655360975D+03

 The electronic state is 1-A.
 Alpha  occ. eigenvalues --  -20.60728 -20.60723 -15.85784 -11.31137 -11.27728
 Alpha  occ. eigenvalues --  -11.27725 -11.27421 -11.26720 -11.26710 -11.22640
 Alpha  occ. eigenvalues --  -11.22216 -11.22155 -11.22110 -11.22045 -11.21533
 Alpha  occ. eigenvalues --   -1.59805  -1.39359  -1.19321  -1.09215  -1.08712
 Alpha  occ. eigenvalues --   -1.04729  -1.04319  -0.96770  -0.95542  -0.87777
 Alpha  occ. eigenvalues --   -0.86122  -0.82386  -0.80388  -0.78988  -0.77433
 Alpha  occ. eigenvalues --   -0.72002  -0.71129  -0.70461  -0.65860  -0.64972
 Alpha  occ. eigenvalues --   -0.64740  -0.62109  -0.61679  -0.60192  -0.58386
 Alpha  occ. eigenvalues --   -0.56064  -0.55226  -0.53493  -0.53142  -0.52966
 Alpha  occ. eigenvalues --   -0.52813  -0.50674  -0.48777  -0.48757  -0.48673
 Alpha  occ. eigenvalues --   -0.47431  -0.46532  -0.46443  -0.44767  -0.44560
 Alpha  occ. eigenvalues --   -0.37244  -0.36331
 Alpha virt. eigenvalues --    0.05097   0.11218   0.16524   0.19364   0.22587
 Alpha virt. eigenvalues --    0.24080   0.25489   0.25950   0.26982   0.27335
 Alpha virt. eigenvalues --    0.29390   0.29827   0.30945   0.31255   0.31799

 Mulliken charges:
               1
     1  C   -0.298052
     2  C   -0.302847
     3  C   -0.479137
     4  H    0.153258
     5  H    0.148188
     6  H    0.155680
     7  H    0.145128
     8  H    0.156210
     9  H    0.162162
    10  H    0.153898
    11  C   -0.298697
    12  C   -0.300210
    13  C   -0.476105
    14  H    0.150986
    15  H    0.148952
    16  H    0.153386
    17  H    0.152288
    18  H    0.155387
    19  H    0.155936
    20  H    0.162136
    21  C   -0.166828
    22  C   -0.219953
    23  C   -0.171440
    24  C    0.158096
    25  C   -0.170298
    26  C   -0.220605
    27  H    0.229244
    28  H    0.222509
    29  H    0.275341
    30  H    0.275490
    31  H    0.223045
    32  N    0.488150
    33  O   -0.460616
    34  O   -0.460683
 Sum of Mulliken charges =  -0.00000

 Dipole moment (field-independent basis, Debye):
    X=             -4.6344    Y=              2.4675    Z=             -1.1173  Tot=              5.3679
 Quadrupole moment (field-independent basis, Debye-Ang):
   XX=           -127.4228   YY=            -91.5990   ZZ=            -95.2078
   XY=             12.1560   XZ=             -4.9559   YZ=              0.3363

 Normal termination of Gaussian 16 at Wed May  5 20:26:29 2021.
