 Gaussian 16, Revision A.03,
 Gaussian 16:  EM64L-G16RevA.03 25-Dec-2016

 -------------
 #p 6-31g* mp2
 -------------

 ------------------------------------------------------
 Input file generated by CHIRIPA (05-May-2021 14:55:25)
 ------------------------------------------------------
 Symbolic Z-matrix:
 Charge =  0 Multiplicity = 1

                         Standard orientation:
 ---------------------------------------------------------------------
 Center     Atomic      Atomic             Coordinates (Angstroms)
 Number     Number       Type             X           Y           Z
 ---------------------------------------------------------------------
      1          6           0       -2.119206    1.982214    0.862118
      2          6           0       -1.728137    1.281819   -0.283759
      3          6           0       -2.437866    0.152381   -0.702331
      4          6           0       -3.538654   -0.250575    0.052111
      5          6           0       -3.953059    0.426148    1.198237
      6          6           0       -3.228463    1.552900    1.598161
      7          1           0       -1.562097    2.858545    1.180031
      8          1           0       -0.867080    1.612938   -0.857332
      9          1           0       -2.156973   -0.408457   -1.585495
     10          1           0       -4.815684    0.071922    1.749435
     11          1           0       -3.534463    2.094884    2.488476
     12          7           0       -4.297881   -1.444838   -0.381142
     13          8           0       -5.264062   -1.779454    0.300887
     14          8           0       -3.912406   -2.023673   -1.394550
     15          6           0        3.902644    0.668915   -0.083875
     16          6           0        3.088761    0.963694   -1.344306
     17          6           0        2.159884    2.167045   -1.180218
     18          1           0        3.215985    0.492147    0.755292
     19          1           0        4.494328    1.556976    0.178142
     20          1           0        2.499841    0.074870   -1.604655
     21          1           0        3.777434    1.139593   -2.180611
     22          1           0        2.734893    3.068092   -0.943407
     23          1           0        1.450041    1.997321   -0.364179
     24          1           0        1.587651    2.359907   -2.093024
     25          6           0        4.835977   -0.531326   -0.232326
     26          6           0        5.649860   -0.826105    1.028105
     27          6           0        6.578737   -2.029456    0.864017
     28          1           0        4.244293   -1.419387   -0.494343
     29          1           0        5.522635   -0.354557   -1.071492
     30          1           0        4.961187   -1.002003    1.864410
     31          1           0        6.238780    0.062719    1.288454
     32          1           0        7.288579   -1.859732    0.047979
     33          1           0        6.003727   -2.930503    0.627206
     34          1           0        7.150969   -2.222317    1.776823
 ---------------------------------------------------------------------

 SCF Done:  E(RHF) =  -669.535515567     A.U. after   15 cycles
 E2 =    -0.2091040264D+01 EUMP2 =    -0.67162655583166D+03

 The electronic state is 1-A.
 Alpha  occ. eigenvalues --  -20.60739 -20.60734 -15.85791 -11.31148 -11.27716
 Alpha  occ. eigenvalues --  -11.27699 -11.27446 -11.26732 -11.26650 -11.22392
 Alpha  occ. eigenvalues --  -11.22197 -11.21994 -11.21956 -11.21808 -11.21336
 Alpha  occ. eigenvalues --   -1.59814  -1.39368  -1.19314  -1.08999  -1.08711
 Alpha  occ. eigenvalues --   -1.04715  -1.04144  -0.96620  -0.95549  -0.87649
 Alpha  occ. eigenvalues --   -0.86109  -0.82379  -0.80219  -0.78767  -0.77429
 Alpha  occ. eigenvalues --   -0.72010  -0.71137  -0.70425  -0.65650  -0.64964
 Alpha  occ. eigenvalues --   -0.64728  -0.62135  -0.61473  -0.60009  -0.58198
 Alpha  occ. eigenvalues --   -0.55932  -0.55201  -0.53370  -0.53085  -0.53012
 Alpha  occ. eigenvalues --   -0.52745  -0.50524  -0.48766  -0.48765  -0.48524
 Alpha  occ. eigenvalues --   -0.47224  -0.46320  -0.46212  -0.44776  -0.44379
 Alpha  occ. eigenvalues --   -0.37297  -0.36314
 Alpha virt. eigenvalues --    0.05100   0.11260   0.16590   0.20340   0.22593
 Alpha virt. eigenvalues --    0.23806   0.25943   0.26473   0.26806   0.27970
 Alpha virt. eigenvalues --    0.28904   0.30360   0.31010   0.31493   0.31627

 Mulliken charges:
               1
     1  C   -0.173368
     2  C   -0.225210
     3  C   -0.172843
     4  C    0.158835
     5  C   -0.171359
     6  C   -0.218371
     7  H    0.225900
     8  H    0.234286
     9  H    0.275477
    10  H    0.275396
    11  H    0.223194
    12  N    0.488046
    13  O   -0.460583
    14  O   -0.460573
    15  C   -0.299213
    16  C   -0.299443
    17  C   -0.483373
    18  H    0.150065
    19  H    0.150209
    20  H    0.153149
    21  H    0.155938
    22  H    0.160336
    23  H    0.149828
    24  H    0.158957
    25  C   -0.299088
    26  C   -0.300111
    27  C   -0.476127
    28  H    0.151455
    29  H    0.150744
    30  H    0.152425
    31  H    0.151930
    32  H    0.155680
    33  H    0.156524
    34  H    0.161288
 Sum of Mulliken charges =  -0.00000

 Dipole moment (field-independent basis, Debye):
    X=              2.8867    Y=              4.1849    Z=              1.5209  Tot=              5.3066
 Quadrupole moment (field-independent basis, Debye-Ang):
   XX=           -111.5598   YY=            -97.8372   ZZ=            -91.7655
   XY=            -15.0369   XZ=             -8.4727   YZ=              0.2072

 Normal termination of Gaussian 16 at Thu May  6 16:03:35 2021.
