 Gaussian 16, Revision A.03,
 Gaussian 16:  EM64L-G16RevA.03 25-Dec-2016

 -------------
 #p 6-31g* mp2
 -------------

 ------------------------------------------------------
 Input file generated by CHIRIPA (05-May-2021 14:55:24)
 ------------------------------------------------------
 Symbolic Z-matrix:
 Charge =  0 Multiplicity = 1

                         Standard orientation:
 ---------------------------------------------------------------------
 Center     Atomic      Atomic             Coordinates (Angstroms)
 Number     Number       Type             X           Y           Z
 ---------------------------------------------------------------------
      1          6           0        1.633904    2.305403    0.829697
      2          6           0        1.577823    1.080507    1.502753
      3          6           0        2.349679   -0.002510    1.071637
      4          6           0        3.170327    0.175290   -0.041113
      5          6           0        3.248029    1.383120   -0.732777
      6          6           0        2.467358    2.452541   -0.283957
      7          1           0        1.030884    3.141436    1.171475
      8          1           0        0.931452    0.963352    2.367927
      9          1           0        2.325522   -0.961871    1.574093
     10          1           0        3.901858    1.469496   -1.592117
     11          1           0        2.512930    3.402650   -0.808611
     12          7           0        3.992122   -0.964055   -0.506887
     13          8           0        4.707098   -0.781738   -1.489846
     14          8           0        3.905709   -2.017816    0.119816
     15          6           0       -4.646582   -0.493881   -0.000390
     16          6           0       -5.338802    0.706136   -0.647518
     17          6           0       -6.862870    0.633398   -0.548922
     18          1           0       -5.002777   -1.416475   -0.478814
     19          1           0       -4.944152   -0.554408    1.055633
     20          1           0       -5.038933    0.765195   -1.701656
     21          1           0       -4.980775    1.625993   -0.167627
     22          1           0       -7.179902    0.597911    0.498376
     23          1           0       -7.238391   -0.267778   -1.044369
     24          1           0       -7.337375    1.501065   -1.017811
     25          6           0       -3.122725   -0.435573   -0.090881
     26          6           0       -2.430504   -1.635590    0.556248
     27          6           0       -0.906437   -1.562852    0.457651
     28          1           0       -2.825155   -0.375045   -1.146903
     29          1           0       -2.766530    0.487021    0.387544
     30          1           0       -2.788532   -2.555447    0.076356
     31          1           0       -2.730374   -1.694649    1.610385
     32          1           0       -0.530916   -0.661676    0.953098
     33          1           0       -0.589405   -1.527366   -0.589647
     34          1           0       -0.431932   -2.430519    0.926540
 ---------------------------------------------------------------------

 SCF Done:  E(RHF) =  -669.534257442     A.U. after   15 cycles
 E2 =    -0.2092621180D+01 EUMP2 =    -0.67162687862199D+03

 The electronic state is 1-A.
 Alpha  occ. eigenvalues --  -20.60746 -20.60741 -15.85800 -11.31166 -11.27745
 Alpha  occ. eigenvalues --  -11.27736 -11.27502 -11.26760 -11.26747 -11.21902
 Alpha  occ. eigenvalues --  -11.21866 -11.21721 -11.21650 -11.21327 -11.21264
 Alpha  occ. eigenvalues --   -1.59821  -1.39374  -1.19356  -1.08753  -1.08723
 Alpha  occ. eigenvalues --   -1.04776  -1.03804  -0.96263  -0.95578  -0.87284
 Alpha  occ. eigenvalues --   -0.86161  -0.82423  -0.79881  -0.78546  -0.77455
 Alpha  occ. eigenvalues --   -0.72020  -0.71144  -0.70462  -0.65373  -0.65010
 Alpha  occ. eigenvalues --   -0.64777  -0.62140  -0.61198  -0.59622  -0.57881
 Alpha  occ. eigenvalues --   -0.55591  -0.55261  -0.53336  -0.52980  -0.52798
 Alpha  occ. eigenvalues --   -0.52470  -0.50189  -0.48780  -0.48772  -0.48177
 Alpha  occ. eigenvalues --   -0.46915  -0.46086  -0.46013  -0.44778  -0.44069
 Alpha  occ. eigenvalues --   -0.37338  -0.36248
 Alpha virt. eigenvalues --    0.05077   0.11175   0.16470   0.20960   0.22671
 Alpha virt. eigenvalues --    0.24079   0.26237   0.26723   0.27126   0.28032
 Alpha virt. eigenvalues --    0.28878   0.29774   0.31400   0.31610   0.31930

 Mulliken charges:
               1
     1  C   -0.171456
     2  C   -0.220584
     3  C   -0.163255
     4  C    0.157164
     5  C   -0.171030
     6  C   -0.218668
     7  H    0.225448
     8  H    0.223365
     9  H    0.276884
    10  H    0.275546
    11  H    0.223351
    12  N    0.488155
    13  O   -0.460681
    14  O   -0.460264
    15  C   -0.298393
    16  C   -0.299454
    17  C   -0.475795
    18  H    0.151499
    19  H    0.148949
    20  H    0.152633
    21  H    0.149637
    22  H    0.155089
    23  H    0.156371
    24  H    0.160452
    25  C   -0.297016
    26  C   -0.300501
    27  C   -0.480328
    28  H    0.151308
    29  H    0.144342
    30  H    0.154634
    31  H    0.149520
    32  H    0.152049
    33  H    0.159490
    34  H    0.161540
 Sum of Mulliken charges =  -0.00000

 Dipole moment (field-independent basis, Debye):
    X=             -2.8877    Y=              3.9853    Z=              1.5920  Tot=              5.1726
 Quadrupole moment (field-independent basis, Debye-Ang):
   XX=           -114.3717   YY=            -91.9075   ZZ=            -91.7793
   XY=             13.6726   XZ=              3.9610   YZ=             -1.7710

 Normal termination of Gaussian 16 at Wed May  5 17:35:07 2021.
