 Gaussian 16, Revision A.03,
 Gaussian 16:  EM64L-G16RevA.03 25-Dec-2016

 -------------
 #p 6-31g* mp2
 -------------

 ------------------------------------------------------
 Input file generated by CHIRIPA (05-May-2021 14:53:14)
 ------------------------------------------------------
 Symbolic Z-matrix:
 Charge =  0 Multiplicity = 1

                         Standard orientation:
 ---------------------------------------------------------------------
 Center     Atomic      Atomic             Coordinates (Angstroms)
 Number     Number       Type             X           Y           Z
 ---------------------------------------------------------------------
      1          6           0       -2.773190    0.905613   -0.411377
      2          6           0       -2.101862    2.142444    0.186581
      3          6           0       -0.950571    2.664260   -0.673670
      4          1           0       -2.021835    0.114487   -0.539941
      5          1           0       -3.145939    1.148915   -1.415995
      6          1           0       -1.731712    1.897278    1.190323
      7          1           0       -2.854941    2.930653    0.313915
      8          1           0       -1.308179    2.936097   -1.672080
      9          1           0       -0.178568    1.896850   -0.790692
     10          1           0       -0.484961    3.548637   -0.227637
     11          6           0       -3.926058    0.372176    0.437192
     12          6           0       -4.597386   -0.864655   -0.160766
     13          6           0       -5.748677   -1.386471    0.699485
     14          1           0       -3.553309    0.128874    1.441810
     15          1           0       -4.677413    1.163303    0.565756
     16          1           0       -3.844306   -1.652864   -0.288100
     17          1           0       -4.967535   -0.619488   -1.164508
     18          1           0       -6.520679   -0.619060    0.816506
     19          1           0       -5.391068   -1.658307    1.697894
     20          1           0       -6.214286   -2.270848    0.253451
     21          6           0        4.821354    0.436015    0.784754
     22          6           0        3.816403    0.131101    1.708670
     23          6           0        2.591046   -0.387503    1.279602
     24          6           0        2.403774   -0.589543   -0.086926
     25          6           0        3.385539   -0.295669   -1.031948
     26          6           0        4.603100    0.222034   -0.580200
     27          1           0        5.770213    0.838528    1.126872
     28          1           0        3.983111    0.296250    2.769320
     29          1           0        1.795845   -0.632309    1.973248
     30          1           0        3.189942   -0.471167   -2.082833
     31          1           0        5.381756    0.457916   -1.299992
     32          7           0        1.110671   -1.138089   -0.553166
     33          8           0        0.970516   -1.306910   -1.762501
     34          8           0        0.261775   -1.388832    0.299560
 ---------------------------------------------------------------------

 SCF Done:  E(RHF) =  -669.536527245     A.U. after   15 cycles
 E2 =    -0.2092138862D+01 EUMP2 =    -0.67162866610710D+03

 The electronic state is 1-A.
 Alpha  occ. eigenvalues --  -20.61066 -20.61061 -15.86080 -11.31354 -11.27907
 Alpha  occ. eigenvalues --  -11.27901 -11.27632 -11.26895 -11.26885 -11.20754
 Alpha  occ. eigenvalues --  -11.20492 -11.20472 -11.20292 -11.20197 -11.20024
 Alpha  occ. eigenvalues --   -1.60121  -1.39676  -1.19511  -1.08928  -1.07350
 Alpha  occ. eigenvalues --   -1.04896  -1.02612  -0.95777  -0.95062  -0.86301
 Alpha  occ. eigenvalues --   -0.86093  -0.82610  -0.78662  -0.77672  -0.77134
 Alpha  occ. eigenvalues --   -0.72295  -0.71444  -0.70619  -0.65167  -0.64900
 Alpha  occ. eigenvalues --   -0.63954  -0.62244  -0.60011  -0.58444  -0.56675
 Alpha  occ. eigenvalues --   -0.55405  -0.54357  -0.53226  -0.52988  -0.51824
 Alpha  occ. eigenvalues --   -0.51506  -0.49154  -0.49055  -0.48957  -0.46988
 Alpha  occ. eigenvalues --   -0.45674  -0.45168  -0.44700  -0.44401  -0.42805
 Alpha  occ. eigenvalues --   -0.37482  -0.36491
 Alpha virt. eigenvalues --    0.04813   0.11163   0.16305   0.21282   0.23841
 Alpha virt. eigenvalues --    0.24973   0.27211   0.27500   0.28283   0.28336
 Alpha virt. eigenvalues --    0.29040   0.30835   0.31941   0.32343   0.32491

 Mulliken charges:
               1
     1  C   -0.309628
     2  C   -0.297782
     3  C   -0.473022
     4  H    0.177594
     5  H    0.144835
     6  H    0.149045
     7  H    0.147497
     8  H    0.155613
     9  H    0.150481
    10  H    0.154259
    11  C   -0.296238
    12  C   -0.301284
    13  C   -0.475145
    14  H    0.148759
    15  H    0.143370
    16  H    0.162590
    17  H    0.149240
    18  H    0.151578
    19  H    0.153912
    20  H    0.158125
    21  C   -0.170182
    22  C   -0.218513
    23  C   -0.170434
    24  C    0.157651
    25  C   -0.170591
    26  C   -0.218529
    27  H    0.226293
    28  H    0.224067
    29  H    0.275784
    30  H    0.276296
    31  H    0.224137
    32  N    0.488795
    33  O   -0.458133
    34  O   -0.460440
 Sum of Mulliken charges =  -0.00000

 Dipole moment (field-independent basis, Debye):
    X=              4.8457    Y=              1.7230    Z=              1.5886  Tot=              5.3827
 Quadrupole moment (field-independent basis, Debye-Ang):
   XX=            -74.0095   YY=            -98.3063   ZZ=            -90.6282
   XY=              1.6985   XZ=              2.8442   YZ=             -1.3304

 Normal termination of Gaussian 16 at Wed May  5 15:35:15 2021.
