 Gaussian 16, Revision A.03,
 Gaussian 16:  EM64L-G16RevA.03 25-Dec-2016

 -------------
 #p 6-31g* mp2
 -------------

 ------------------------------------------------------
 Input file generated by CHIRIPA (05-May-2021 14:57:24)
 ------------------------------------------------------
 Symbolic Z-matrix:
 Charge =  0 Multiplicity = 1

                         Standard orientation:
 ---------------------------------------------------------------------
 Center     Atomic      Atomic             Coordinates (Angstroms)
 Number     Number       Type             X           Y           Z
 ---------------------------------------------------------------------
      1          6           0       -4.284359   -1.883616   -0.457781
      2          6           0       -4.891128   -0.653627   -0.183046
      3          6           0       -4.116409    0.496941   -0.008255
      4          6           0       -2.731386    0.380764   -0.115514
      5          6           0       -2.097313   -0.830368   -0.388279
      6          6           0       -2.891843   -1.967912   -0.559342
      7          1           0       -4.893874   -2.772347   -0.592115
      8          1           0       -5.972354   -0.585185   -0.103611
      9          1           0       -4.560089    1.461807    0.205283
     10          1           0       -1.017178   -0.867223   -0.461546
     11          1           0       -2.417886   -2.921812   -0.772616
     12          7           0       -1.900740    1.591926    0.067555
     13          8           0       -0.682487    1.463088   -0.031937
     14          8           0       -2.483660    2.647138    0.307071
     15          6           0        2.132273   -0.627424    2.517405
     16          6           0        2.468359   -1.693423    1.676445
     17          6           0        2.877480   -1.457940    0.360499
     18          6           0        2.939442   -0.138006   -0.083603
     19          6           0        2.611092    0.945267    0.730030
     20          6           0        2.204585    0.686203    2.042350
     21          1           0        1.815474   -0.819513    3.538256
     22          1           0        2.413133   -2.714633    2.042678
     23          1           0        3.143402   -2.264502   -0.311930
     24          1           0        2.675972    1.952407    0.336487
     25          1           0        1.944178    1.516032    2.693209
     26          7           0        3.371176    0.123771   -1.474817
     27          8           0        3.417468    1.295796   -1.842039
     28          8           0        3.655103   -0.848029   -2.171686
 ---------------------------------------------------------------------

 SCF Done:  E(RHF) =  -868.338444815     A.U. after   16 cycles
 E2 =    -0.2600342211D+01 EUMP2 =    -0.87093878702603D+03

 The electronic state is 1-A.
 Alpha  occ. eigenvalues --  -20.61054 -20.61044 -20.60195 -20.60147 -15.86088
 Alpha  occ. eigenvalues --  -15.85225 -11.31377 -11.30510 -11.27947 -11.27920
 Alpha  occ. eigenvalues --  -11.27681 -11.27211 -11.26966 -11.26945 -11.26932
 Alpha  occ. eigenvalues --  -11.26882 -11.26227 -11.25981  -1.60123  -1.59251
 Alpha  occ. eigenvalues --   -1.39678  -1.38805  -1.19548  -1.18700  -1.08961
 Alpha  occ. eigenvalues --   -1.08125  -1.04937  -1.04082  -0.95809  -0.94963
 Alpha  occ. eigenvalues --   -0.86339  -0.85501  -0.82644  -0.81791  -0.77696
 Alpha  occ. eigenvalues --   -0.76834  -0.72336  -0.71451  -0.71437  -0.70654
 Alpha  occ. eigenvalues --   -0.70567  -0.69838  -0.65204  -0.64941  -0.64361
 Alpha  occ. eigenvalues --   -0.64107  -0.62282  -0.61432  -0.55447  -0.54644
 Alpha  occ. eigenvalues --   -0.53276  -0.53034  -0.52414  -0.52187  -0.49085
 Alpha  occ. eigenvalues --   -0.49065  -0.48217  -0.48189  -0.45100  -0.44227
 Alpha  occ. eigenvalues --   -0.37533  -0.36717  -0.36538  -0.35609
 Alpha virt. eigenvalues --    0.04808   0.05723   0.11116   0.11982   0.16309
 Alpha virt. eigenvalues --    0.17213   0.21234   0.22014   0.27121   0.27950
 Alpha virt. eigenvalues --    0.28064   0.28915   0.30721   0.31505   0.32208

 Mulliken charges:
               1
     1  C   -0.170528
     2  C   -0.218793
     3  C   -0.170915
     4  C    0.157390
     5  C   -0.170787
     6  C   -0.219072
     7  H    0.226066
     8  H    0.223850
     9  H    0.275610
    10  H    0.277328
    11  H    0.223746
    12  N    0.491095
    13  O   -0.464853
    14  O   -0.460678
    15  C   -0.173342
    16  C   -0.222461
    17  C   -0.178003
    18  C    0.154678
    19  C   -0.150607
    20  C   -0.213234
    21  H    0.222286
    22  H    0.217860
    23  H    0.270898
    24  H    0.281367
    25  H    0.225982
    26  N    0.488100
    27  O   -0.456146
    28  O   -0.466836
 Sum of Mulliken charges =  -0.00000

 Dipole moment (field-independent basis, Debye):
    X=             -4.5750    Y=             -4.8468    Z=              4.2535  Tot=              7.9066
 Quadrupole moment (field-independent basis, Debye-Ang):
   XX=            -95.5683   YY=           -102.0853   ZZ=           -106.9974
   XY=              6.0096   XZ=             16.0201   YZ=              1.2595

 Normal termination of Gaussian 16 at Wed May  5 19:26:57 2021.
