 Gaussian 16, Revision A.03,
 Gaussian 16:  EM64L-G16RevA.03 25-Dec-2016

 -------------
 #p 6-31g* mp2
 -------------

 ------------------------------------------------------
 Input file generated by CHIRIPA (05-May-2021 14:51:13)
 ------------------------------------------------------
 Symbolic Z-matrix:
 Charge =  0 Multiplicity = 1

                         Standard orientation:
 ---------------------------------------------------------------------
 Center     Atomic      Atomic             Coordinates (Angstroms)
 Number     Number       Type             X           Y           Z
 ---------------------------------------------------------------------
      1          6           0        2.005078   -0.476098    0.404068
      2          6           0        2.967302   -1.548724    0.915522
      3          6           0        2.298040   -2.535308    1.872879
      4          1           0        1.585212    0.069220    1.260389
      5          1           0        1.159592   -0.962848   -0.101523
      6          1           0        3.811419   -1.060046    1.418788
      7          1           0        3.385073   -2.091425    0.057875
      8          1           0        1.467647   -3.049253    1.377996
      9          1           0        1.896415   -2.012013    2.746641
     10          1           0        3.003917   -3.293405    2.226273
     11          6           0        2.659439    0.517654   -0.554053
     12          6           0        1.697215    1.590279   -1.065506
     13          6           0        2.366478    2.576864   -2.022863
     14          1           0        3.504925    1.004404   -0.048461
     15          1           0        3.079306   -0.027664   -1.410373
     16          1           0        1.279445    2.132981   -0.207859
     17          1           0        0.853099    1.101601   -1.568772
     18          1           0        2.768102    2.053569   -2.896626
     19          1           0        3.196871    3.090808   -1.527980
     20          1           0        1.660601    3.334961   -2.376257
     21          6           0       -2.641914   -0.375696   -0.526322
     22          6           0       -2.021155   -1.744291   -0.808438
     23          6           0       -2.651159   -2.441923   -2.014339
     24          1           0       -3.720932   -0.496999   -0.359138
     25          1           0       -2.532972    0.259124   -1.416564
     26          1           0       -2.130005   -2.375880    0.082552
     27          1           0       -0.943457   -1.619740   -0.974781
     28          1           0       -2.529953   -1.834843   -2.917314
     29          1           0       -3.723244   -2.595280   -1.853974
     30          1           0       -2.192485   -3.418521   -2.198016
     31          6           0       -2.022604    0.334140    0.676306
     32          6           0       -2.643363    1.702735    0.958422
     33          6           0       -2.013359    2.400367    2.164324
     34          1           0       -2.131545   -0.300679    1.566549
     35          1           0       -0.943586    0.455444    0.509122
     36          1           0       -3.721060    1.578184    1.124765
     37          1           0       -2.534512    2.334325    0.067433
     38          1           0       -0.941273    2.553725    2.003958
     39          1           0       -2.134564    1.793287    3.067299
     40          1           0       -2.472032    3.376964    2.348000
 ---------------------------------------------------------------------

 SCF Done:  E(RHF) =  -470.732480984     A.U. after   11 cycles
 E2 =    -0.1585312528D+01 EUMP2 =    -0.47231779351206D+03

 The electronic state is 1-A.
 Alpha  occ. eigenvalues --  -11.21725 -11.21620 -11.21609 -11.21532 -11.21461
 Alpha  occ. eigenvalues --  -11.21376 -11.21345 -11.21198 -11.21155 -11.21089
 Alpha  occ. eigenvalues --  -11.21063 -11.21056  -1.08527  -1.08354  -1.03589
 Alpha  occ. eigenvalues --   -1.03505  -0.96035  -0.95947  -0.87047  -0.86969
 Alpha  occ. eigenvalues --   -0.79675  -0.79560  -0.78595  -0.77943  -0.65216
 Alpha  occ. eigenvalues --   -0.64945  -0.60985  -0.60914  -0.59409  -0.59309
 Alpha  occ. eigenvalues --   -0.57685  -0.57531  -0.55329  -0.55232  -0.52739
 Alpha  occ. eigenvalues --   -0.52663  -0.52458  -0.52373  -0.50014  -0.49866
 Alpha  occ. eigenvalues --   -0.48041  -0.47868  -0.46786  -0.46647  -0.46589
 Alpha  occ. eigenvalues --   -0.45685  -0.45658  -0.44810  -0.43831  -0.43734
 Alpha virt. eigenvalues --    0.20132   0.22116   0.23333   0.24349   0.25005
 Alpha virt. eigenvalues --    0.26312   0.27045   0.27818   0.28135   0.30377
 Alpha virt. eigenvalues --    0.30975   0.31371   0.31757   0.31941   0.32168

 Mulliken charges:
               1
     1  C   -0.310016
     2  C   -0.298615
     3  C   -0.476057
     4  H    0.151172
     5  H    0.159215
     6  H    0.151883
     7  H    0.151661
     8  H    0.155881
     9  H    0.155443
    10  H    0.160127
    11  C   -0.297210
    12  C   -0.303688
    13  C   -0.475595
    14  H    0.149840
    15  H    0.149631
    16  H    0.153143
    17  H    0.152471
    18  H    0.155555
    19  H    0.155717
    20  H    0.160483
    21  C   -0.297862
    22  C   -0.306801
    23  C   -0.475048
    24  H    0.149468
    25  H    0.148793
    26  H    0.152206
    27  H    0.156853
    28  H    0.154908
    29  H    0.155547
    30  H    0.159880
    31  C   -0.308838
    32  C   -0.298904
    33  C   -0.476798
    34  H    0.148322
    35  H    0.164015
    36  H    0.151431
    37  H    0.151682
    38  H    0.154838
    39  H    0.155096
    40  H    0.160169
 Sum of Mulliken charges =  -0.00000

 Dipole moment (field-independent basis, Debye):
    X=              0.0509    Y=             -0.0061    Z=             -0.0041  Tot=              0.0514
 Quadrupole moment (field-independent basis, Debye-Ang):
   XX=            -84.5724   YY=            -85.2907   ZZ=            -85.0197
   XY=              0.0144   XZ=             -0.3012   YZ=              0.1725

 Normal termination of Gaussian 16 at Thu May  6 00:48:43 2021.
