 Gaussian 16, Revision A.03,
 Gaussian 16:  EM64L-G16RevA.03 25-Dec-2016

 -------------
 #p 6-31g* mp2
 -------------

 ------------------------------------------------------
 Input file generated by CHIRIPA (05-May-2021 14:53:14)
 ------------------------------------------------------
 Symbolic Z-matrix:
 Charge =  0 Multiplicity = 1

                         Standard orientation:
 ---------------------------------------------------------------------
 Center     Atomic      Atomic             Coordinates (Angstroms)
 Number     Number       Type             X           Y           Z
 ---------------------------------------------------------------------
      1          6           0       -3.078649   -0.122592   -0.309259
      2          6           0       -2.481565   -1.281034   -1.108938
      3          6           0       -0.953418   -1.304586   -1.064149
      4          1           0       -2.684306    0.825646   -0.699494
      5          1           0       -2.742562   -0.194996    0.734388
      6          1           0       -2.819795   -1.207250   -2.150462
      7          1           0       -2.877522   -2.226615   -0.716878
      8          1           0       -0.599704   -1.401969   -0.032643
      9          1           0       -0.541648   -0.376812   -1.474372
     10          1           0       -0.547672   -2.140636   -1.642292
     11          6           0       -4.605450   -0.085620   -0.344451
     12          6           0       -5.202535    1.072822    0.455228
     13          6           0       -6.730682    1.096373    0.410439
     14          1           0       -4.941538   -0.013216   -1.388097
     15          1           0       -4.999793   -1.033858    0.045785
     16          1           0       -4.806577    2.018402    0.063168
     17          1           0       -4.864305    0.999038    1.496752
     18          1           0       -7.142451    0.168600    0.820663
     19          1           0       -7.084396    1.193756   -0.621067
     20          1           0       -7.136427    1.932424    0.988583
     21          6           0        1.914931   -2.026722    1.116271
     22          6           0        1.545229   -0.783991    1.641115
     23          6           0        2.140686    0.390570    1.171662
     24          6           0        3.106657    0.285132    0.172126
     25          6           0        3.496361   -0.938217   -0.370864
     26          6           0        2.887603   -2.099740    0.113724
     27          1           0        1.447199   -2.934085    1.486833
     28          1           0        0.790129   -0.724260    2.419769
     29          1           0        1.873324    1.365723    1.560265
     30          1           0        4.252128   -0.965903   -1.146407
     31          1           0        3.176693   -3.063491   -0.295733
     32          7           0        3.744081    1.521685   -0.332875
     33          8           0        4.592531    1.401899   -1.214024
     34          8           0        3.383175    2.587268    0.162016
 ---------------------------------------------------------------------

 SCF Done:  E(RHF) =  -669.533796980     A.U. after   15 cycles
 E2 =    -0.2093046093D+01 EUMP2 =    -0.67162684307211D+03

 The electronic state is 1-A.
 Alpha  occ. eigenvalues --  -20.60762 -20.60757 -15.85816 -11.31180 -11.27764
 Alpha  occ. eigenvalues --  -11.27747 -11.27492 -11.26763 -11.26745 -11.21878
 Alpha  occ. eigenvalues --  -11.21840 -11.21719 -11.21634 -11.21269 -11.21229
 Alpha  occ. eigenvalues --   -1.59838  -1.39391  -1.19363  -1.08781  -1.08697
 Alpha  occ. eigenvalues --   -1.04770  -1.03781  -0.96235  -0.95592  -0.87251
 Alpha  occ. eigenvalues --   -0.86174  -0.82425  -0.79851  -0.78531  -0.77468
 Alpha  occ. eigenvalues --   -0.72036  -0.71161  -0.70481  -0.65353  -0.65020
 Alpha  occ. eigenvalues --   -0.64780  -0.62118  -0.61197  -0.59604  -0.57870
 Alpha  occ. eigenvalues --   -0.55588  -0.55276  -0.53490  -0.52877  -0.52859
 Alpha  occ. eigenvalues --   -0.52326  -0.50156  -0.48794  -0.48789  -0.48137
 Alpha  occ. eigenvalues --   -0.46897  -0.46062  -0.46005  -0.44798  -0.44050
 Alpha  occ. eigenvalues --   -0.37226  -0.36322
 Alpha virt. eigenvalues --    0.05059   0.11178   0.16522   0.21019   0.22693
 Alpha virt. eigenvalues --    0.24138   0.26158   0.26916   0.27587   0.27777
 Alpha virt. eigenvalues --    0.28545   0.30777   0.31376   0.31569   0.31755

 Mulliken charges:
               1
     1  C   -0.297225
     2  C   -0.300165
     3  C   -0.475768
     4  H    0.152481
     5  H    0.143296
     6  H    0.153261
     7  H    0.148655
     8  H    0.154612
     9  H    0.158197
    10  H    0.156192
    11  C   -0.298228
    12  C   -0.299769
    13  C   -0.475834
    14  H    0.151131
    15  H    0.148674
    16  H    0.153604
    17  H    0.150165
    18  H    0.154709
    19  H    0.156112
    20  H    0.161044
    21  C   -0.167646
    22  C   -0.219777
    23  C   -0.169155
    24  C    0.158231
    25  C   -0.170566
    26  C   -0.217069
    27  H    0.225860
    28  H    0.223342
    29  H    0.275663
    30  H    0.275656
    31  H    0.223379
    32  N    0.487994
    33  O   -0.460515
    34  O   -0.460541
 Sum of Mulliken charges =  -0.00000

 Dipole moment (field-independent basis, Debye):
    X=             -2.2068    Y=             -4.3343    Z=              1.7617  Tot=              5.1730
 Quadrupole moment (field-independent basis, Debye-Ang):
   XX=           -108.9532   YY=            -95.9573   ZZ=            -91.9814
   XY=            -16.1082   XZ=              3.2444   YZ=              1.1184

 Normal termination of Gaussian 16 at Thu May  6 04:14:40 2021.
