 Gaussian 16, Revision A.03,
 Gaussian 16:  EM64L-G16RevA.03 25-Dec-2016

 -------------
 #p 6-31g* mp2
 -------------

 ------------------------------------------------------
 Input file generated by CHIRIPA (05-May-2021 14:55:23)
 ------------------------------------------------------
 Symbolic Z-matrix:
 Charge =  0 Multiplicity = 1

                         Standard orientation:
 ---------------------------------------------------------------------
 Center     Atomic      Atomic             Coordinates (Angstroms)
 Number     Number       Type             X           Y           Z
 ---------------------------------------------------------------------
      1          6           0        4.396864   -1.631727    1.056491
      2          6           0        3.083704   -2.030614    0.786262
      3          6           0        2.236493   -1.217392    0.027676
      4          6           0        2.737537   -0.006265   -0.447104
      5          6           0        4.040958    0.418860   -0.194812
      6          6           0        4.870464   -0.410417    0.565956
      7          1           0        5.048121   -2.269693    1.646626
      8          1           0        2.713201   -2.978572    1.165927
      9          1           0        1.215555   -1.501751   -0.196477
     10          1           0        4.381854    1.369382   -0.586878
     11          1           0        5.889827   -0.098074    0.774252
     12          7           0        1.850004    0.863155   -1.251340
     13          8           0        2.315436    1.925473   -1.658143
     14          8           0        0.705729    0.465824   -1.459668
     15          6           0       -3.888776   -0.511465    0.178212
     16          6           0       -5.287245   -0.581321   -0.436110
     17          6           0       -5.667954   -1.993995   -0.880184
     18          1           0       -3.155261   -0.877653   -0.553092
     19          1           0       -3.839383   -1.193105    1.038633
     20          1           0       -5.334404    0.101282   -1.294274
     21          1           0       -6.017494   -0.214743    0.296675
     22          1           0       -5.648883   -2.683377   -0.029895
     23          1           0       -4.961914   -2.365557   -1.629884
     24          1           0       -6.671383   -2.020977   -1.316376
     25          6           0       -3.493786    0.894328    0.627052
     26          6           0       -2.095316    0.964183    1.241374
     27          6           0       -1.714606    2.376859    1.685449
     28          1           0       -3.543178    1.575968   -0.233369
     29          1           0       -4.227300    1.260516    1.358357
     30          1           0       -1.365067    0.597606    0.508589
     31          1           0       -2.048157    0.281580    2.099537
     32          1           0       -2.420648    2.748419    2.435148
     33          1           0       -1.733677    3.066240    0.835160
     34          1           0       -0.711178    2.403840    2.121640
 ---------------------------------------------------------------------

 SCF Done:  E(RHF) =  -669.536423057     A.U. after   15 cycles
 E2 =    -0.2091229462D+01 EUMP2 =    -0.67162765251909D+03

 The electronic state is 1-A.
 Alpha  occ. eigenvalues --  -20.60981 -20.60969 -15.85998 -11.31288 -11.27851
 Alpha  occ. eigenvalues --  -11.27846 -11.27586 -11.26854 -11.26843 -11.21098
 Alpha  occ. eigenvalues --  -11.20785 -11.20716 -11.20684 -11.20624 -11.20308
 Alpha  occ. eigenvalues --   -1.60029  -1.39588  -1.19456  -1.08867  -1.07763
 Alpha  occ. eigenvalues --   -1.04849  -1.02882  -0.95714  -0.95356  -0.86374
 Alpha  occ. eigenvalues --   -0.86251  -0.82551  -0.78962  -0.77652  -0.77530
 Alpha  occ. eigenvalues --   -0.72228  -0.71336  -0.70567  -0.65116  -0.64853
 Alpha  occ. eigenvalues --   -0.64370  -0.62197  -0.60256  -0.58740  -0.56973
 Alpha  occ. eigenvalues --   -0.55357  -0.54633  -0.53181  -0.52941  -0.52069
 Alpha  occ. eigenvalues --   -0.51789  -0.49293  -0.48991  -0.48976  -0.47294
 Alpha  occ. eigenvalues --   -0.46017  -0.45282  -0.45097  -0.44657  -0.43142
 Alpha  occ. eigenvalues --   -0.37434  -0.36448
 Alpha virt. eigenvalues --    0.04881   0.11197   0.16347   0.21223   0.23516
 Alpha virt. eigenvalues --    0.24891   0.26583   0.27421   0.27744   0.28519
 Alpha virt. eigenvalues --    0.28871   0.30789   0.31793   0.32161   0.32564

 Mulliken charges:
               1
     1  C   -0.170520
     2  C   -0.218622
     3  C   -0.170618
     4  C    0.158301
     5  C   -0.170839
     6  C   -0.218605
     7  H    0.226016
     8  H    0.224051
     9  H    0.276282
    10  H    0.275787
    11  H    0.223808
    12  N    0.489134
    13  O   -0.458311
    14  O   -0.461055
    15  C   -0.299184
    16  C   -0.299269
    17  C   -0.475491
    18  H    0.153954
    19  H    0.144449
    20  H    0.153869
    21  H    0.150237
    22  H    0.152662
    23  H    0.155402
    24  H    0.159045
    25  C   -0.296910
    26  C   -0.310581
    27  C   -0.474346
    28  H    0.154079
    29  H    0.145627
    30  H    0.171640
    31  H    0.142713
    32  H    0.150634
    33  H    0.161468
    34  H    0.155190
 Sum of Mulliken charges =  -0.00000

 Dipole moment (field-independent basis, Debye):
    X=              3.3462    Y=             -3.0219    Z=              2.6668  Tot=              5.2384
 Quadrupole moment (field-independent basis, Debye-Ang):
   XX=            -75.6706   YY=            -93.7977   ZZ=            -97.7185
   XY=             -6.2386   XZ=              6.0518   YZ=              0.1351

 Normal termination of Gaussian 16 at Thu May  6 11:01:17 2021.
