 Gaussian 16, Revision A.03,
 Gaussian 16:  EM64L-G16RevA.03 25-Dec-2016

 -------------
 #p 6-31g* mp2
 -------------

 ------------------------------------------------------
 Input file generated by CHIRIPA (05-May-2021 14:53:16)
 ------------------------------------------------------
 Symbolic Z-matrix:
 Charge =  0 Multiplicity = 1

                         Standard orientation:
 ---------------------------------------------------------------------
 Center     Atomic      Atomic             Coordinates (Angstroms)
 Number     Number       Type             X           Y           Z
 ---------------------------------------------------------------------
      1          6           0       -2.874820    0.489953   -0.718511
      2          6           0       -3.336581    1.932704   -0.510583
      3          6           0       -2.597095    2.925261   -1.408239
      4          1           0       -1.794990    0.426021   -0.526611
      5          1           0       -3.022032    0.213384   -1.771712
      6          1           0       -3.189829    2.206013    0.542214
      7          1           0       -4.415473    1.993170   -0.702814
      8          1           0       -2.753123    2.680292   -2.463818
      9          1           0       -1.520515    2.894345   -1.211716
     10          1           0       -2.942784    3.950503   -1.243202
     11          6           0       -3.604876   -0.514067    0.171820
     12          6           0       -3.143114   -1.956818   -0.036107
     13          6           0       -3.882600   -2.949375    0.861549
     14          1           0       -3.457664   -0.237498    1.225022
     15          1           0       -4.684705   -0.450135   -0.020079
     16          1           0       -2.064223   -2.017284    0.156124
     17          1           0       -3.289867   -2.230127   -1.088904
     18          1           0       -4.959180   -2.918459    0.665025
     19          1           0       -3.726572   -2.704406    1.917127
     20          1           0       -3.536912   -3.974617    0.696512
     21          6           0        1.099231    1.581097    1.572012
     22          6           0        0.584813    0.348961    1.155195
     23          6           0        1.369174   -0.529770    0.402095
     24          6           0        2.669562   -0.142524    0.082220
     25          6           0        3.210607    1.078189    0.482742
     26          6           0        2.408178    1.941143    1.235050
     27          1           0        0.482903    2.257588    2.156731
     28          1           0       -0.431386    0.066706    1.415418
     29          1           0        0.996092   -1.489731    0.066383
     30          1           0        4.227258    1.331758    0.207894
     31          1           0        2.810320    2.897399    1.557391
     32          7           0        3.509493   -1.064446   -0.714633
     33          8           0        4.652053   -0.699815   -0.983405
     34          8           0        3.009367   -2.134225   -1.055347
 ---------------------------------------------------------------------

 SCF Done:  E(RHF) =  -669.535099539     A.U. after   15 cycles
 E2 =    -0.2092982897D+01 EUMP2 =    -0.67162808243569D+03

 The electronic state is 1-A.
 Alpha  occ. eigenvalues --  -20.60798 -20.60792 -15.85852 -11.31248 -11.27823
 Alpha  occ. eigenvalues --  -11.27818 -11.27572 -11.26840 -11.26822 -11.22360
 Alpha  occ. eigenvalues --  -11.22278 -11.22160 -11.22004 -11.21640 -11.21604
 Alpha  occ. eigenvalues --   -1.59872  -1.39425  -1.19429  -1.09159  -1.08813
 Alpha  occ. eigenvalues --   -1.04838  -1.04185  -0.96614  -0.95643  -0.87624
 Alpha  occ. eigenvalues --   -0.86232  -0.82482  -0.80252  -0.78968  -0.77515
 Alpha  occ. eigenvalues --   -0.72070  -0.71195  -0.70528  -0.65976  -0.65078
 Alpha  occ. eigenvalues --   -0.64730  -0.62158  -0.61599  -0.59973  -0.58219
 Alpha  occ. eigenvalues --   -0.55933  -0.55315  -0.53290  -0.53191  -0.53037
 Alpha  occ. eigenvalues --   -0.52868  -0.50558  -0.48832  -0.48823  -0.48554
 Alpha  occ. eigenvalues --   -0.47315  -0.46467  -0.46440  -0.44823  -0.44446
 Alpha  occ. eigenvalues --   -0.37399  -0.36395
 Alpha virt. eigenvalues --    0.04997   0.11136   0.16361   0.18520   0.23075
 Alpha virt. eigenvalues --    0.23206   0.25120   0.25808   0.27044   0.28435
 Alpha virt. eigenvalues --    0.29385   0.30680   0.31241   0.31370   0.32379

 Mulliken charges:
               1
     1  C   -0.306444
     2  C   -0.298500
     3  C   -0.477156
     4  H    0.150403
     5  H    0.154688
     6  H    0.145056
     7  H    0.154876
     8  H    0.158657
     9  H    0.155953
    10  H    0.160576
    11  C   -0.300536
    12  C   -0.300017
    13  C   -0.476023
    14  H    0.143060
    15  H    0.154431
    16  H    0.143255
    17  H    0.158091
    18  H    0.157830
    19  H    0.153691
    20  H    0.164308
    21  C   -0.173280
    22  C   -0.220263
    23  C   -0.173383
    24  C    0.159178
    25  C   -0.170402
    26  C   -0.218564
    27  H    0.226383
    28  H    0.229148
    29  H    0.277255
    30  H    0.275986
    31  H    0.223918
    32  N    0.488110
    33  O   -0.460291
    34  O   -0.459992
 Sum of Mulliken charges =  -0.00000

 Dipole moment (field-independent basis, Debye):
    X=             -3.0263    Y=              3.2150    Z=              2.7103  Tot=              5.1808
 Quadrupole moment (field-independent basis, Debye-Ang):
   XX=           -107.1141   YY=            -94.3377   ZZ=            -94.8054
   XY=             12.0590   XZ=              8.5824   YZ=              0.6183

 Normal termination of Gaussian 16 at Thu May  6 02:44:59 2021.
