 Gaussian 16, Revision A.03,
 Gaussian 16:  EM64L-G16RevA.03 25-Dec-2016

 -------------
 #p 6-31g* mp2
 -------------

 ------------------------------------------------------
 Input file generated by CHIRIPA (05-May-2021 14:55:23)
 ------------------------------------------------------
 Symbolic Z-matrix:
 Charge =  0 Multiplicity = 1

                         Standard orientation:
 ---------------------------------------------------------------------
 Center     Atomic      Atomic             Coordinates (Angstroms)
 Number     Number       Type             X           Y           Z
 ---------------------------------------------------------------------
      1          6           0       -4.455108   -1.254174    1.036168
      2          6           0       -4.005832   -1.430970   -0.276621
      3          6           0       -3.117091   -0.517900   -0.851938
      4          6           0       -2.696146    0.565522   -0.082334
      5          6           0       -3.125758    0.769020    1.228129
      6          6           0       -4.014414   -0.156678    1.783036
      7          1           0       -5.145471   -1.968373    1.475161
      8          1           0       -4.346404   -2.282372   -0.859005
      9          1           0       -2.753383   -0.630637   -1.866051
     10          1           0       -2.768590    1.627523    1.783846
     11          1           0       -4.361661   -0.016845    2.802797
     12          7           0       -1.755320    1.538833   -0.680593
     13          8           0       -1.399383    2.485069    0.018394
     14          8           0       -1.391652    1.337048   -1.837168
     15          6           0        4.347070   -0.609931    0.276727
     16          6           0        5.169653    0.678774    0.300793
     17          6           0        6.562680    0.479835    0.898868
     18          1           0        4.256140   -0.998534    1.300282
     19          1           0        4.889281   -1.372067   -0.299946
     20          1           0        4.625412    1.438682    0.876083
     21          1           0        5.258473    1.064458   -0.722913
     22          1           0        7.127938   -0.258844    0.321427
     23          1           0        6.491280    0.117506    1.929509
     24          1           0        7.133488    1.413635    0.906314
     25          6           0        2.952014   -0.427148   -0.318369
     26          6           0        2.129432   -1.715854   -0.342435
     27          6           0        0.736405   -1.516914   -0.940510
     28          1           0        2.409804    0.334988    0.258304
     29          1           0        3.042945   -0.038544   -1.341924
     30          1           0        2.040612   -2.101537    0.681272
     31          1           0        2.673673   -2.475761   -0.917725
     32          1           0        0.807804   -1.154585   -1.971151
     33          1           0        0.171146   -0.778235   -0.363069
     34          1           0        0.165598   -2.450715   -0.947956
 ---------------------------------------------------------------------

 SCF Done:  E(RHF) =  -669.535392620     A.U. after   15 cycles
 E2 =    -0.2092211307D+01 EUMP2 =    -0.67162760392730D+03

 The electronic state is 1-A.
 Alpha  occ. eigenvalues --  -20.60803 -20.60788 -15.85830 -11.31179 -11.27768
 Alpha  occ. eigenvalues --  -11.27746 -11.27508 -11.26773 -11.26758 -11.21170
 Alpha  occ. eigenvalues --  -11.21108 -11.20909 -11.20763 -11.20679 -11.20617
 Alpha  occ. eigenvalues --   -1.59867  -1.39419  -1.19364  -1.08765  -1.07931
 Alpha  occ. eigenvalues --   -1.04762  -1.03074  -0.95604  -0.95519  -0.86552
 Alpha  occ. eigenvalues --   -0.86157  -0.82431  -0.79142  -0.77726  -0.77470
 Alpha  occ. eigenvalues --   -0.72060  -0.71206  -0.70472  -0.65017  -0.64766
 Alpha  occ. eigenvalues --   -0.64564  -0.62109  -0.60477  -0.58899  -0.57126
 Alpha  occ. eigenvalues --   -0.55271  -0.54821  -0.53107  -0.52858  -0.52238
 Alpha  occ. eigenvalues --   -0.51937  -0.49459  -0.48821  -0.48815  -0.47464
 Alpha  occ. eigenvalues --   -0.46169  -0.45312  -0.45191  -0.44717  -0.43327
 Alpha  occ. eigenvalues --   -0.37332  -0.36352
 Alpha virt. eigenvalues --    0.05027   0.11262   0.16522   0.21384   0.23330
 Alpha virt. eigenvalues --    0.24660   0.27084   0.27180   0.27741   0.28124
 Alpha virt. eigenvalues --    0.28638   0.30892   0.31552   0.32025   0.32198

 Mulliken charges:
               1
     1  C   -0.170523
     2  C   -0.218936
     3  C   -0.167979
     4  C    0.154903
     5  C   -0.171744
     6  C   -0.218686
     7  H    0.225588
     8  H    0.223485
     9  H    0.276488
    10  H    0.275470
    11  H    0.223335
    12  N    0.489813
    13  O   -0.460583
    14  O   -0.457862
    15  C   -0.298121
    16  C   -0.299686
    17  C   -0.475476
    18  H    0.147210
    19  H    0.147587
    20  H    0.154039
    21  H    0.153324
    22  H    0.153969
    23  H    0.153714
    24  H    0.159886
    25  C   -0.298888
    26  C   -0.300368
    27  C   -0.473616
    28  H    0.154493
    29  H    0.153839
    30  H    0.148398
    31  H    0.149673
    32  H    0.164809
    33  H    0.151136
    34  H    0.151311
 Sum of Mulliken charges =  -0.00000

 Dipole moment (field-independent basis, Debye):
    X=             -3.3872    Y=             -3.3249    Z=              2.0192  Tot=              5.1580
 Quadrupole moment (field-independent basis, Debye-Ang):
   XX=            -78.8723   YY=            -98.0632   ZZ=            -90.8583
   XY=              7.7614   XZ=             -6.4931   YZ=              4.2632

 Normal termination of Gaussian 16 at Wed May  5 20:41:13 2021.
