 Gaussian 16, Revision A.03,
 Gaussian 16:  EM64L-G16RevA.03 25-Dec-2016

 -------------
 #p 6-31g* mp2
 -------------

 ------------------------------------------------------
 Input file generated by CHIRIPA (05-May-2021 14:51:11)
 ------------------------------------------------------
 Symbolic Z-matrix:
 Charge =  0 Multiplicity = 1

                         Standard orientation:
 ---------------------------------------------------------------------
 Center     Atomic      Atomic             Coordinates (Angstroms)
 Number     Number       Type             X           Y           Z
 ---------------------------------------------------------------------
      1          6           0        2.440233   -0.491226    0.784969
      2          6           0        1.377456    0.533134    1.183941
      3          6           0        0.239069   -0.082614    1.998020
      4          1           0        1.966198   -1.295149    0.205362
      5          1           0        2.847940   -0.958485    1.692073
      6          1           0        0.972857    0.999313    0.276421
      7          1           0        1.854110    1.334810    1.762502
      8          1           0        0.623512   -0.531623    2.919538
      9          1           0       -0.262747   -0.869026    1.425013
     10          1           0       -0.509396    0.667239    2.272576
     11          6           0        3.584845    0.109186   -0.029340
     12          6           0        4.647621   -0.915174   -0.428312
     13          6           0        5.786008   -0.299426   -1.242391
     14          1           0        3.177138    0.576444   -0.936444
     15          1           0        4.058879    0.913109    0.550267
     16          1           0        4.170968   -1.716850   -1.006872
     17          1           0        5.052220   -1.381353    0.479208
     18          1           0        6.287824    0.486986   -0.669384
     19          1           0        5.401565    0.149583   -2.163908
     20          1           0        6.534473   -1.049279   -1.516947
     21          6           0       -2.994894    0.897961   -0.089102
     22          6           0       -2.074452    1.844915   -0.859849
     23          6           0       -2.049792    3.255411   -0.270197
     24          1           0       -4.012638    1.311584   -0.081491
     25          1           0       -2.668104    0.852558    0.959011
     26          1           0       -2.402039    1.887446   -1.906507
     27          1           0       -1.058820    1.428895   -0.865791
     28          1           0       -1.701919    3.233066    0.767631
     29          1           0       -3.052771    3.694223   -0.278999
     30          1           0       -1.385606    3.915729   -0.836497
     31          6           0       -3.030184   -0.515921   -0.666526
     32          6           0       -3.950626   -1.462875    0.104219
     33          6           0       -3.975285   -2.873370   -0.485432
     34          1           0       -3.356974   -0.470518   -1.714640
     35          1           0       -2.012439   -0.929544   -0.674138
     36          1           0       -4.966257   -1.046855    0.110162
     37          1           0       -3.623038   -1.505406    1.150879
     38          1           0       -2.972307   -3.312183   -0.476630
     39          1           0       -4.323158   -2.851027   -1.523260
     40          1           0       -4.639472   -3.533688    0.080868
 ---------------------------------------------------------------------

 SCF Done:  E(RHF) =  -470.732609674     A.U. after   11 cycles
 E2 =    -0.1584484103D+01 EUMP2 =    -0.47231709377681D+03

 The electronic state is 1-A.
 Alpha  occ. eigenvalues --  -11.21667 -11.21632 -11.21579 -11.21561 -11.21459
 Alpha  occ. eigenvalues --  -11.21396 -11.21370 -11.21288 -11.21171 -11.21093
 Alpha  occ. eigenvalues --  -11.21066 -11.21065  -1.08504  -1.08387  -1.03612
 Alpha  occ. eigenvalues --   -1.03492  -0.96053  -0.95951  -0.87066  -0.86974
 Alpha  occ. eigenvalues --   -0.79713  -0.79527  -0.78317  -0.78198  -0.65359
 Alpha  occ. eigenvalues --   -0.64872  -0.61153  -0.60785  -0.59376  -0.59324
 Alpha  occ. eigenvalues --   -0.57659  -0.57548  -0.55436  -0.55148  -0.52756
 Alpha  occ. eigenvalues --   -0.52654  -0.52471  -0.52382  -0.50006  -0.49878
 Alpha  occ. eigenvalues --   -0.48037  -0.47901  -0.46930  -0.46396  -0.45953
 Alpha  occ. eigenvalues --   -0.45778  -0.45714  -0.45453  -0.43801  -0.43757
 Alpha virt. eigenvalues --    0.19449   0.23073   0.23137   0.25004   0.25524
 Alpha virt. eigenvalues --    0.26179   0.27064   0.27774   0.28210   0.29725
 Alpha virt. eigenvalues --    0.30381   0.30837   0.31779   0.32008   0.32322

 Mulliken charges:
               1
     1  C   -0.298003
     2  C   -0.306454
     3  C   -0.480549
     4  H    0.149237
     5  H    0.149821
     6  H    0.157994
     7  H    0.152661
     8  H    0.155818
     9  H    0.157428
    10  H    0.162385
    11  C   -0.298409
    12  C   -0.299711
    13  C   -0.475763
    14  H    0.149630
    15  H    0.149885
    16  H    0.152030
    17  H    0.151998
    18  H    0.155239
    19  H    0.155302
    20  H    0.160378
    21  C   -0.301049
    22  C   -0.305875
    23  C   -0.476055
    24  H    0.149211
    25  H    0.154381
    26  H    0.151820
    27  H    0.157303
    28  H    0.155189
    29  H    0.155348
    30  H    0.160115
    31  C   -0.299686
    32  C   -0.300474
    33  C   -0.475533
    34  H    0.149422
    35  H    0.149977
    36  H    0.152010
    37  H    0.152934
    38  H    0.154605
    39  H    0.155097
    40  H    0.160341
 Sum of Mulliken charges =  -0.00000

 Dipole moment (field-independent basis, Debye):
    X=              0.0276    Y=              0.0026    Z=              0.0223  Tot=              0.0356
 Quadrupole moment (field-independent basis, Debye-Ang):
   XX=            -84.7151   YY=            -85.9462   ZZ=            -84.1087
   XY=             -0.4852   XZ=              1.3647   YZ=             -0.1338

 Normal termination of Gaussian 16 at Thu May  6 00:40:40 2021.
