 Gaussian 16, Revision A.03,
 Gaussian 16:  EM64L-G16RevA.03 25-Dec-2016

 -------------
 #p 6-31g* mp2
 -------------

 ------------------------------------------------------
 Input file generated by CHIRIPA (05-May-2021 14:55:20)
 ------------------------------------------------------
 Symbolic Z-matrix:
 Charge =  0 Multiplicity = 1

                         Standard orientation:
 ---------------------------------------------------------------------
 Center     Atomic      Atomic             Coordinates (Angstroms)
 Number     Number       Type             X           Y           Z
 ---------------------------------------------------------------------
      1          6           0       -0.436394    2.737941   -0.322078
      2          6           0       -0.068039    1.867817    0.709290
      3          6           0       -0.850240    0.747893    1.006746
      4          6           0       -1.999550    0.527422    0.249271
      5          6           0       -2.392987    1.375862   -0.784484
      6          6           0       -1.595649    2.489624   -1.064364
      7          1           0        0.177118    3.605532   -0.546323
      8          1           0        0.831728    2.058172    1.287416
      9          1           0       -0.588397    0.057960    1.799746
     10          1           0       -3.295457    1.159858   -1.343327
     11          1           0       -1.884163    3.163664   -1.865910
     12          7           0       -2.835643   -0.654929    0.554871
     13          8           0       -3.843511   -0.827004   -0.127207
     14          8           0       -2.467274   -1.387195    1.470693
     15          6           0        2.935913   -0.711576    0.227499
     16          6           0        3.850482    0.374320   -0.340281
     17          6           0        4.951528    0.789790    0.635874
     18          1           0        2.483116   -0.349641    1.160732
     19          1           0        3.541494   -1.588977    0.493647
     20          1           0        3.243170    1.248895   -0.606562
     21          1           0        4.301006    0.009830   -1.272370
     22          1           0        5.581744   -0.067607    0.893360
     23          1           0        4.517898    1.178499    1.562951
     24          1           0        5.593602    1.566952    0.209705
     25          6           0        1.830171   -1.137482   -0.736694
     26          6           0        0.915602   -2.223378   -0.168914
     27          6           0       -0.185444   -2.638848   -1.145068
     28          1           0        1.224591   -0.260081   -1.002841
     29          1           0        2.282968   -1.499418   -1.669926
     30          1           0        0.465078   -1.858888    0.763175
     31          1           0        1.522914   -3.097953    0.097368
     32          1           0        0.248186   -3.027557   -2.072145
     33          1           0       -0.815660   -1.781451   -1.402555
     34          1           0       -0.827518   -3.416010   -0.718900
 ---------------------------------------------------------------------

 SCF Done:  E(RHF) =  -669.534030050     A.U. after   15 cycles
 E2 =    -0.2097454984D+01 EUMP2 =    -0.67163148503402D+03

 The electronic state is 1-A.
 Alpha  occ. eigenvalues --  -20.60920 -20.60902 -15.85936 -11.31313 -11.27890
 Alpha  occ. eigenvalues --  -11.27872 -11.27635 -11.26900 -11.26889 -11.22088
 Alpha  occ. eigenvalues --  -11.21744 -11.21593 -11.21372 -11.21303 -11.20676
 Alpha  occ. eigenvalues --   -1.59967  -1.39523  -1.19513  -1.08896  -1.08616
 Alpha  occ. eigenvalues --   -1.04912  -1.03644  -0.96091  -0.95726  -0.87113
 Alpha  occ. eigenvalues --   -0.86302  -0.82555  -0.79757  -0.78391  -0.77592
 Alpha  occ. eigenvalues --   -0.72167  -0.71326  -0.70614  -0.65340  -0.65149
 Alpha  occ. eigenvalues --   -0.64920  -0.62237  -0.61062  -0.59479  -0.57664
 Alpha  occ. eigenvalues --   -0.55462  -0.55364  -0.53222  -0.53011  -0.52731
 Alpha  occ. eigenvalues --   -0.52502  -0.50070  -0.48946  -0.48920  -0.48036
 Alpha  occ. eigenvalues --   -0.46843  -0.45914  -0.45791  -0.44852  -0.43872
 Alpha  occ. eigenvalues --   -0.37458  -0.36429
 Alpha virt. eigenvalues --    0.04898   0.11007   0.16306   0.19572   0.23188
 Alpha virt. eigenvalues --    0.23862   0.25149   0.26516   0.27707   0.28249
 Alpha virt. eigenvalues --    0.29326   0.30382   0.31326   0.31723   0.32182

 Mulliken charges:
               1
     1  C   -0.171684
     2  C   -0.218939
     3  C   -0.170171
     4  C    0.157597
     5  C   -0.172263
     6  C   -0.217993
     7  H    0.226665
     8  H    0.225662
     9  H    0.276979
    10  H    0.276486
    11  H    0.224305
    12  N    0.492615
    13  O   -0.459044
    14  O   -0.460000
    15  C   -0.296243
    16  C   -0.299992
    17  C   -0.475172
    18  H    0.138349
    19  H    0.152959
    20  H    0.145050
    21  H    0.155207
    22  H    0.158655
    23  H    0.150273
    24  H    0.160390
    25  C   -0.303828
    26  C   -0.304268
    27  C   -0.477277
    28  H    0.154487
    29  H    0.149419
    30  H    0.154344
    31  H    0.152660
    32  H    0.152874
    33  H    0.148198
    34  H    0.173701
 Sum of Mulliken charges =  -0.00000

 Dipole moment (field-independent basis, Debye):
    X=              2.7912    Y=              4.0916    Z=             -1.0895  Tot=              5.0714
 Quadrupole moment (field-independent basis, Debye-Ang):
   XX=           -105.2899   YY=            -89.8729   ZZ=            -93.3395
   XY=             -8.5822   XZ=              4.7381   YZ=             -0.6975

 Normal termination of Gaussian 16 at Thu May  6 07:44:52 2021.
