 Gaussian 16, Revision A.03,
 Gaussian 16:  EM64L-G16RevA.03 25-Dec-2016

 -------------
 #p 6-31g* mp2
 -------------

 ------------------------------------------------------
 Input file generated by CHIRIPA (05-May-2021 14:55:18)
 ------------------------------------------------------
 Symbolic Z-matrix:
 Charge =  0 Multiplicity = 1

                         Standard orientation:
 ---------------------------------------------------------------------
 Center     Atomic      Atomic             Coordinates (Angstroms)
 Number     Number       Type             X           Y           Z
 ---------------------------------------------------------------------
      1          6           0        2.395822    1.807763    1.694776
      2          6           0        3.594197    1.087512    1.654066
      3          6           0        3.758574    0.033195    0.750770
      4          6           0        2.699168   -0.275209   -0.101190
      5          6           0        1.493077    0.423621   -0.084700
      6          6           0        1.350929    1.474107    0.826794
      7          1           0        2.276764    2.625294    2.399662
      8          1           0        4.407372    1.344412    2.326966
      9          1           0        4.675621   -0.540965    0.698015
     10          1           0        0.700350    0.144116   -0.767985
     11          1           0        0.419135    2.031727    0.856184
     12          7           0        2.861420   -1.389340   -1.061808
     13          8           0        1.912981   -1.641276   -1.801828
     14          8           0        3.933960   -1.989563   -1.056532
     15          6           0       -3.321339   -0.421677    0.458977
     16          6           0       -4.428248   -1.476504    0.467796
     17          6           0       -4.215409   -2.547824    1.537734
     18          1           0       -2.353687   -0.916136    0.297401
     19          1           0       -3.268562    0.052660    1.448731
     20          1           0       -4.479844   -1.947745   -0.522095
     21          1           0       -5.393399   -0.979455    0.629179
     22          1           0       -4.185418   -2.096129    2.534566
     23          1           0       -3.266672   -3.069921    1.376751
     24          1           0       -5.018175   -3.291662    1.526337
     25          6           0       -3.520074    0.656140   -0.605233
     26          6           0       -2.413164    1.710966   -0.614053
     27          6           0       -2.626004    2.782287   -1.683990
     28          1           0       -3.572850    0.181803   -1.594987
     29          1           0       -4.487725    1.150599   -0.443657
     30          1           0       -1.448013    1.213918   -0.775435
     31          1           0       -2.361569    2.182208    0.375839
     32          1           0       -3.574740    3.304384   -1.523007
     33          1           0       -2.655994    2.330592   -2.680822
     34          1           0       -1.823237    3.526125   -1.672593
 ---------------------------------------------------------------------

 SCF Done:  E(RHF) =  -669.535278369     A.U. after   15 cycles
 E2 =    -0.2092150084D+01 EUMP2 =    -0.67162742845208D+03

 The electronic state is 1-A.
 Alpha  occ. eigenvalues --  -20.60748 -20.60742 -15.85797 -11.31133 -11.27695
 Alpha  occ. eigenvalues --  -11.27675 -11.27423 -11.26714 -11.26642 -11.22543
 Alpha  occ. eigenvalues --  -11.21922 -11.21834 -11.21761 -11.21738 -11.21193
 Alpha  occ. eigenvalues --   -1.59822  -1.39376  -1.19297  -1.08943  -1.08697
 Alpha  occ. eigenvalues --   -1.04700  -1.04018  -0.96420  -0.95542  -0.87443
 Alpha  occ. eigenvalues --   -0.86094  -0.82386  -0.80160  -0.78744  -0.77405
 Alpha  occ. eigenvalues --   -0.72018  -0.71143  -0.70424  -0.65587  -0.64945
 Alpha  occ. eigenvalues --   -0.64692  -0.62130  -0.61361  -0.59808  -0.58043
 Alpha  occ. eigenvalues --   -0.55679  -0.55203  -0.53143  -0.53025  -0.52843
 Alpha  occ. eigenvalues --   -0.52784  -0.50360  -0.48781  -0.48774  -0.48413
 Alpha  occ. eigenvalues --   -0.47179  -0.46257  -0.46151  -0.44788  -0.44260
 Alpha  occ. eigenvalues --   -0.37279  -0.36292
 Alpha virt. eigenvalues --    0.05097   0.11349   0.16594   0.19737   0.22734
 Alpha virt. eigenvalues --    0.23865   0.24592   0.25728   0.27260   0.28276
 Alpha virt. eigenvalues --    0.29734   0.29914   0.31180   0.31541   0.32264

 Mulliken charges:
               1
     1  C   -0.171531
     2  C   -0.218472
     3  C   -0.171112
     4  C    0.161170
     5  C   -0.180648
     6  C   -0.222374
     7  H    0.225437
     8  H    0.223164
     9  H    0.275280
    10  H    0.279968
    11  H    0.230461
    12  N    0.488673
    13  O   -0.461403
    14  O   -0.460432
    15  C   -0.300057
    16  C   -0.300191
    17  C   -0.476552
    18  H    0.151271
    19  H    0.147449
    20  H    0.155229
    21  H    0.151860
    22  H    0.153928
    23  H    0.158403
    24  H    0.161727
    25  C   -0.297847
    26  C   -0.308779
    27  C   -0.475609
    28  H    0.155005
    29  H    0.151948
    30  H    0.147915
    31  H    0.148065
    32  H    0.158389
    33  H    0.161049
    34  H    0.158615
 Sum of Mulliken charges =  -0.00000

 Dipole moment (field-independent basis, Debye):
    X=             -0.7684    Y=              3.8841    Z=              3.3272  Tot=              5.1718
 Quadrupole moment (field-independent basis, Debye-Ang):
   XX=            -92.7263   YY=            -97.7573   ZZ=            -95.4865
   XY=              9.7800   XZ=             11.0817   YZ=             -0.6925

 Normal termination of Gaussian 16 at Thu May  6 07:37:45 2021.
