 Gaussian 16, Revision A.03,
 Gaussian 16:  EM64L-G16RevA.03 25-Dec-2016

 -------------
 #p 6-31g* mp2
 -------------

 ------------------------------------------------------
 Input file generated by CHIRIPA (05-May-2021 14:55:20)
 ------------------------------------------------------
 Symbolic Z-matrix:
 Charge =  0 Multiplicity = 1

                         Standard orientation:
 ---------------------------------------------------------------------
 Center     Atomic      Atomic             Coordinates (Angstroms)
 Number     Number       Type             X           Y           Z
 ---------------------------------------------------------------------
      1          6           0       -4.915941    0.059488   -1.230335
      2          6           0       -4.926431    0.555407    0.077517
      3          6           0       -3.769809    0.514192    0.861783
      4          6           0       -2.615068   -0.032268    0.303892
      5          6           0       -2.572928   -0.534359   -0.995885
      6          6           0       -3.741294   -0.482856   -1.761924
      7          1           0       -5.818994    0.095501   -1.832493
      8          1           0       -5.837236    0.977164    0.492969
      9          1           0       -3.749969    0.891062    1.877162
     10          1           0       -1.649800   -0.948833   -1.382491
     11          1           0       -3.730216   -0.868732   -2.777317
     12          7           0       -1.384387   -0.081347    1.124511
     13          8           0       -0.379885   -0.567806    0.609759
     14          8           0       -1.447585    0.367574    2.266927
     15          6           0        3.264829    0.709187   -0.295898
     16          6           0        4.243947    1.883443   -0.316802
     17          6           0        3.544521    3.233543   -0.477503
     18          1           0        2.678989    0.711929   -1.225268
     19          1           0        2.548911    0.852344    0.525298
     20          1           0        4.958657    1.737418   -1.136854
     21          1           0        4.827657    1.877793    0.612642
     22          1           0        2.844576    3.405305    0.346618
     23          1           0        2.976320    3.264133   -1.412818
     24          1           0        4.263098    4.058984   -0.489928
     25          6           0        3.948992   -0.647288   -0.135829
     26          6           0        2.969873   -1.821542   -0.114925
     27          6           0        3.669300   -3.171643    0.045776
     28          1           0        4.664909   -0.790444   -0.957026
     29          1           0        4.534831   -0.650029    0.793542
     30          1           0        2.386163   -1.815893   -1.044370
     31          1           0        2.255163   -1.675518    0.705125
     32          1           0        4.237501   -3.202234    0.981090
     33          1           0        4.369244   -3.343406   -0.778346
     34          1           0        2.950723   -3.997084    0.058201
 ---------------------------------------------------------------------

 SCF Done:  E(RHF) =  -669.536095083     A.U. after   15 cycles
 E2 =    -0.2091411513D+01 EUMP2 =    -0.67162750659633D+03

 The electronic state is 1-A.
 Alpha  occ. eigenvalues --  -20.60976 -20.60955 -15.85992 -11.31303 -11.27865
 Alpha  occ. eigenvalues --  -11.27860 -11.27602 -11.26870 -11.26860 -11.20684
 Alpha  occ. eigenvalues --  -11.20319 -11.20239 -11.20140 -11.20116 -11.20032
 Alpha  occ. eigenvalues --   -1.60028  -1.39583  -1.19470  -1.08878  -1.07274
 Alpha  occ. eigenvalues --   -1.04865  -1.02465  -0.95722  -0.94956  -0.86266
 Alpha  occ. eigenvalues --   -0.85978  -0.82559  -0.78508  -0.77621  -0.77023
 Alpha  occ. eigenvalues --   -0.72208  -0.71337  -0.70579  -0.65127  -0.64869
 Alpha  occ. eigenvalues --   -0.63909  -0.62212  -0.59869  -0.58323  -0.56547
 Alpha  occ. eigenvalues --   -0.55371  -0.54259  -0.53197  -0.52957  -0.51687
 Alpha  occ. eigenvalues --   -0.51376  -0.49028  -0.48975  -0.48896  -0.46829
 Alpha  occ. eigenvalues --   -0.45529  -0.44995  -0.44614  -0.44393  -0.42698
 Alpha  occ. eigenvalues --   -0.37449  -0.36465
 Alpha virt. eigenvalues --    0.04909   0.11190   0.16404   0.21284   0.23943
 Alpha virt. eigenvalues --    0.25248   0.27094   0.27683   0.28042   0.28800
 Alpha virt. eigenvalues --    0.29111   0.30940   0.32133   0.32498   0.32844

 Mulliken charges:
               1
     1  C   -0.170533
     2  C   -0.218614
     3  C   -0.170460
     4  C    0.157661
     5  C   -0.170766
     6  C   -0.218566
     7  H    0.226033
     8  H    0.223826
     9  H    0.275804
    10  H    0.276058
    11  H    0.223868
    12  N    0.492377
    13  O   -0.462875
    14  O   -0.459778
    15  C   -0.299222
    16  C   -0.298948
    17  C   -0.474947
    18  H    0.144280
    19  H    0.165798
    20  H    0.147592
    21  H    0.150683
    22  H    0.157309
    23  H    0.151676
    24  H    0.156567
    25  C   -0.298176
    26  C   -0.303170
    27  C   -0.475273
    28  H    0.142594
    29  H    0.147103
    30  H    0.144890
    31  H    0.178023
    32  H    0.153091
    33  H    0.149243
    34  H    0.156851
 Sum of Mulliken charges =  -0.00000

 Dipole moment (field-independent basis, Debye):
    X=             -4.6936    Y=              0.1846    Z=             -2.7254  Tot=              5.4307
 Quadrupole moment (field-independent basis, Debye-Ang):
   XX=            -72.8424   YY=            -96.4881   ZZ=            -92.9544
   XY=             -1.0752   XZ=              4.7377   YZ=              2.2741

 Normal termination of Gaussian 16 at Thu May  6 17:27:49 2021.
