 Gaussian 16, Revision A.03,
 Gaussian 16:  EM64L-G16RevA.03 25-Dec-2016

 -------------
 #p 6-31g* mp2
 -------------

 ------------------------------------------------------
 Input file generated by CHIRIPA (05-May-2021 14:51:11)
 ------------------------------------------------------
 Symbolic Z-matrix:
 Charge =  0 Multiplicity = 1

                         Standard orientation:
 ---------------------------------------------------------------------
 Center     Atomic      Atomic             Coordinates (Angstroms)
 Number     Number       Type             X           Y           Z
 ---------------------------------------------------------------------
      1          6           0        3.557018    0.642024    0.190260
      2          6           0        3.502129    1.916042   -0.653451
      3          6           0        3.826264    3.173766    0.153309
      4          1           0        2.852091    0.733894    1.027865
      5          1           0        4.558071    0.546771    0.633223
      6          1           0        2.501903    2.008140   -1.095810
      7          1           0        4.207130    1.821050   -1.489255
      8          1           0        4.831422    3.107949    0.582176
      9          1           0        3.116506    3.296101    0.977857
     10          1           0        3.781250    4.072775   -0.469279
     11          6           0        3.235293   -0.623745   -0.602236
     12          6           0        3.290182   -1.897764    0.241475
     13          6           0        2.966047   -3.155487   -0.565286
     14          1           0        2.234240   -0.528493   -1.045200
     15          1           0        3.940220   -0.715615   -1.439842
     16          1           0        2.585181   -1.802772    1.077278
     17          1           0        4.290408   -1.989861    0.683833
     18          1           0        3.675805   -3.277823   -1.389834
     19          1           0        1.960889   -3.089670   -0.994153
     20          1           0        3.011061   -4.054496    0.057303
     21          6           0       -2.879100   -0.143915    0.751809
     22          6           0       -1.444897   -0.208978    0.225678
     23          6           0       -0.421984   -0.479242    1.329490
     24          1           0       -2.946956    0.641573    1.516890
     25          1           0       -3.121449   -1.090886    1.253716
     26          1           0       -1.205794    0.737312   -0.276297
     27          1           0       -1.380491   -0.994275   -0.538375
     28          1           0       -0.632689   -1.432499    1.824976
     29          1           0       -0.457000    0.308928    2.088544
     30          1           0        0.596583   -0.521733    0.931273
     31          6           0       -3.913211    0.125636   -0.339833
     32          6           0       -5.347414    0.190700    0.186299
     33          6           0       -6.370327    0.460964   -0.917513
     34          1           0       -3.670862    1.072606   -0.841739
     35          1           0       -3.845355   -0.659853   -1.104913
     36          1           0       -5.411820    0.975996    0.950353
     37          1           0       -5.586517   -0.755592    0.688273
     38          1           0       -6.335311   -0.327206   -1.676567
     39          1           0       -6.159621    1.414220   -1.412998
     40          1           0       -7.388895    0.503454   -0.519297
 ---------------------------------------------------------------------

 SCF Done:  E(RHF) =  -470.732712555     A.U. after   11 cycles
 E2 =    -0.1583761053D+01 EUMP2 =    -0.47231647360786D+03

 The electronic state is 1-A.
 Alpha  occ. eigenvalues --  -11.21678 -11.21628 -11.21598 -11.21565 -11.21448
 Alpha  occ. eigenvalues --  -11.21401 -11.21386 -11.21339 -11.21106 -11.21091
 Alpha  occ. eigenvalues --  -11.21067 -11.21059  -1.08491  -1.08424  -1.03591
 Alpha  occ. eigenvalues --   -1.03511  -0.96044  -0.95962  -0.87070  -0.86973
 Alpha  occ. eigenvalues --   -0.79659  -0.79575  -0.78300  -0.78228  -0.65181
 Alpha  occ. eigenvalues --   -0.65105  -0.61055  -0.60905  -0.59379  -0.59298
 Alpha  occ. eigenvalues --   -0.57624  -0.57583  -0.55358  -0.55220  -0.52773
 Alpha  occ. eigenvalues --   -0.52618  -0.52443  -0.52391  -0.49994  -0.49883
 Alpha  occ. eigenvalues --   -0.47976  -0.47880  -0.46723  -0.46576  -0.45832
 Alpha  occ. eigenvalues --   -0.45772  -0.45752  -0.45723  -0.43800  -0.43743
 Alpha virt. eigenvalues --    0.20411   0.23114   0.23999   0.25052   0.26323
 Alpha virt. eigenvalues --    0.26464   0.26607   0.27683   0.27945   0.29408
 Alpha virt. eigenvalues --    0.30702   0.31475   0.31580   0.31732   0.32117

 Mulliken charges:
               1
     1  C   -0.301049
     2  C   -0.299409
     3  C   -0.475769
     4  H    0.151962
     5  H    0.149882
     6  H    0.151832
     7  H    0.151962
     8  H    0.155216
     9  H    0.155297
    10  H    0.160147
    11  C   -0.302423
    12  C   -0.303610
    13  C   -0.475452
    14  H    0.150314
    15  H    0.151144
    16  H    0.155427
    17  H    0.152359
    18  H    0.155147
    19  H    0.155002
    20  H    0.160258
    21  C   -0.298636
    22  C   -0.299110
    23  C   -0.487634
    24  H    0.149828
    25  H    0.149800
    26  H    0.151588
    27  H    0.151695
    28  H    0.155429
    29  H    0.155002
    30  H    0.173399
    31  C   -0.298302
    32  C   -0.299680
    33  C   -0.475735
    34  H    0.149560
    35  H    0.149733
    36  H    0.151994
    37  H    0.152012
    38  H    0.155242
    39  H    0.155224
    40  H    0.160356
 Sum of Mulliken charges =  -0.00000

 Dipole moment (field-independent basis, Debye):
    X=             -0.0054    Y=             -0.0024    Z=              0.0096  Tot=              0.0112
 Quadrupole moment (field-independent basis, Debye-Ang):
   XX=            -84.5374   YY=            -84.7938   ZZ=            -85.3971
   XY=             -0.0496   XZ=             -0.8687   YZ=             -0.1416

 Normal termination of Gaussian 16 at Thu May  6 03:51:36 2021.
