 Gaussian 16, Revision A.03,
 Gaussian 16:  EM64L-G16RevA.03 25-Dec-2016

 -------------
 #p 6-31g* mp2
 -------------

 ------------------------------------------------------
 Input file generated by CHIRIPA (05-May-2021 14:57:22)
 ------------------------------------------------------
 Symbolic Z-matrix:
 Charge =  0 Multiplicity = 1

                         Standard orientation:
 ---------------------------------------------------------------------
 Center     Atomic      Atomic             Coordinates (Angstroms)
 Number     Number       Type             X           Y           Z
 ---------------------------------------------------------------------
      1          6           0        4.193895    0.243920   -2.011061
      2          6           0        3.217396   -0.752013   -1.905747
      3          6           0        2.481813   -0.903274   -0.726516
      4          6           0        2.749975   -0.037328    0.332501
      5          6           0        3.716353    0.964617    0.258274
      6          6           0        4.439823    1.097551   -0.930620
      7          1           0        4.760608    0.354305   -2.930869
      8          1           0        3.024265   -1.416383   -2.743218
      9          1           0        1.720078   -1.665756   -0.617896
     10          1           0        3.886327    1.611835    1.110117
     11          1           0        5.197580    1.871899   -1.009569
     12          7           0        1.977659   -0.187761    1.586015
     13          8           0        2.232947    0.587852    2.504650
     14          8           0        1.131652   -1.078435    1.626149
     15          6           0       -3.362629    2.482687   -0.295308
     16          6           0       -3.766133    1.618248   -1.318271
     17          6           0       -3.502532    0.247799   -1.235010
     18          6           0       -2.830339   -0.226269   -0.109530
     19          6           0       -2.415539    0.609594    0.926116
     20          6           0       -2.689806    1.976492    0.821651
     21          1           0       -3.571543    3.545905   -0.368223
     22          1           0       -4.288826    2.008566   -2.186883
     23          1           0       -3.803634   -0.443830   -2.012445
     24          1           0       -1.896287    0.191011    1.779688
     25          1           0       -2.375258    2.645478    1.617618
     26          7           0       -2.545630   -1.675223   -0.010162
     27          8           0       -1.951913   -2.067978    0.991776
     28          8           0       -2.921584   -2.390723   -0.936097
 ---------------------------------------------------------------------

 SCF Done:  E(RHF) =  -868.337780646     A.U. after   16 cycles
 E2 =    -0.2600256672D+01 EUMP2 =    -0.87093803731746D+03

 The electronic state is 1-A.
 Alpha  occ. eigenvalues --  -20.60661 -20.60568 -20.60142 -20.60005 -15.85637
 Alpha  occ. eigenvalues --  -15.85111 -11.31035 -11.30579 -11.27647 -11.27545
 Alpha  occ. eigenvalues --  -11.27376 -11.27248 -11.27032 -11.26990 -11.26663
 Alpha  occ. eigenvalues --  -11.26597 -11.26283 -11.26160  -1.59703  -1.59159
 Alpha  occ. eigenvalues --   -1.39243  -1.38693  -1.19218  -1.18782  -1.08616
 Alpha  occ. eigenvalues --   -1.08173  -1.04616  -1.04187  -0.95439  -0.94976
 Alpha  occ. eigenvalues --   -0.86014  -0.85580  -0.82260  -0.81786  -0.77304
 Alpha  occ. eigenvalues --   -0.76801  -0.71872  -0.71300  -0.71038  -0.70477
 Alpha  occ. eigenvalues --   -0.70316  -0.69881  -0.64862  -0.64617  -0.64423
 Alpha  occ. eigenvalues --   -0.64188  -0.61950  -0.61501  -0.55130  -0.54716
 Alpha  occ. eigenvalues --   -0.52959  -0.52702  -0.52543  -0.52266  -0.48658
 Alpha  occ. eigenvalues --   -0.48611  -0.48129  -0.48061  -0.44690  -0.43995
 Alpha  occ. eigenvalues --   -0.37215  -0.36806  -0.36225  -0.35805
 Alpha virt. eigenvalues --    0.05177   0.05712   0.11424   0.11842   0.16660
 Alpha virt. eigenvalues --    0.17162   0.21571   0.21999   0.27501   0.27911
 Alpha virt. eigenvalues --    0.28452   0.28964   0.31089   0.31521   0.32727

 Mulliken charges:
               1
     1  C   -0.171098
     2  C   -0.219117
     3  C   -0.172988
     4  C    0.157093
     5  C   -0.171948
     6  C   -0.218957
     7  H    0.224928
     8  H    0.225197
     9  H    0.283510
    10  H    0.273775
    11  H    0.222080
    12  N    0.485889
    13  O   -0.466995
    14  O   -0.450401
    15  C   -0.171593
    16  C   -0.219617
    17  C   -0.172862
    18  C    0.155046
    19  C   -0.173417
    20  C   -0.220841
    21  H    0.223036
    22  H    0.220135
    23  H    0.272539
    24  H    0.291467
    25  H    0.225321
    26  N    0.484930
    27  O   -0.445429
    28  O   -0.469683
 Sum of Mulliken charges =  -0.00000

 Dipole moment (field-independent basis, Debye):
    X=              1.8214    Y=              5.4276    Z=             -4.5498  Tot=              7.3128
 Quadrupole moment (field-independent basis, Debye-Ang):
   XX=            -84.2947   YY=           -105.2508   ZZ=           -103.7485
   XY=            -10.5568   XZ=             -7.6633   YZ=              2.1653

 Normal termination of Gaussian 16 at Fri May  7 06:23:26 2021.
