 Gaussian 16, Revision A.03,
 Gaussian 16:  EM64L-G16RevA.03 25-Dec-2016

 -------------
 #p 6-31g* mp2
 -------------

 ------------------------------------------------------
 Input file generated by CHIRIPA (05-May-2021 14:57:23)
 ------------------------------------------------------
 Symbolic Z-matrix:
 Charge =  0 Multiplicity = 1

                         Standard orientation:
 ---------------------------------------------------------------------
 Center     Atomic      Atomic             Coordinates (Angstroms)
 Number     Number       Type             X           Y           Z
 ---------------------------------------------------------------------
      1          6           0        2.338475    2.604883    0.582514
      2          6           0        1.837829    1.537410    1.335093
      3          6           0        2.103499    0.217346    0.959061
      4          6           0        2.876793    0.000151   -0.180295
      5          6           0        3.389781    1.042491   -0.950790
      6          6           0        3.111491    2.354458   -0.556018
      7          1           0        2.127195    3.627195    0.881903
      8          1           0        1.237206    1.728905    2.219755
      9          1           0        1.728428   -0.627772    1.523434
     10          1           0        3.985471    0.820111   -1.827784
     11          1           0        3.501611    3.181510   -1.142394
     12          7           0        3.164727   -1.393055   -0.588302
     13          8           0        3.848568   -1.557820   -1.596196
     14          8           0        2.701115   -2.293905    0.107521
     15          6           0       -1.244067   -1.607375    1.511276
     16          6           0       -1.971147   -2.209565    0.479170
     17          6           0       -2.852369   -1.456009   -0.301949
     18          6           0       -2.982596   -0.096587   -0.022125
     19          6           0       -2.272148    0.532285    0.999184
     20          6           0       -1.396619   -0.240782    1.767537
     21          1           0       -0.561723   -2.200334    2.113110
     22          1           0       -1.854686   -3.270682    0.277888
     23          1           0       -3.427566   -1.896710   -1.107149
     24          1           0       -2.409452    1.592152    1.175951
     25          1           0       -0.833249    0.229560    2.568436
     26          7           0       -3.912494    0.711497   -0.842303
     27          8           0       -4.009318    1.907381   -0.575616
     28          8           0       -4.526915    0.133687   -1.736317
 ---------------------------------------------------------------------

 SCF Done:  E(RHF) =  -868.336449235     A.U. after   16 cycles
 E2 =    -0.2602122525D+01 EUMP2 =    -0.87093857176058D+03

 The electronic state is 1-A.
 Alpha  occ. eigenvalues --  -20.61334 -20.61296 -20.60969 -20.60950 -15.86372
 Alpha  occ. eigenvalues --  -15.86018 -11.31675 -11.31403 -11.28345 -11.28209
 Alpha  occ. eigenvalues --  -11.28056 -11.27982 -11.27908 -11.27703 -11.27348
 Alpha  occ. eigenvalues --  -11.27184 -11.27148 -11.26879  -1.60386  -1.60037
 Alpha  occ. eigenvalues --   -1.39946  -1.39590  -1.19862  -1.19581  -1.09255
 Alpha  occ. eigenvalues --   -1.08978  -1.05305  -1.04979  -0.96107  -0.95799
 Alpha  occ. eigenvalues --   -0.86680  -0.86415  -0.82973  -0.82630  -0.78060
 Alpha  occ. eigenvalues --   -0.77660  -0.72601  -0.72238  -0.71701  -0.71359
 Alpha  occ. eigenvalues --   -0.71013  -0.70645  -0.65557  -0.65397  -0.65218
 Alpha  occ. eigenvalues --   -0.65007  -0.62752  -0.62226  -0.55763  -0.55484
 Alpha  occ. eigenvalues --   -0.53729  -0.53481  -0.53124  -0.53031  -0.49360
 Alpha  occ. eigenvalues --   -0.49336  -0.48997  -0.48988  -0.45366  -0.44992
 Alpha  occ. eigenvalues --   -0.37841  -0.37711  -0.37022  -0.36186
 Alpha virt. eigenvalues --    0.04540   0.04826   0.10655   0.11115   0.15857
 Alpha virt. eigenvalues --    0.16486   0.18572   0.22402   0.24995   0.25959
 Alpha virt. eigenvalues --    0.28153   0.29224   0.30345   0.31607   0.33370

 Mulliken charges:
               1
     1  C   -0.169495
     2  C   -0.218768
     3  C   -0.161566
     4  C    0.156447
     5  C   -0.169347
     6  C   -0.218169
     7  H    0.228071
     8  H    0.214946
     9  H    0.266412
    10  H    0.277460
    11  H    0.226402
    12  N    0.489064
    13  O   -0.457071
    14  O   -0.466635
    15  C   -0.171681
    16  C   -0.216185
    17  C   -0.170355
    18  C    0.158564
    19  C   -0.169835
    20  C   -0.218798
    21  H    0.230461
    22  H    0.230318
    23  H    0.277633
    24  H    0.272206
    25  H    0.212438
    26  N    0.488190
    27  O   -0.462270
    28  O   -0.458436
 Sum of Mulliken charges =  -0.00000

 Dipole moment (field-independent basis, Debye):
    X=              2.2774    Y=              1.9683    Z=              4.0558  Tot=              5.0507
 Quadrupole moment (field-independent basis, Debye-Ang):
   XX=           -129.4300   YY=           -100.5386   ZZ=           -102.1974
   XY=             25.2588   XZ=             -6.2238   YZ=             -0.2801

 Normal termination of Gaussian 16 at Thu May  6 08:12:25 2021.
