 Gaussian 16, Revision A.03,
 Gaussian 16:  EM64L-G16RevA.03 25-Dec-2016

 -------------
 #p 6-31g* mp2
 -------------

 ------------------------------------------------------
 Input file generated by CHIRIPA (05-May-2021 14:55:19)
 ------------------------------------------------------
 Symbolic Z-matrix:
 Charge =  0 Multiplicity = 1

                         Standard orientation:
 ---------------------------------------------------------------------
 Center     Atomic      Atomic             Coordinates (Angstroms)
 Number     Number       Type             X           Y           Z
 ---------------------------------------------------------------------
      1          6           0       -1.258483    0.115796    2.048633
      2          6           0       -1.887877    1.210495    1.446953
      3          6           0       -2.845456    1.017438    0.446793
      4          6           0       -3.150823   -0.289795    0.071050
      5          6           0       -2.541137   -1.400902    0.651579
      6          6           0       -1.586543   -1.184117    1.649729
      7          1           0       -0.515772    0.274984    2.824801
      8          1           0       -1.635089    2.221143    1.754740
      9          1           0       -3.348061    1.846889   -0.035719
     10          1           0       -2.814070   -2.396576    0.323619
     11          1           0       -1.099357   -2.036164    2.115251
     12          7           0       -4.162989   -0.506736   -0.986710
     13          8           0       -4.414337   -1.668364   -1.299891
     14          8           0       -4.685811    0.488962   -1.482574
     15          6           0        4.426067    0.002611   -0.647999
     16          6           0        5.172247   -0.972956    0.262754
     17          6           0        6.383201   -1.610139   -0.419437
     18          1           0        4.101670   -0.526843   -1.554304
     19          1           0        5.118996    0.789463   -0.976800
     20          1           0        4.477767   -1.756961    0.590851
     21          1           0        5.494739   -0.441163    1.167083
     22          1           0        7.097831   -0.841857   -0.731921
     23          1           0        6.075080   -2.165131   -1.311427
     24          1           0        6.901865   -2.303958    0.249490
     25          6           0        3.212987    0.647733    0.019821
     26          6           0        2.466807    1.623300   -0.890930
     27          6           0        1.255854    2.260484   -0.208740
     28          1           0        2.520059   -0.139119    0.348623
     29          1           0        3.537385    1.177187    0.926127
     30          1           0        2.144316    1.091507   -1.795260
     31          1           0        3.161287    2.407305   -1.219028
     32          1           0        1.563974    2.815475    0.683250
     33          1           0        0.541224    1.492201    0.103745
     34          1           0        0.737189    2.954302   -0.877667
 ---------------------------------------------------------------------

 SCF Done:  E(RHF) =  -669.534735574     A.U. after   15 cycles
 E2 =    -0.2092465740D+01 EUMP2 =    -0.67162720131463D+03

 The electronic state is 1-A.
 Alpha  occ. eigenvalues --  -20.60802 -20.60796 -15.85855 -11.31242 -11.27802
 Alpha  occ. eigenvalues --  -11.27778 -11.27528 -11.26837 -11.26790 -11.21994
 Alpha  occ. eigenvalues --  -11.21978 -11.21853 -11.21743 -11.21437 -11.21385
 Alpha  occ. eigenvalues --   -1.59876  -1.39429  -1.19420  -1.08850  -1.08797
 Alpha  occ. eigenvalues --   -1.04822  -1.03913  -0.96378  -0.95636  -0.87409
 Alpha  occ. eigenvalues --   -0.86207  -0.82462  -0.79993  -0.78660  -0.77506
 Alpha  occ. eigenvalues --   -0.72072  -0.71199  -0.70507  -0.65465  -0.65064
 Alpha  occ. eigenvalues --   -0.64812  -0.62158  -0.61320  -0.59741  -0.58001
 Alpha  occ. eigenvalues --   -0.55725  -0.55305  -0.53383  -0.53054  -0.52897
 Alpha  occ. eigenvalues --   -0.52615  -0.50280  -0.48833  -0.48826  -0.48299
 Alpha  occ. eigenvalues --   -0.47010  -0.46200  -0.46120  -0.44829  -0.44181
 Alpha  occ. eigenvalues --   -0.37340  -0.36368
 Alpha virt. eigenvalues --    0.05003   0.11190   0.16451   0.21145   0.22525
 Alpha virt. eigenvalues --    0.24005   0.26148   0.26726   0.27033   0.28055
 Alpha virt. eigenvalues --    0.28569   0.30568   0.31226   0.31623   0.31673

 Mulliken charges:
               1
     1  C   -0.172129
     2  C   -0.217650
     3  C   -0.170822
     4  C    0.158760
     5  C   -0.171436
     6  C   -0.218628
     7  H    0.227305
     8  H    0.226705
     9  H    0.276023
    10  H    0.275733
    11  H    0.223800
    12  N    0.488050
    13  O   -0.460356
    14  O   -0.460076
    15  C   -0.298546
    16  C   -0.299531
    17  C   -0.475910
    18  H    0.151577
    19  H    0.150853
    20  H    0.150019
    21  H    0.151135
    22  H    0.156109
    23  H    0.156341
    24  H    0.160523
    25  C   -0.298311
    26  C   -0.298564
    27  C   -0.486581
    28  H    0.146484
    29  H    0.147203
    30  H    0.155086
    31  H    0.152708
    32  H    0.148043
    33  H    0.165470
    34  H    0.160613
 Sum of Mulliken charges =  -0.00000

 Dipole moment (field-independent basis, Debye):
    X=              3.5414    Y=              0.7348    Z=              3.7015  Tot=              5.1753
 Quadrupole moment (field-independent basis, Debye-Ang):
   XX=           -118.2857   YY=            -90.1878   ZZ=            -94.8545
   XY=             -3.4385   XZ=            -11.1908   YZ=             -1.4387

 Normal termination of Gaussian 16 at Wed May  5 23:43:53 2021.
