 Gaussian 16, Revision A.03,
 Gaussian 16:  EM64L-G16RevA.03 25-Dec-2016

 -------------
 #p 6-31g* mp2
 -------------

 ------------------------------------------------------
 Input file generated by CHIRIPA (05-May-2021 14:55:21)
 ------------------------------------------------------
 Symbolic Z-matrix:
 Charge =  0 Multiplicity = 1

                         Standard orientation:
 ---------------------------------------------------------------------
 Center     Atomic      Atomic             Coordinates (Angstroms)
 Number     Number       Type             X           Y           Z
 ---------------------------------------------------------------------
      1          6           0       -4.010455   -1.616666   -1.302661
      2          6           0       -4.076677   -1.766108    0.086512
      3          6           0       -3.347205   -0.920140    0.927201
      4          6           0       -2.558140    0.069017    0.342192
      5          6           0       -2.471350    0.243051   -1.038195
      6          6           0       -3.209415   -0.614331   -1.859599
      7          1           0       -4.580463   -2.278268   -1.948238
      8          1           0       -4.697939   -2.543657    0.521823
      9          1           0       -3.380109   -1.013649    2.005900
     10          1           0       -1.843244    1.027403   -1.442784
     11          1           0       -3.156061   -0.495947   -2.938109
     12          7           0       -1.781332    0.970647    1.221984
     13          8           0       -1.093594    1.834283    0.681811
     14          8           0       -1.874918    0.796637    2.435079
     15          6           0        3.065232    0.525651   -0.766860
     16          6           0        2.436576    1.786483   -0.172655
     17          6           0        1.693756    2.623871   -1.214189
     18          1           0        3.757441    0.812458   -1.570311
     19          1           0        2.278503   -0.082532   -1.234371
     20          1           0        3.224058    2.391437    0.294806
     21          1           0        1.745927    1.496652    0.629602
     22          1           0        0.888444    2.041573   -1.673539
     23          1           0        2.374974    2.941441   -2.010238
     24          1           0        1.252176    3.520338   -0.767855
     25          6           0        3.811356   -0.321919    0.262048
     26          6           0        4.440011   -1.582751   -0.332157
     27          6           0        5.182831   -2.420140    0.709378
     28          1           0        4.598084    0.286265    0.729559
     29          1           0        3.119146   -0.608726    1.065499
     30          1           0        5.130660   -1.292920   -1.134414
     31          1           0        3.652530   -2.187705   -0.799618
     32          1           0        4.501614   -2.737710    1.505426
     33          1           0        5.988143   -1.837841    1.168727
     34          1           0        5.624411   -3.316607    0.263044
 ---------------------------------------------------------------------

 SCF Done:  E(RHF) =  -669.535889851     A.U. after   15 cycles
 E2 =    -0.2092038405D+01 EUMP2 =    -0.67162792825660D+03

 The electronic state is 1-A.
 Alpha  occ. eigenvalues --  -20.60986 -20.60973 -15.86002 -11.31317 -11.27877
 Alpha  occ. eigenvalues --  -11.27873 -11.27611 -11.26882 -11.26872 -11.21197
 Alpha  occ. eigenvalues --  -11.20798 -11.20730 -11.20672 -11.20422 -11.20048
 Alpha  occ. eigenvalues --   -1.60043  -1.39598  -1.19484  -1.08890  -1.07748
 Alpha  occ. eigenvalues --   -1.04877  -1.02790  -0.95742  -0.95268  -0.86310
 Alpha  occ. eigenvalues --   -0.86277  -0.82565  -0.78891  -0.77622  -0.77526
 Alpha  occ. eigenvalues --   -0.72237  -0.71360  -0.70591  -0.65145  -0.64880
 Alpha  occ. eigenvalues --   -0.64374  -0.62228  -0.60169  -0.58662  -0.56854
 Alpha  occ. eigenvalues --   -0.55382  -0.54581  -0.53209  -0.52969  -0.51955
 Alpha  occ. eigenvalues --   -0.51713  -0.49334  -0.48982  -0.48922  -0.47211
 Alpha  occ. eigenvalues --   -0.45941  -0.45231  -0.45071  -0.44685  -0.43060
 Alpha  occ. eigenvalues --   -0.37461  -0.36477
 Alpha virt. eigenvalues --    0.04867   0.11161   0.16351   0.20825   0.23389
 Alpha virt. eigenvalues --    0.24343   0.26398   0.27439   0.27786   0.28232
 Alpha virt. eigenvalues --    0.29222   0.30512   0.31483   0.32466   0.32627

 Mulliken charges:
               1
     1  C   -0.170371
     2  C   -0.218670
     3  C   -0.170510
     4  C    0.157003
     5  C   -0.173070
     6  C   -0.219334
     7  H    0.226144
     8  H    0.223907
     9  H    0.275837
    10  H    0.279806
    11  H    0.224312
    12  N    0.489615
    13  O   -0.460495
    14  O   -0.459054
    15  C   -0.297411
    16  C   -0.304525
    17  C   -0.467445
    18  H    0.145739
    19  H    0.143139
    20  H    0.148011
    21  H    0.171318
    22  H    0.145669
    23  H    0.145245
    24  H    0.168283
    25  C   -0.297968
    26  C   -0.298710
    27  C   -0.475300
    28  H    0.149562
    29  H    0.151239
    30  H    0.150565
    31  H    0.149016
    32  H    0.155147
    33  H    0.155361
    34  H    0.157946
 Sum of Mulliken charges =  -0.00000

 Dipole moment (field-independent basis, Debye):
    X=             -2.9854    Y=             -3.1033    Z=             -2.9256  Tot=              5.2060
 Quadrupole moment (field-independent basis, Debye-Ang):
   XX=            -80.9682   YY=            -94.8924   ZZ=            -94.4703
   XY=             10.1692   XZ=              5.3751   YZ=             -2.8325

 Normal termination of Gaussian 16 at Wed May  5 15:56:04 2021.
