 Gaussian 16, Revision A.03,
 Gaussian 16:  EM64L-G16RevA.03 25-Dec-2016

 -------------
 #p 6-31g* mp2
 -------------

 ------------------------------------------------------
 Input file generated by CHIRIPA (05-May-2021 14:53:16)
 ------------------------------------------------------
 Symbolic Z-matrix:
 Charge =  0 Multiplicity = 1

                         Standard orientation:
 ---------------------------------------------------------------------
 Center     Atomic      Atomic             Coordinates (Angstroms)
 Number     Number       Type             X           Y           Z
 ---------------------------------------------------------------------
      1          6           0       -4.052362   -0.256577    0.643967
      2          6           0       -2.984945   -1.351062    0.617290
      3          6           0       -1.991459   -1.236203    1.773831
      4          1           0       -3.561895    0.725943    0.611699
      5          1           0       -4.593163   -0.304739    1.599273
      6          1           0       -2.447240   -1.301734   -0.338250
      7          1           0       -3.478018   -2.331093    0.649432
      8          1           0       -2.509827   -1.307565    2.735498
      9          1           0       -1.473192   -0.272357    1.742204
     10          1           0       -1.237238   -2.028372    1.735365
     11          6           0       -5.052917   -0.358009   -0.505959
     12          6           0       -6.120333    0.736475   -0.479281
     13          6           0       -7.113819    0.621617   -1.635822
     14          1           0       -4.512115   -0.309848   -1.461265
     15          1           0       -5.543384   -1.340530   -0.473690
     16          1           0       -5.627260    1.716507   -0.511424
     17          1           0       -6.658038    0.687147    0.476258
     18          1           0       -7.632086   -0.342229   -1.604196
     19          1           0       -6.595451    0.692979   -2.597489
     20          1           0       -7.868040    1.413785   -1.597357
     21          6           0        1.961782    1.863856    1.034819
     22          6           0        1.747914    0.486637    1.153342
     23          6           0        2.625157   -0.422261    0.554261
     24          6           0        3.710945    0.083092   -0.159164
     25          6           0        3.950914    1.449543   -0.295231
     26          6           0        3.060662    2.340075    0.312185
     27          1           0        1.275266    2.562776    1.503437
     28          1           0        0.895346    0.113943    1.713942
     29          1           0        2.483312   -1.493492    0.630152
     30          1           0        4.809619    1.790964   -0.860452
     31          1           0        3.229242    3.409114    0.218476
     32          7           0        4.646529   -0.869396   -0.797796
     33          8           0        5.595660   -0.398769   -1.420931
     34          8           0        4.412993   -2.068546   -0.663127
 ---------------------------------------------------------------------

 SCF Done:  E(RHF) =  -669.535499365     A.U. after   15 cycles
 E2 =    -0.2090870108D+01 EUMP2 =    -0.67162636947314D+03

 The electronic state is 1-A.
 Alpha  occ. eigenvalues --  -20.60732 -20.60727 -15.85785 -11.31143 -11.27711
 Alpha  occ. eigenvalues --  -11.27694 -11.27447 -11.26731 -11.26659 -11.22309
 Alpha  occ. eigenvalues --  -11.22107 -11.22011 -11.21995 -11.21833 -11.21395
 Alpha  occ. eigenvalues --   -1.59808  -1.39362  -1.19310  -1.08995  -1.08709
 Alpha  occ. eigenvalues --   -1.04710  -1.04130  -0.96606  -0.95546  -0.87633
 Alpha  occ. eigenvalues --   -0.86108  -0.82376  -0.80199  -0.78779  -0.77424
 Alpha  occ. eigenvalues --   -0.72003  -0.71131  -0.70425  -0.65638  -0.64961
 Alpha  occ. eigenvalues --   -0.64726  -0.62116  -0.61477  -0.59979  -0.58191
 Alpha  occ. eigenvalues --   -0.55924  -0.55207  -0.53341  -0.53073  -0.53038
 Alpha  occ. eigenvalues --   -0.52728  -0.50517  -0.48763  -0.48759  -0.48504
 Alpha  occ. eigenvalues --   -0.47206  -0.46331  -0.46230  -0.44769  -0.44372
 Alpha  occ. eigenvalues --   -0.37296  -0.36309
 Alpha virt. eigenvalues --    0.05105   0.11303   0.16586   0.20363   0.22526
 Alpha virt. eigenvalues --    0.23844   0.25660   0.26329   0.26914   0.27971
 Alpha virt. eigenvalues --    0.28958   0.30195   0.30994   0.31229   0.31951

 Mulliken charges:
               1
     1  C   -0.298698
     2  C   -0.299679
     3  C   -0.480449
     4  H    0.147527
     5  H    0.150418
     6  H    0.154940
     7  H    0.156056
     8  H    0.159819
     9  H    0.147046
    10  H    0.160337
    11  C   -0.298982
    12  C   -0.299900
    13  C   -0.476044
    14  H    0.150980
    15  H    0.151330
    16  H    0.151236
    17  H    0.152276
    18  H    0.156156
    19  H    0.155996
    20  H    0.161083
    21  C   -0.172741
    22  C   -0.224603
    23  C   -0.172936
    24  C    0.158814
    25  C   -0.171377
    26  C   -0.218407
    27  H    0.225076
    28  H    0.233826
    29  H    0.275520
    30  H    0.275375
    31  H    0.223105
    32  N    0.488046
    33  O   -0.460628
    34  O   -0.460519
 Sum of Mulliken charges =  -0.00000

 Dipole moment (field-independent basis, Debye):
    X=             -3.5038    Y=              3.3016    Z=              2.2208  Tot=              5.3018
 Quadrupole moment (field-independent basis, Debye-Ang):
   XX=           -117.9729   YY=            -91.0771   ZZ=            -95.8980
   XY=             15.2528   XZ=              6.9168   YZ=             -2.2206

 Normal termination of Gaussian 16 at Thu May  6 15:33:35 2021.
