 Gaussian 16, Revision A.03,
 Gaussian 16:  EM64L-G16RevA.03 25-Dec-2016

 -------------
 #p 6-31g* mp2
 -------------

 ------------------------------------------------------
 Input file generated by CHIRIPA (05-May-2021 14:51:07)
 ------------------------------------------------------
 Symbolic Z-matrix:
 Charge =  0 Multiplicity = 1

                         Standard orientation:
 ---------------------------------------------------------------------
 Center     Atomic      Atomic             Coordinates (Angstroms)
 Number     Number       Type             X           Y           Z
 ---------------------------------------------------------------------
      1          6           0        3.283098    0.229143   -0.132202
      2          6           0        3.124636   -0.929903   -1.116828
      3          6           0        4.313136   -1.891540   -1.094129
      4          1           0        4.205270    0.778065   -0.367211
      5          1           0        3.409664   -0.174961    0.881738
      6          1           0        2.997021   -0.523699   -2.128425
      7          1           0        2.202635   -1.476014   -0.879567
      8          1           0        4.439574   -2.324242   -0.096440
      9          1           0        5.238474   -1.366516   -1.352394
     10          1           0        4.178986   -2.712450   -1.805445
     11          6           0        2.102929    1.199095   -0.143262
     12          6           0        2.261391    2.358141    0.841363
     13          6           0        1.072891    3.319778    0.818665
     14          1           0        1.976363    1.603198   -1.157203
     15          1           0        1.180757    0.650172    0.091747
     16          1           0        3.183392    2.904252    0.604103
     17          1           0        2.389006    1.951937    1.852961
     18          1           0        0.147553    2.794754    1.076930
     19          1           0        0.946453    3.752480   -0.179024
     20          1           0        1.207041    4.140688    1.529980
     21          6           0       -2.483385   -1.318363    0.555316
     22          6           0       -0.967742   -1.458493    0.700829
     23          6           0       -0.564010   -2.671957    1.538863
     24          1           0       -2.935801   -1.243241    1.553626
     25          1           0       -2.886791   -2.232074    0.097284
     26          1           0       -0.567142   -0.544229    1.157183
     27          1           0       -0.518864   -1.533098   -0.297949
     28          1           0       -0.936163   -3.595508    1.083718
     29          1           0       -0.984716   -2.601020    2.547117
     30          1           0        0.523640   -2.752987    1.630015
     31          6           0       -2.902642   -0.109874   -0.279852
     32          6           0       -4.418285    0.030254   -0.425365
     33          6           0       -4.822017    1.243719   -1.263398
     34          1           0       -2.499236    0.803835    0.178181
     35          1           0       -2.450226   -0.184997   -1.278161
     36          1           0       -4.867164    0.104860    0.573413
     37          1           0       -4.818885   -0.884009   -0.881719
     38          1           0       -4.401311    1.172783   -2.271653
     39          1           0       -4.449864    2.167270   -0.808254
     40          1           0       -5.909668    1.324749   -1.354550
 ---------------------------------------------------------------------

 SCF Done:  E(RHF) =  -470.732990238     A.U. after   11 cycles
 E2 =    -0.1583966069D+01 EUMP2 =    -0.47231695630636D+03

 The electronic state is 1-A.
 Alpha  occ. eigenvalues --  -11.21699 -11.21629 -11.21567 -11.21559 -11.21464
 Alpha  occ. eigenvalues --  -11.21399 -11.21332 -11.21222 -11.21170 -11.21080
 Alpha  occ. eigenvalues --  -11.21069 -11.21053  -1.08503  -1.08367  -1.03596
 Alpha  occ. eigenvalues --   -1.03497  -0.96038  -0.95941  -0.87057  -0.86958
 Alpha  occ. eigenvalues --   -0.79695  -0.79556  -0.78421  -0.78064  -0.65147
 Alpha  occ. eigenvalues --   -0.65004  -0.61059  -0.60839  -0.59413  -0.59309
 Alpha  occ. eigenvalues --   -0.57666  -0.57540  -0.55339  -0.55216  -0.52739
 Alpha  occ. eigenvalues --   -0.52644  -0.52482  -0.52352  -0.50016  -0.49864
 Alpha  occ. eigenvalues --   -0.48077  -0.47885  -0.46823  -0.46492  -0.46213
 Alpha  occ. eigenvalues --   -0.45742  -0.45689  -0.45144  -0.43838  -0.43734
 Alpha virt. eigenvalues --    0.20280   0.22191   0.23399   0.24522   0.25641
 Alpha virt. eigenvalues --    0.26216   0.26991   0.27644   0.28347   0.29610
 Alpha virt. eigenvalues --    0.30494   0.31323   0.31747   0.31902   0.32301

 Mulliken charges:
               1
     1  C   -0.297244
     2  C   -0.304286
     3  C   -0.475448
     4  H    0.149339
     5  H    0.148682
     6  H    0.151672
     7  H    0.156176
     8  H    0.154888
     9  H    0.155232
    10  H    0.160005
    11  C   -0.308308
    12  C   -0.299305
    13  C   -0.476107
    14  H    0.148695
    15  H    0.161492
    16  H    0.151786
    17  H    0.151204
    18  H    0.154219
    19  H    0.155583
    20  H    0.160113
    21  C   -0.297579
    22  C   -0.306961
    23  C   -0.476325
    24  H    0.149748
    25  H    0.149870
    26  H    0.155089
    27  H    0.155299
    28  H    0.155856
    29  H    0.155590
    30  H    0.160453
    31  C   -0.299307
    32  C   -0.299655
    33  C   -0.475788
    34  H    0.149815
    35  H    0.150315
    36  H    0.151971
    37  H    0.152036
    38  H    0.155312
    39  H    0.155568
    40  H    0.160305
 Sum of Mulliken charges =  -0.00000

 Dipole moment (field-independent basis, Debye):
    X=             -0.0592    Y=             -0.0296    Z=             -0.0066  Tot=              0.0665
 Quadrupole moment (field-independent basis, Debye-Ang):
   XX=            -85.4893   YY=            -85.4943   ZZ=            -83.8869
   XY=              1.2329   XZ=             -0.5354   YZ=              0.4625

 Normal termination of Gaussian 16 at Wed May  5 21:15:48 2021.
