 Gaussian 16, Revision A.03,
 Gaussian 16:  EM64L-G16RevA.03 25-Dec-2016

 -------------
 #p 6-31g* mp2
 -------------

 ------------------------------------------------------
 Input file generated by CHIRIPA (05-May-2021 14:53:14)
 ------------------------------------------------------
 Symbolic Z-matrix:
 Charge =  0 Multiplicity = 1

                         Standard orientation:
 ---------------------------------------------------------------------
 Center     Atomic      Atomic             Coordinates (Angstroms)
 Number     Number       Type             X           Y           Z
 ---------------------------------------------------------------------
      1          6           0        3.383811   -0.515789    0.091858
      2          6           0        3.912177   -1.703013   -0.713942
      3          6           0        3.548271   -3.050295   -0.089282
      4          1           0        3.783394   -0.567579    1.113913
      5          1           0        2.291500   -0.597617    0.178780
      6          1           0        5.003019   -1.618234   -0.800498
      7          1           0        3.511443   -1.648286   -1.734252
      8          1           0        2.461404   -3.160720   -0.017675
      9          1           0        3.961455   -3.130498    0.921385
     10          1           0        3.935815   -3.885147   -0.681474
     11          6           0        3.739554    0.838034   -0.519974
     12          6           0        3.211188    2.025258    0.285826
     13          6           0        3.575094    3.372540   -0.338834
     14          1           0        4.831865    0.919862   -0.606896
     15          1           0        3.339971    0.889824   -1.542029
     16          1           0        3.611922    1.970531    1.306137
     17          1           0        2.120346    1.940479    0.372382
     18          1           0        3.161910    3.452743   -1.349501
     19          1           0        4.661961    3.482965   -0.410441
     20          1           0        3.187550    4.207392    0.253358
     21          6           0       -0.566021   -0.887364    1.101574
     22          6           0       -1.396138   -1.797453    0.438880
     23          6           0       -2.626424   -1.386636   -0.082824
     24          6           0       -2.996851   -0.052259    0.076904
     25          6           0       -2.191836    0.878297    0.732117
     26          6           0       -0.965814    0.445257    1.245824
     27          1           0        0.388039   -1.215128    1.503740
     28          1           0       -1.088233   -2.832999    0.325373
     29          1           0       -3.288531   -2.070184   -0.600312
     30          1           0       -2.525957    1.904097    0.829665
     31          1           0       -0.323173    1.154247    1.760014
     32          7           0       -4.297044    0.394418   -0.471167
     33          8           0       -4.600437    1.575479   -0.317275
     34          8           0       -4.988120   -0.444997   -1.044258
 ---------------------------------------------------------------------

 SCF Done:  E(RHF) =  -669.535529079     A.U. after   15 cycles
 E2 =    -0.2092384146D+01 EUMP2 =    -0.67162791322586D+03

 The electronic state is 1-A.
 Alpha  occ. eigenvalues --  -20.60786 -20.60781 -15.85840 -11.31220 -11.27791
 Alpha  occ. eigenvalues --  -11.27786 -11.27491 -11.26802 -11.26790 -11.22438
 Alpha  occ. eigenvalues --  -11.22412 -11.22315 -11.22135 -11.22034 -11.21680
 Alpha  occ. eigenvalues --   -1.59861  -1.39414  -1.19394  -1.09276  -1.08781
 Alpha  occ. eigenvalues --   -1.04795  -1.04342  -0.96790  -0.95616  -0.87804
 Alpha  occ. eigenvalues --   -0.86189  -0.82450  -0.80414  -0.79126  -0.77491
 Alpha  occ. eigenvalues --   -0.72057  -0.71185  -0.70509  -0.65903  -0.65041
 Alpha  occ. eigenvalues --   -0.64778  -0.62150  -0.61722  -0.60162  -0.58414
 Alpha  occ. eigenvalues --   -0.56108  -0.55284  -0.53465  -0.53228  -0.53111
 Alpha  occ. eigenvalues --   -0.52882  -0.50724  -0.48832  -0.48812  -0.48710
 Alpha  occ. eigenvalues --   -0.47437  -0.46632  -0.46548  -0.44817  -0.44597
 Alpha  occ. eigenvalues --   -0.37335  -0.36398
 Alpha virt. eigenvalues --    0.04995   0.11138   0.16351   0.19656   0.22524
 Alpha virt. eigenvalues --    0.22859   0.25626   0.26042   0.26462   0.27634
 Alpha virt. eigenvalues --    0.29399   0.30247   0.30834   0.31082   0.31565

 Mulliken charges:
               1
     1  C   -0.305933
     2  C   -0.299596
     3  C   -0.476035
     4  H    0.148232
     5  H    0.147452
     6  H    0.155507
     7  H    0.155458
     8  H    0.146515
     9  H    0.155978
    10  H    0.165057
    11  C   -0.297688
    12  C   -0.302839
    13  C   -0.476062
    14  H    0.152473
    15  H    0.153530
    16  H    0.151060
    17  H    0.147890
    18  H    0.158262
    19  H    0.157387
    20  H    0.161018
    21  C   -0.171932
    22  C   -0.220756
    23  C   -0.170683
    24  C    0.158725
    25  C   -0.171056
    26  C   -0.221497
    27  H    0.230401
    28  H    0.223834
    29  H    0.275783
    30  H    0.275832
    31  H    0.226245
    32  N    0.488053
    33  O   -0.460292
    34  O   -0.460321
 Sum of Mulliken charges =  -0.00000

 Dipole moment (field-independent basis, Debye):
    X=              4.7208    Y=             -1.5414    Z=              1.8365  Tot=              5.2948
 Quadrupole moment (field-independent basis, Debye-Ang):
   XX=           -121.3327   YY=            -91.2469   ZZ=            -94.3968
   XY=              5.3128   XZ=             -4.9545   YZ=              1.9175

 Normal termination of Gaussian 16 at Wed May  5 15:36:16 2021.
