 Gaussian 16, Revision A.03,
 Gaussian 16:  EM64L-G16RevA.03 25-Dec-2016

 -------------
 #p 6-31g* mp2
 -------------

 ------------------------------------------------------
 Input file generated by CHIRIPA (05-May-2021 14:57:26)
 ------------------------------------------------------
 Symbolic Z-matrix:
 Charge =  0 Multiplicity = 1

                         Standard orientation:
 ---------------------------------------------------------------------
 Center     Atomic      Atomic             Coordinates (Angstroms)
 Number     Number       Type             X           Y           Z
 ---------------------------------------------------------------------
      1          6           0        5.062171   -1.897836    0.328212
      2          6           0        5.729133   -0.668607    0.354229
      3          6           0        5.023304    0.525928    0.182648
      4          6           0        3.645042    0.454014   -0.013597
      5          6           0        2.952041   -0.755152   -0.044558
      6          6           0        3.678194   -1.937117    0.129252
      7          1           0        5.618371   -2.820897    0.462366
      8          1           0        6.803890   -0.635069    0.508560
      9          1           0        5.514505    1.491274    0.198343
     10          1           0        1.880058   -0.756639   -0.200336
     11          1           0        3.157588   -2.890315    0.108581
     12          7           0        2.887054    1.711960   -0.196422
     13          8           0        1.673321    1.621634   -0.367681
     14          8           0        3.521029    2.764445   -0.164998
     15          6           0       -5.853572    1.120263    0.378381
     16          6           0       -4.610811    1.753293    0.271889
     17          6           0       -3.449730    1.005916    0.053102
     18          6           0       -3.568532   -0.378841   -0.054714
     19          6           0       -4.792279   -1.038696    0.046895
     20          6           0       -5.940187   -0.271258    0.265743
     21          1           0       -6.750410    1.708636    0.548362
     22          1           0       -4.540539    2.833814    0.358957
     23          1           0       -2.474880    1.470264   -0.033303
     24          1           0       -4.830651   -2.117422   -0.044195
     25          1           0       -6.903994   -0.765574    0.348031
     26          7           0       -2.346320   -1.180675   -0.286366
     27          8           0       -2.477730   -2.399290   -0.377726
     28          8           0       -1.280085   -0.575354   -0.372188
 ---------------------------------------------------------------------

 SCF Done:  E(RHF) =  -868.339795590     A.U. after   16 cycles
 E2 =    -0.2598797226D+01 EUMP2 =    -0.87093859281655D+03

 The electronic state is 1-A.
 Alpha  occ. eigenvalues --  -20.60746 -20.60679 -20.59978 -20.59934 -15.85732
 Alpha  occ. eigenvalues --  -15.85004 -11.30937 -11.30266 -11.27544 -11.27404
 Alpha  occ. eigenvalues --  -11.27249 -11.26937 -11.26659 -11.26652 -11.26525
 Alpha  occ. eigenvalues --  -11.26441 -11.25943 -11.25782  -1.59783  -1.59044
 Alpha  occ. eigenvalues --   -1.39330  -1.38590  -1.19107  -1.18460  -1.08544
 Alpha  occ. eigenvalues --   -1.07896  -1.04479  -1.03833  -0.95397  -0.94728
 Alpha  occ. eigenvalues --   -0.85887  -0.85243  -0.82222  -0.81547  -0.77277
 Alpha  occ. eigenvalues --   -0.76579  -0.71964  -0.71216  -0.71088  -0.70369
 Alpha  occ. eigenvalues --   -0.70213  -0.69568  -0.64760  -0.64484  -0.64111
 Alpha  occ. eigenvalues --   -0.63838  -0.61810  -0.61139  -0.55011  -0.54389
 Alpha  occ. eigenvalues --   -0.52832  -0.52564  -0.52205  -0.51910  -0.48735
 Alpha  occ. eigenvalues --   -0.48716  -0.48006  -0.47958  -0.44768  -0.44019
 Alpha  occ. eigenvalues --   -0.37102  -0.36489  -0.36078  -0.35443
 Alpha virt. eigenvalues --    0.05228   0.05911   0.11576   0.12203   0.16739
 Alpha virt. eigenvalues --    0.17394   0.21706   0.22366   0.27667   0.28262
 Alpha virt. eigenvalues --    0.28574   0.29332   0.31267   0.31834   0.32856

 Mulliken charges:
               1
     1  C   -0.170941
     2  C   -0.219905
     3  C   -0.171785
     4  C    0.154918
     5  C   -0.178465
     6  C   -0.221833
     7  H    0.222710
     8  H    0.219695
     9  H    0.272136
    10  H    0.299750
    11  H    0.226795
    12  N    0.486948
    13  O   -0.455895
    14  O   -0.467021
    15  C   -0.170424
    16  C   -0.219462
    17  C   -0.172253
    18  C    0.156079
    19  C   -0.171078
    20  C   -0.219188
    21  H    0.225134
    22  H    0.225704
    23  H    0.287082
    24  H    0.273694
    25  H    0.222146
    26  N    0.490845
    27  O   -0.465465
    28  O   -0.459920
 Sum of Mulliken charges =  -0.00000

 Dipole moment (field-independent basis, Debye):
    X=             -1.9294    Y=             -1.5755    Z=              1.4279  Tot=              2.8712
 Quadrupole moment (field-independent basis, Debye-Ang):
   XX=            -52.0740   YY=           -107.0749   ZZ=           -106.7107
   XY=            -19.2995   XZ=             -0.0412   YZ=              0.1993

 Normal termination of Gaussian 16 at Thu May  6 06:45:54 2021.
