 Gaussian 16, Revision A.03,
 Gaussian 16:  EM64L-G16RevA.03 25-Dec-2016

 -------------
 #p 6-31g* mp2
 -------------

 ------------------------------------------------------
 Input file generated by CHIRIPA (05-May-2021 14:53:14)
 ------------------------------------------------------
 Symbolic Z-matrix:
 Charge =  0 Multiplicity = 1

                         Standard orientation:
 ---------------------------------------------------------------------
 Center     Atomic      Atomic             Coordinates (Angstroms)
 Number     Number       Type             X           Y           Z
 ---------------------------------------------------------------------
      1          6           0       -3.058007    0.662169    0.293527
      2          6           0       -2.225296    1.928608    0.091759
      3          6           0       -2.648475    3.068317    1.019000
      4          1           0       -4.118113    0.897669    0.127214
      5          1           0       -2.970429    0.336903    1.339436
      6          1           0       -2.313312    2.250606   -0.953797
      7          1           0       -1.167029    1.690023    0.258384
      8          1           0       -2.543766    2.771017    2.067451
      9          1           0       -3.696562    3.334785    0.848383
     10          1           0       -2.040198    3.963813    0.857920
     11          6           0       -2.646874   -0.486140   -0.626301
     12          6           0       -3.479585   -1.752579   -0.424533
     13          6           0       -3.056406   -2.892288   -1.351774
     14          1           0       -2.734452   -0.160874   -1.672211
     15          1           0       -1.586768   -0.721639   -0.459988
     16          1           0       -4.537852   -1.513994   -0.591158
     17          1           0       -3.391569   -2.074576    0.621023
     18          1           0       -2.008319   -3.158755   -1.181157
     19          1           0       -3.161115   -2.594988   -2.400225
     20          1           0       -3.664683   -3.787783   -1.190694
     21          6           0        2.687370    1.462043   -1.822437
     22          6           0        1.899172    1.905524   -0.755390
     23          6           0        1.638353    1.065931    0.331627
     24          6           0        2.184104   -0.216754    0.318744
     25          6           0        2.973212   -0.687646   -0.729521
     26          6           0        3.220934    0.169152   -1.806126
     27          1           0        2.884893    2.120941   -2.662814
     28          1           0        1.483491    2.909094   -0.765363
     29          1           0        1.031516    1.383633    1.170812
     30          1           0        3.373797   -1.693370   -0.691187
     31          1           0        3.833411   -0.177946   -2.633435
     32          7           0        1.914921   -1.114701    1.464008
     33          8           0        2.407368   -2.240260    1.428686
     34          8           0        1.216582   -0.675949    2.375303
 ---------------------------------------------------------------------

 SCF Done:  E(RHF) =  -669.535155559     A.U. after   15 cycles
 E2 =    -0.2092815089D+01 EUMP2 =    -0.67162797064746D+03

 The electronic state is 1-A.
 Alpha  occ. eigenvalues --  -20.60852 -20.60846 -15.85905 -11.31261 -11.27817
 Alpha  occ. eigenvalues --  -11.27812 -11.27548 -11.26829 -11.26816 -11.21824
 Alpha  occ. eigenvalues --  -11.21387 -11.21349 -11.21332 -11.21255 -11.20854
 Alpha  occ. eigenvalues --   -1.59927  -1.39481  -1.19430  -1.08821  -1.08401
 Alpha  occ. eigenvalues --   -1.04832  -1.03537  -0.95973  -0.95662  -0.86992
 Alpha  occ. eigenvalues --   -0.86225  -0.82496  -0.79628  -0.78210  -0.77531
 Alpha  occ. eigenvalues --   -0.72121  -0.71253  -0.70543  -0.65120  -0.65041
 Alpha  occ. eigenvalues --   -0.64785  -0.62217  -0.60898  -0.59370  -0.57589
 Alpha  occ. eigenvalues --   -0.55331  -0.55233  -0.53180  -0.52923  -0.52684
 Alpha  occ. eigenvalues --   -0.52398  -0.49906  -0.48879  -0.48877  -0.47929
 Alpha  occ. eigenvalues --   -0.46643  -0.45752  -0.45635  -0.44878  -0.43773
 Alpha  occ. eigenvalues --   -0.37399  -0.36366
 Alpha virt. eigenvalues --    0.04948   0.11159   0.16407   0.20617   0.22976
 Alpha virt. eigenvalues --    0.24137   0.26303   0.26968   0.27625   0.28140
 Alpha virt. eigenvalues --    0.28993   0.30323   0.31433   0.31748   0.32378

 Mulliken charges:
               1
     1  C   -0.298751
     2  C   -0.304531
     3  C   -0.476621
     4  H    0.149249
     5  H    0.156740
     6  H    0.149421
     7  H    0.148630
     8  H    0.159788
     9  H    0.157596
    10  H    0.153859
    11  C   -0.297879
    12  C   -0.300502
    13  C   -0.476030
    14  H    0.146434
    15  H    0.150307
    16  H    0.150460
    17  H    0.157297
    18  H    0.157586
    19  H    0.152371
    20  H    0.160890
    21  C   -0.170861
    22  C   -0.216150
    23  C   -0.171059
    24  C    0.157215
    25  C   -0.171374
    26  C   -0.218080
    27  H    0.226003
    28  H    0.224884
    29  H    0.276617
    30  H    0.275797
    31  H    0.223799
    32  N    0.487822
    33  O   -0.460019
    34  O   -0.460905
 Sum of Mulliken charges =  -0.00000

 Dipole moment (field-independent basis, Debye):
    X=              0.9672    Y=              3.0788    Z=             -3.9893  Tot=              5.1312
 Quadrupole moment (field-independent basis, Debye-Ang):
   XX=            -89.0437   YY=            -94.8013   ZZ=            -96.8141
   XY=              4.6466   XZ=             -9.8220   YZ=              2.7675

 Normal termination of Gaussian 16 at Wed May  5 21:53:24 2021.
