 Gaussian 16, Revision A.03,
 Gaussian 16:  EM64L-G16RevA.03 25-Dec-2016

 -------------
 #p 6-31g* mp2
 -------------

 ------------------------------------------------------
 Input file generated by CHIRIPA (05-May-2021 14:57:24)
 ------------------------------------------------------
 Symbolic Z-matrix:
 Charge =  0 Multiplicity = 1

                         Standard orientation:
 ---------------------------------------------------------------------
 Center     Atomic      Atomic             Coordinates (Angstroms)
 Number     Number       Type             X           Y           Z
 ---------------------------------------------------------------------
      1          6           0       -2.232424    2.690841   -0.220252
      2          6           0       -3.608237    2.463092   -0.328826
      3          6           0       -4.121844    1.165463   -0.245667
      4          6           0       -3.226933    0.114183   -0.052699
      5          6           0       -1.851122    0.308863    0.059248
      6          6           0       -1.359796    1.614897   -0.026902
      7          1           0       -1.842096    3.702135   -0.286014
      8          1           0       -4.288290    3.296769   -0.479015
      9          1           0       -5.182493    0.960705   -0.326394
     10          1           0       -1.198053   -0.542372    0.208643
     11          1           0       -0.290853    1.788789    0.057767
     12          7           0       -3.758872   -1.264007    0.036921
     13          8           0       -2.949482   -2.173145    0.207198
     14          8           0       -4.975123   -1.408999   -0.064808
     15          6           0        1.451640   -2.213379    0.182655
     16          6           0        2.430396   -2.213764   -0.816624
     17          6           0        3.370542   -1.181637   -0.890032
     18          6           0        3.302417   -0.160343    0.056333
     19          6           0        2.339337   -0.131807    1.063782
     20          6           0        1.409308   -1.174233    1.118019
     21          1           0        0.725241   -3.019160    0.232234
     22          1           0        2.465672   -3.019479   -1.544376
     23          1           0        4.138921   -1.157093   -1.653190
     24          1           0        2.329463    0.685046    1.775170
     25          1           0        0.650310   -1.171331    1.895167
     26          7           0        4.292351    0.937776   -0.011233
     27          8           0        4.210982    1.825992    0.834396
     28          8           0        5.130888    0.889471   -0.908540
 ---------------------------------------------------------------------

 SCF Done:  E(RHF) =  -868.339002428     A.U. after   16 cycles
 E2 =    -0.2601347696D+01 EUMP2 =    -0.87094035012429D+03

 The electronic state is 1-A.
 Alpha  occ. eigenvalues --  -20.61370 -20.61329 -20.61322 -20.61309 -15.86391
 Alpha  occ. eigenvalues --  -15.86377 -11.31782 -11.31552 -11.28406 -11.28296
 Alpha  occ. eigenvalues --  -11.28090 -11.28050 -11.27929 -11.27770 -11.27335
 Alpha  occ. eigenvalues --  -11.27232 -11.27060 -11.27026  -1.60416  -1.60400
 Alpha  occ. eigenvalues --   -1.39981  -1.39952  -1.19950  -1.19703  -1.09300
 Alpha  occ. eigenvalues --   -1.09129  -1.05372  -1.05058  -0.96130  -0.95997
 Alpha  occ. eigenvalues --   -0.86756  -0.86454  -0.82977  -0.82823  -0.78087
 Alpha  occ. eigenvalues --   -0.77880  -0.72627  -0.72582  -0.71732  -0.71731
 Alpha  occ. eigenvalues --   -0.70936  -0.70803  -0.65584  -0.65412  -0.65338
 Alpha  occ. eigenvalues --   -0.64970  -0.62787  -0.62336  -0.55701  -0.55573
 Alpha  occ. eigenvalues --   -0.53658  -0.53473  -0.53391  -0.53076  -0.49391
 Alpha  occ. eigenvalues --   -0.49348  -0.49345  -0.49335  -0.45430  -0.45350
 Alpha  occ. eigenvalues --   -0.37862  -0.37667  -0.36992  -0.36665
 Alpha virt. eigenvalues --    0.04417   0.04631   0.10479   0.10967   0.15906
 Alpha virt. eigenvalues --    0.16176   0.20328   0.21875   0.26169   0.26985
 Alpha virt. eigenvalues --    0.28008   0.28915   0.30580   0.30815   0.31629

 Mulliken charges:
               1
     1  C   -0.170113
     2  C   -0.218767
     3  C   -0.170204
     4  C    0.159290
     5  C   -0.179003
     6  C   -0.224575
     7  H    0.229346
     8  H    0.225099
     9  H    0.275979
    10  H    0.275526
    11  H    0.226971
    12  N    0.488781
    13  O   -0.469408
    14  O   -0.457042
    15  C   -0.173151
    16  C   -0.218045
    17  C   -0.169889
    18  C    0.157769
    19  C   -0.178514
    20  C   -0.233420
    21  H    0.242737
    22  H    0.228649
    23  H    0.277781
    24  H    0.275220
    25  H    0.230626
    26  N    0.487975
    27  O   -0.461845
    28  O   -0.457774
 Sum of Mulliken charges =  -0.00000

 Dipole moment (field-independent basis, Debye):
    X=             -1.4970    Y=              0.8958    Z=             -0.1826  Tot=              1.7541
 Quadrupole moment (field-independent basis, Debye-Ang):
   XX=           -134.8767   YY=           -101.1572   ZZ=           -102.5609
   XY=            -31.4795   XZ=              0.1333   YZ=              1.1784

 Normal termination of Gaussian 16 at Thu May  6 14:41:57 2021.
