 Gaussian 16, Revision A.03,
 Gaussian 16:  EM64L-G16RevA.03 25-Dec-2016

 -------------
 #p 6-31g* mp2
 -------------

 ------------------------------------------------------
 Input file generated by CHIRIPA (05-May-2021 14:51:14)
 ------------------------------------------------------
 Symbolic Z-matrix:
 Charge =  0 Multiplicity = 1

                         Standard orientation:
 ---------------------------------------------------------------------
 Center     Atomic      Atomic             Coordinates (Angstroms)
 Number     Number       Type             X           Y           Z
 ---------------------------------------------------------------------
      1          6           0       -5.620315    0.333294    0.106464
      2          6           0       -6.458995   -0.883253   -0.286745
      3          6           0       -7.952598   -0.679168   -0.031215
      4          1           0       -5.784812    0.555954    1.169624
      5          1           0       -5.972843    1.209810   -0.454641
      6          1           0       -6.104085   -1.757506    0.273912
      7          1           0       -6.292336   -1.103158   -1.349046
      8          1           0       -8.327878    0.175954   -0.602645
      9          1           0       -8.138558   -0.482111    1.029534
     10          1           0       -8.533358   -1.560952   -0.319371
     11          6           0       -4.125045    0.144550   -0.143074
     12          6           0       -3.286364    1.361097    0.250135
     13          6           0       -1.792762    1.157012   -0.005395
     14          1           0       -3.772517   -0.731966    0.418031
     15          1           0       -3.960548   -0.078110   -1.206234
     16          1           0       -3.453024    1.581002    1.312436
     17          1           0       -3.641275    2.235350   -0.310522
     18          1           0       -1.606802    0.959955   -1.066144
     19          1           0       -1.417482    0.301890    0.566035
     20          1           0       -1.212002    2.038796    0.282761
     21          6           0        5.466320    0.213692   -0.143449
     22          6           0        6.820829   -0.458519    0.083320
     23          6           0        7.998687    0.459574   -0.244627
     24          1           0        5.397371    0.541409   -1.189772
     25          1           0        5.407549    1.121447    0.472929
     26          1           0        6.876480   -1.365484   -0.532256
     27          1           0        6.886483   -0.784846    1.129177
     28          1           0        7.971047    1.359234    0.378631
     29          1           0        7.960986    0.775297   -1.292243
     30          1           0        8.957139   -0.041034   -0.075445
     31          6           0        4.279040   -0.691536    0.180059
     32          6           0        2.924531   -0.019325   -0.046710
     33          6           0        1.746673   -0.937417    0.281237
     34          1           0        4.337811   -1.599290   -0.436319
     35          1           0        4.347989   -1.019254    1.226382
     36          1           0        2.858877    0.307001   -1.092567
     37          1           0        2.868880    0.887640    0.568866
     38          1           0        1.784373   -1.253140    1.328853
     39          1           0        1.774313   -1.837078   -0.342019
     40          1           0        0.788221   -0.436811    0.112056
 ---------------------------------------------------------------------

 SCF Done:  E(RHF) =  -470.733127512     A.U. after   11 cycles
 E2 =    -0.1582280541D+01 EUMP2 =    -0.47231540805263D+03

 The electronic state is 1-A.
 Alpha  occ. eigenvalues --  -11.21620 -11.21602 -11.21569 -11.21519 -11.21411
 Alpha  occ. eigenvalues --  -11.21353 -11.21351 -11.21291 -11.21101 -11.21072
 Alpha  occ. eigenvalues --  -11.21046 -11.20915  -1.08440  -1.08372  -1.03551
 Alpha  occ. eigenvalues --   -1.03460  -0.96024  -0.95892  -0.87070  -0.86886
 Alpha  occ. eigenvalues --   -0.79643  -0.79503  -0.78251  -0.78187  -0.65070
 Alpha  occ. eigenvalues --   -0.65004  -0.60956  -0.60860  -0.59365  -0.59310
 Alpha  occ. eigenvalues --   -0.57690  -0.57454  -0.55298  -0.55194  -0.52899
 Alpha  occ. eigenvalues --   -0.52633  -0.52402  -0.52134  -0.49936  -0.49848
 Alpha  occ. eigenvalues --   -0.48006  -0.47751  -0.46637  -0.46564  -0.45794
 Alpha  occ. eigenvalues --   -0.45728  -0.45713  -0.45656  -0.43816  -0.43661
 Alpha virt. eigenvalues --    0.22632   0.22930   0.23660   0.24636   0.26501
 Alpha virt. eigenvalues --    0.26705   0.26775   0.27514   0.27647   0.28848
 Alpha virt. eigenvalues --    0.30605   0.31409   0.31456   0.31666   0.32166

 Mulliken charges:
               1
     1  C   -0.298307
     2  C   -0.299662
     3  C   -0.475714
     4  H    0.149673
     5  H    0.149521
     6  H    0.152030
     7  H    0.151957
     8  H    0.155168
     9  H    0.155186
    10  H    0.160281
    11  C   -0.298479
    12  C   -0.300078
    13  C   -0.478983
    14  H    0.149879
    15  H    0.149695
    16  H    0.152092
    17  H    0.151964
    18  H    0.155433
    19  H    0.157998
    20  H    0.160776
    21  C   -0.298163
    22  C   -0.299578
    23  C   -0.475662
    24  H    0.149524
    25  H    0.149380
    26  H    0.151853
    27  H    0.151850
    28  H    0.155115
    29  H    0.155119
    30  H    0.160128
    31  C   -0.298340
    32  C   -0.298491
    33  C   -0.485562
    34  H    0.149328
    35  H    0.149391
    36  H    0.151633
    37  H    0.151584
    38  H    0.153792
    39  H    0.154294
    40  H    0.172373
 Sum of Mulliken charges =  -0.00000

 Dipole moment (field-independent basis, Debye):
    X=             -0.0492    Y=              0.0143    Z=             -0.0029  Tot=              0.0513
 Quadrupole moment (field-independent basis, Debye-Ang):
   XX=            -87.1000   YY=            -84.8716   ZZ=            -82.9853
   XY=             -0.5158   XZ=              0.4156   YZ=              0.0835

 Normal termination of Gaussian 16 at Thu May  6 04:01:24 2021.
