 Gaussian 16, Revision A.03,
 Gaussian 16:  EM64L-G16RevA.03 25-Dec-2016

 -------------
 #p 6-31g* mp2
 -------------

 ------------------------------------------------------
 Input file generated by CHIRIPA (05-May-2021 14:55:20)
 ------------------------------------------------------
 Symbolic Z-matrix:
 Charge =  0 Multiplicity = 1

                         Standard orientation:
 ---------------------------------------------------------------------
 Center     Atomic      Atomic             Coordinates (Angstroms)
 Number     Number       Type             X           Y           Z
 ---------------------------------------------------------------------
      1          6           0        2.123104    2.728638    0.159928
      2          6           0        1.381606    1.987050   -0.765679
      3          6           0        1.683247    0.642755   -1.003237
      4          6           0        2.737722    0.069286   -0.294360
      5          6           0        3.494994    0.781762    0.634190
      6          6           0        3.175575    2.124692    0.855682
      7          1           0        1.881876    3.772388    0.338229
      8          1           0        0.563699    2.453468   -1.307460
      9          1           0        1.125528    0.045360   -1.714212
     10          1           0        4.304602    0.289275    1.158984
     11          1           0        3.753143    2.698179    1.575108
     12          7           0        3.066466   -1.353136   -0.537348
     13          8           0        4.000289   -1.835115    0.100074
     14          8           0        2.384087   -1.959118   -1.360623
     15          6           0       -2.783010   -0.768395    0.205913
     16          6           0       -1.871486   -0.809665    1.432864
     17          6           0       -0.571215   -1.572611    1.177911
     18          1           0       -3.014337   -1.796129   -0.105848
     19          1           0       -2.241349   -0.302881   -0.629129
     20          1           0       -2.415179   -1.273707    2.265738
     21          1           0       -1.642458    0.218287    1.741856
     22          1           0       -0.004829   -1.107570    0.364557
     23          1           0       -0.781941   -2.608042    0.891416
     24          1           0        0.065351   -1.589742    2.068052
     25          6           0       -4.086854   -0.009123    0.445128
     26          6           0       -4.998378    0.032147   -0.781823
     27          6           0       -6.298649    0.795093   -0.526870
     28          1           0       -4.628514   -0.474638    1.280171
     29          1           0       -3.855527    1.018611    0.756888
     30          1           0       -5.227406   -0.995806   -1.090815
     31          1           0       -4.454685    0.496189   -1.614696
     32          1           0       -6.087923    1.830524   -0.240374
     33          1           0       -6.865035    0.330051    0.286484
     34          1           0       -6.935214    0.812224   -1.417010
 ---------------------------------------------------------------------

 SCF Done:  E(RHF) =  -669.534771933     A.U. after   15 cycles
 E2 =    -0.2093193195D+01 EUMP2 =    -0.67162796512822D+03

 The electronic state is 1-A.
 Alpha  occ. eigenvalues --  -20.60815 -20.60792 -15.85840 -11.31223 -11.27807
 Alpha  occ. eigenvalues --  -11.27803 -11.27556 -11.26839 -11.26819 -11.21772
 Alpha  occ. eigenvalues --  -11.21573 -11.21540 -11.21461 -11.21244 -11.20751
 Alpha  occ. eigenvalues --   -1.59866  -1.39422  -1.19419  -1.08802  -1.08522
 Alpha  occ. eigenvalues --   -1.04832  -1.03563  -0.96006  -0.95632  -0.87024
 Alpha  occ. eigenvalues --   -0.86222  -0.82467  -0.79637  -0.78341  -0.77509
 Alpha  occ. eigenvalues --   -0.72067  -0.71188  -0.70532  -0.65172  -0.65070
 Alpha  occ. eigenvalues --   -0.64828  -0.62190  -0.60972  -0.59382  -0.57614
 Alpha  occ. eigenvalues --   -0.55413  -0.55271  -0.53168  -0.52922  -0.52672
 Alpha  occ. eigenvalues --   -0.52381  -0.49932  -0.48832  -0.48821  -0.47940
 Alpha  occ. eigenvalues --   -0.46688  -0.45886  -0.45819  -0.44755  -0.43837
 Alpha  occ. eigenvalues --   -0.37358  -0.36390
 Alpha virt. eigenvalues --    0.05000   0.11129   0.16494   0.20970   0.22812
 Alpha virt. eigenvalues --    0.24223   0.25964   0.27077   0.27718   0.27952
 Alpha virt. eigenvalues --    0.28664   0.30652   0.31466   0.31764   0.32040

 Mulliken charges:
               1
     1  C   -0.170899
     2  C   -0.218070
     3  C   -0.177288
     4  C    0.164585
     5  C   -0.170911
     6  C   -0.218254
     7  H    0.225792
     8  H    0.223559
     9  H    0.276164
    10  H    0.275847
    11  H    0.223684
    12  N    0.489524
    13  O   -0.459808
    14  O   -0.459706
    15  C   -0.296215
    16  C   -0.300009
    17  C   -0.479203
    18  H    0.153409
    19  H    0.141926
    20  H    0.152316
    21  H    0.147986
    22  H    0.156663
    23  H    0.161324
    24  H    0.159302
    25  C   -0.298012
    26  C   -0.299241
    27  C   -0.475586
    28  H    0.150976
    29  H    0.146559
    30  H    0.153988
    31  H    0.149172
    32  H    0.153607
    33  H    0.156162
    34  H    0.160656
 Sum of Mulliken charges =  -0.00000

 Dipole moment (field-independent basis, Debye):
    X=             -1.0863    Y=              4.9381    Z=              0.8678  Tot=              5.1301
 Quadrupole moment (field-independent basis, Debye-Ang):
   XX=            -99.3767   YY=            -93.9833   ZZ=            -93.4952
   XY=             15.1090   XZ=              5.5245   YZ=             -1.4512

 Normal termination of Gaussian 16 at Thu May  6 19:05:58 2021.
