 Gaussian 16, Revision A.03,
 Gaussian 16:  EM64L-G16RevA.03 25-Dec-2016

 -------------
 #p 6-31g* mp2
 -------------

 ------------------------------------------------------
 Input file generated by CHIRIPA (05-May-2021 14:51:09)
 ------------------------------------------------------
 Symbolic Z-matrix:
 Charge =  0 Multiplicity = 1

                         Standard orientation:
 ---------------------------------------------------------------------
 Center     Atomic      Atomic             Coordinates (Angstroms)
 Number     Number       Type             X           Y           Z
 ---------------------------------------------------------------------
      1          6           0        4.850873   -0.081204   -0.295931
      2          6           0        5.963272   -0.963432    0.271719
      3          6           0        7.265021   -0.858209   -0.523374
      4          1           0        4.666925   -0.361749   -1.342069
      5          1           0        5.191007    0.963576   -0.307673
      6          1           0        5.620625   -2.006057    0.283673
      7          1           0        6.144461   -0.680884    1.316685
      8          1           0        7.633234    0.172818   -0.524896
      9          1           0        7.106423   -1.159884   -1.563778
     10          1           0        8.046603   -1.496960   -0.100306
     11          6           0        3.543209   -0.175536    0.488189
     12          6           0        2.430809    0.706692   -0.079461
     13          6           0        1.129061    0.601469    0.715632
     14          1           0        3.203074   -1.220316    0.499931
     15          1           0        3.727157    0.105008    1.534327
     16          1           0        2.249621    0.424143   -1.124427
     17          1           0        2.773456    1.749316   -0.091415
     18          1           0        1.287659    0.903144    1.756036
     19          1           0        0.760847   -0.429559    0.717154
     20          1           0        0.347479    1.240219    0.292564
     21          6           0       -4.320108   -0.621221   -0.176121
     22          6           0       -5.768345   -1.030225    0.094635
     23          6           0       -5.998798   -2.532815   -0.069412
     24          1           0       -4.043708   -0.926988   -1.194481
     25          1           0       -3.657380   -1.171399    0.506148
     26          1           0       -6.428258   -0.478411   -0.587005
     27          1           0       -6.041391   -0.723278    1.112399
     28          1           0       -5.364328   -3.097540    0.621338
     29          1           0       -5.753394   -2.851281   -1.087722
     30          1           0       -7.040657   -2.803182    0.128809
     31          6           0       -4.073973    0.877962   -0.016136
     32          6           0       -2.625736    1.286966   -0.286893
     33          6           0       -2.395283    2.789556   -0.122847
     34          1           0       -4.736701    1.428140   -0.698406
     35          1           0       -4.350373    1.183729    1.002222
     36          1           0       -2.352690    0.980018   -1.304658
     37          1           0       -1.965824    0.735151    0.394746
     38          1           0       -2.640688    3.108022    0.895464
     39          1           0       -3.029754    3.354281   -0.813595
     40          1           0       -1.353424    3.059923   -0.321068
 ---------------------------------------------------------------------

 SCF Done:  E(RHF) =  -470.732657994     A.U. after   11 cycles
 E2 =    -0.1582938514D+01 EUMP2 =    -0.47231559650798D+03

 The electronic state is 1-A.
 Alpha  occ. eigenvalues --  -11.21595 -11.21583 -11.21583 -11.21522 -11.21393
 Alpha  occ. eigenvalues --  -11.21375 -11.21333 -11.21315 -11.21075 -11.21066
 Alpha  occ. eigenvalues --  -11.21059 -11.21001  -1.08426  -1.08395  -1.03561
 Alpha  occ. eigenvalues --   -1.03471  -0.96028  -0.95910  -0.86992  -0.86980
 Alpha  occ. eigenvalues --   -0.79668  -0.79498  -0.78250  -0.78196  -0.65055
 Alpha  occ. eigenvalues --   -0.65032  -0.60957  -0.60898  -0.59683  -0.59083
 Alpha  occ. eigenvalues --   -0.57786  -0.57332  -0.55260  -0.55246  -0.52802
 Alpha  occ. eigenvalues --   -0.52551  -0.52459  -0.52251  -0.49946  -0.49867
 Alpha  occ. eigenvalues --   -0.47893  -0.47889  -0.46662  -0.46552  -0.45787
 Alpha  occ. eigenvalues --   -0.45754  -0.45708  -0.45656  -0.43773  -0.43697
 Alpha virt. eigenvalues --    0.22061   0.23010   0.23411   0.25022   0.26279
 Alpha virt. eigenvalues --    0.26700   0.26852   0.27213   0.27760   0.28906
 Alpha virt. eigenvalues --    0.30598   0.31062   0.31521   0.31679   0.32190

 Mulliken charges:
               1
     1  C   -0.298225
     2  C   -0.299606
     3  C   -0.475689
     4  H    0.149609
     5  H    0.149477
     6  H    0.151904
     7  H    0.151904
     8  H    0.155169
     9  H    0.155165
    10  H    0.160222
    11  C   -0.298588
    12  C   -0.299392
    13  C   -0.484165
    14  H    0.149486
    15  H    0.149540
    16  H    0.151929
    17  H    0.151542
    18  H    0.154524
    19  H    0.154592
    20  H    0.171342
    21  C   -0.298287
    22  C   -0.299628
    23  C   -0.475689
    24  H    0.149461
    25  H    0.149627
    26  H    0.151884
    27  H    0.151943
    28  H    0.155147
    29  H    0.155086
    30  H    0.160199
    31  C   -0.297757
    32  C   -0.305091
    33  C   -0.478437
    34  H    0.149114
    35  H    0.149552
    36  H    0.151395
    37  H    0.158751
    38  H    0.155691
    39  H    0.155640
    40  H    0.160657
 Sum of Mulliken charges =  -0.00000

 Dipole moment (field-independent basis, Debye):
    X=             -0.0066    Y=              0.0028    Z=              0.0069  Tot=              0.0099
 Quadrupole moment (field-independent basis, Debye-Ang):
   XX=            -85.9464   YY=            -85.3315   ZZ=            -83.6717
   XY=             -0.1007   XZ=              0.8161   YZ=              0.2498

 Normal termination of Gaussian 16 at Wed May  5 22:58:23 2021.
