 Gaussian 16, Revision A.03,
 Gaussian 16:  EM64L-G16RevA.03 25-Dec-2016

 -------------
 #p 6-31g* mp2
 -------------

 ------------------------------------------------------
 Input file generated by CHIRIPA (05-May-2021 14:55:21)
 ------------------------------------------------------
 Symbolic Z-matrix:
 Charge =  0 Multiplicity = 1

                         Standard orientation:
 ---------------------------------------------------------------------
 Center     Atomic      Atomic             Coordinates (Angstroms)
 Number     Number       Type             X           Y           Z
 ---------------------------------------------------------------------
      1          6           0       -1.763521    1.813867   -0.798450
      2          6           0       -1.312941    0.490035   -0.829519
      3          6           0       -2.171902   -0.560416   -0.492938
      4          6           0       -3.480985   -0.249517   -0.128335
      5          6           0       -3.959577    1.059144   -0.087770
      6          6           0       -3.083075    2.093703   -0.428327
      7          1           0       -1.089447    2.623710   -1.061458
      8          1           0       -0.288678    0.269742   -1.116577
      9          1           0       -1.849256   -1.594377   -0.508512
     10          1           0       -4.986091    1.247468    0.202438
     11          1           0       -3.435746    3.120856   -0.403309
     12          7           0       -4.399613   -1.353171    0.230093
     13          8           0       -5.548291   -1.052864    0.547887
     14          8           0       -3.953562   -2.497623    0.186448
     15          6           0        4.652523   -0.538513    0.039611
     16          6           0        6.150167   -0.286561   -0.138057
     17          6           0        6.918149   -1.546513   -0.538707
     18          1           0        4.505892   -1.316716    0.801086
     19          1           0        4.241098   -0.937213   -0.898026
     20          1           0        6.558373    0.112846    0.799203
     21          1           0        6.293243    0.491268   -0.899061
     22          1           0        6.538377   -1.944495   -1.485270
     23          1           0        6.805013   -2.325068    0.222643
     24          1           0        7.986756   -1.343672   -0.660337
     25          6           0        3.871211    0.711625    0.440155
     26          6           0        2.373566    0.459673    0.617822
     27          6           0        1.605584    1.719624    1.018471
     28          1           0        4.282635    1.110325    1.377792
     29          1           0        4.017841    1.489827   -0.321321
     30          1           0        2.230491   -0.318157    1.378826
     31          1           0        1.965360    0.060266   -0.319439
     32          1           0        1.718721    2.498179    0.257122
     33          1           0        1.985358    2.117607    1.965035
     34          1           0        0.536977    1.516784    1.140102
 ---------------------------------------------------------------------

 SCF Done:  E(RHF) =  -669.534449410     A.U. after   15 cycles
 E2 =    -0.2092819356D+01 EUMP2 =    -0.67162726876635D+03

 The electronic state is 1-A.
 Alpha  occ. eigenvalues --  -20.60751 -20.60745 -15.85804 -11.31171 -11.27742
 Alpha  occ. eigenvalues --  -11.27725 -11.27457 -11.26752 -11.26699 -11.22549
 Alpha  occ. eigenvalues --  -11.22098 -11.22066 -11.21939 -11.21893 -11.21443
 Alpha  occ. eigenvalues --   -1.59826  -1.39380  -1.19349  -1.09107  -1.08739
 Alpha  occ. eigenvalues --   -1.04760  -1.04195  -0.96637  -0.95569  -0.87654
 Alpha  occ. eigenvalues --   -0.86143  -0.82406  -0.80289  -0.78893  -0.77453
 Alpha  occ. eigenvalues --   -0.72023  -0.71150  -0.70446  -0.65792  -0.64997
 Alpha  occ. eigenvalues --   -0.64767  -0.62199  -0.61518  -0.59991  -0.58237
 Alpha  occ. eigenvalues --   -0.55919  -0.55240  -0.53551  -0.53156  -0.52858
 Alpha  occ. eigenvalues --   -0.52688  -0.50577  -0.48785  -0.48777  -0.48583
 Alpha  occ. eigenvalues --   -0.47325  -0.46428  -0.46340  -0.44785  -0.44443
 Alpha  occ. eigenvalues --   -0.37274  -0.36331
 Alpha virt. eigenvalues --    0.05069   0.11214   0.16535   0.19876   0.22621
 Alpha virt. eigenvalues --    0.24075   0.25257   0.26052   0.26928   0.28127
 Alpha virt. eigenvalues --    0.28985   0.29886   0.31143   0.31594   0.32010

 Mulliken charges:
               1
     1  C   -0.171920
     2  C   -0.221913
     3  C   -0.173700
     4  C    0.158486
     5  C   -0.171081
     6  C   -0.219015
     7  H    0.227807
     8  H    0.232083
     9  H    0.275867
    10  H    0.275561
    11  H    0.223521
    12  N    0.488109
    13  O   -0.460547
    14  O   -0.460402
    15  C   -0.298903
    16  C   -0.300111
    17  C   -0.476112
    18  H    0.151800
    19  H    0.148420
    20  H    0.153120
    21  H    0.151897
    22  H    0.155430
    23  H    0.156433
    24  H    0.161671
    25  C   -0.297676
    26  C   -0.302844
    27  C   -0.486054
    28  H    0.152751
    29  H    0.149019
    30  H    0.157935
    31  H    0.142248
    32  H    0.147964
    33  H    0.160665
    34  H    0.169491
 Sum of Mulliken charges =  -0.00000

 Dipole moment (field-independent basis, Debye):
    X=              3.3615    Y=              3.8761    Z=             -1.1846  Tot=              5.2657
 Quadrupole moment (field-independent basis, Debye-Ang):
   XX=           -114.8065   YY=            -95.5359   ZZ=            -94.1109
   XY=            -16.8940   XZ=              3.8834   YZ=             -0.0013

 Normal termination of Gaussian 16 at Wed May  5 15:55:11 2021.
