 Gaussian 16, Revision A.03,
 Gaussian 16:  EM64L-G16RevA.03 25-Dec-2016

 -------------
 #p 6-31g* mp2
 -------------

 ------------------------------------------------------
 Input file generated by CHIRIPA (05-May-2021 14:51:11)
 ------------------------------------------------------
 Symbolic Z-matrix:
 Charge =  0 Multiplicity = 1

                         Standard orientation:
 ---------------------------------------------------------------------
 Center     Atomic      Atomic             Coordinates (Angstroms)
 Number     Number       Type             X           Y           Z
 ---------------------------------------------------------------------
      1          6           0        2.606414   -0.549342   -0.111579
      2          6           0        3.474070   -1.595323   -0.812352
      3          6           0        3.237053   -3.010288   -0.283682
      4          1           0        2.808983   -0.577731    0.967821
      5          1           0        1.548127   -0.816567   -0.238132
      6          1           0        4.530358   -1.325454   -0.685693
      7          1           0        3.269552   -1.564309   -1.890232
      8          1           0        2.191854   -3.304103   -0.424504
      9          1           0        3.459824   -3.063891    0.786879
     10          1           0        3.867471   -3.742033   -0.798446
     11          6           0        2.831991    0.870144   -0.629172
     12          6           0        1.964335    1.916124    0.071601
     13          6           0        2.201352    3.331089   -0.457069
     14          1           0        3.890278    1.137368   -0.502619
     15          1           0        2.629422    0.898532   -1.708572
     16          1           0        2.168853    1.885110    1.149482
     17          1           0        0.908047    1.646255   -0.055058
     18          1           0        1.978581    3.384692   -1.527630
     19          1           0        3.246551    3.624905   -0.316246
     20          1           0        1.570934    4.062834    0.057695
     21          6           0       -2.871626    0.142307   -0.314144
     22          6           0       -3.891639   -0.663013   -1.119761
     23          6           0       -4.186162   -0.044810   -2.486829
     24          1           0       -3.244915    1.167070   -0.182000
     25          1           0       -1.939410    0.221109   -0.890475
     26          1           0       -4.821191   -0.741450   -0.541490
     27          1           0       -3.515966   -1.686031   -1.249839
     28          1           0       -3.272030    0.018636   -3.085944
     29          1           0       -4.584670    0.968582   -2.373571
     30          1           0       -4.917762   -0.636548   -3.045818
     31          6           0       -2.566779   -0.463108    1.054894
     32          6           0       -1.546766    0.342211    1.860512
     33          6           0       -1.252243   -0.275991    3.227580
     34          1           0       -3.498995   -0.541910    1.631226
     35          1           0       -2.193491   -1.487871    0.922751
     36          1           0       -1.922439    1.365229    1.990589
     37          1           0       -0.617214    0.420649    1.282241
     38          1           0       -0.853735   -1.289384    3.114321
     39          1           0       -2.166375   -0.339437    3.826694
     40          1           0       -0.520643    0.315746    3.786568
 ---------------------------------------------------------------------

 SCF Done:  E(RHF) =  -470.733160670     A.U. after   11 cycles
 E2 =    -0.1583421613D+01 EUMP2 =    -0.47231658228299D+03

 The electronic state is 1-A.
 Alpha  occ. eigenvalues --  -11.21652 -11.21626 -11.21601 -11.21512 -11.21459
 Alpha  occ. eigenvalues --  -11.21423 -11.21393 -11.21346 -11.21116 -11.21095
 Alpha  occ. eigenvalues --  -11.21076 -11.21024  -1.08486  -1.08420  -1.03570
 Alpha  occ. eigenvalues --   -1.03508  -0.96012  -0.95971  -0.87032  -0.86985
 Alpha  occ. eigenvalues --   -0.79701  -0.79529  -0.78392  -0.78140  -0.65201
 Alpha  occ. eigenvalues --   -0.64976  -0.61003  -0.60879  -0.59426  -0.59295
 Alpha  occ. eigenvalues --   -0.57627  -0.57575  -0.55301  -0.55260  -0.52713
 Alpha  occ. eigenvalues --   -0.52657  -0.52441  -0.52393  -0.49964  -0.49916
 Alpha  occ. eigenvalues --   -0.48130  -0.47798  -0.46828  -0.46573  -0.46121
 Alpha  occ. eigenvalues --   -0.45786  -0.45753  -0.45163  -0.43820  -0.43771
 Alpha virt. eigenvalues --    0.20476   0.23477   0.23862   0.24178   0.25026
 Alpha virt. eigenvalues --    0.26653   0.27035   0.27876   0.28133   0.29754
 Alpha virt. eigenvalues --    0.31073   0.31343   0.31606   0.31947   0.31985

 Mulliken charges:
               1
     1  C   -0.300146
     2  C   -0.299667
     3  C   -0.475695
     4  H    0.150226
     5  H    0.149777
     6  H    0.152357
     7  H    0.151973
     8  H    0.154786
     9  H    0.155425
    10  H    0.160504
    11  C   -0.298126
    12  C   -0.305445
    13  C   -0.475168
    14  H    0.149756
    15  H    0.149371
    16  H    0.151943
    17  H    0.158071
    18  H    0.155080
    19  H    0.155049
    20  H    0.160587
    21  C   -0.299108
    22  C   -0.299594
    23  C   -0.475681
    24  H    0.149904
    25  H    0.148483
    26  H    0.152296
    27  H    0.151853
    28  H    0.154893
    29  H    0.155303
    30  H    0.160373
    31  C   -0.297795
    32  C   -0.309084
    33  C   -0.475054
    34  H    0.149514
    35  H    0.149169
    36  H    0.151119
    37  H    0.162888
    38  H    0.155194
    39  H    0.154731
    40  H    0.159939
 Sum of Mulliken charges =  -0.00000

 Dipole moment (field-independent basis, Debye):
    X=              0.0258    Y=              0.0100    Z=             -0.0015  Tot=              0.0277
 Quadrupole moment (field-independent basis, Debye-Ang):
   XX=            -83.7301   YY=            -85.7213   ZZ=            -85.2862
   XY=             -0.3043   XZ=             -0.0620   YZ=              0.9661

 Normal termination of Gaussian 16 at Thu May  6 03:52:38 2021.
