 Gaussian 16, Revision A.03,
 Gaussian 16:  EM64L-G16RevA.03 25-Dec-2016

 -------------
 #p 6-31g* mp2
 -------------

 ------------------------------------------------------
 Input file generated by CHIRIPA (05-May-2021 14:55:21)
 ------------------------------------------------------
 Symbolic Z-matrix:
 Charge =  0 Multiplicity = 1

                         Standard orientation:
 ---------------------------------------------------------------------
 Center     Atomic      Atomic             Coordinates (Angstroms)
 Number     Number       Type             X           Y           Z
 ---------------------------------------------------------------------
      1          6           0       -2.848915    2.643640    0.381111
      2          6           0       -3.417401    2.188650   -0.813179
      3          6           0       -3.516057    0.819076   -1.076017
      4          6           0       -3.033950   -0.071645   -0.118166
      5          6           0       -2.462368    0.350627    1.081113
      6          6           0       -2.374050    1.724797    1.322785
      7          1           0       -2.776292    3.709343    0.577068
      8          1           0       -3.787018    2.899947   -1.546312
      9          1           0       -3.951584    0.439443   -1.992321
     10          1           0       -2.102674   -0.382546    1.792799
     11          1           0       -1.932077    2.075277    2.251154
     12          7           0       -3.132921   -1.523984   -0.385216
     13          8           0       -2.700789   -2.288350    0.474809
     14          8           0       -3.640752   -1.870461   -1.449499
     15          6           0        4.603849   -0.106551    0.244101
     16          6           0        5.386104    0.453706   -0.944248
     17          6           0        6.867573    0.664559   -0.630266
     18          1           0        4.705480    0.577968    1.097360
     19          1           0        5.053454   -1.060320    0.553254
     20          1           0        4.934310    1.405453   -1.251946
     21          1           0        5.282441   -0.232130   -1.794835
     22          1           0        7.339147   -0.281172   -0.344239
     23          1           0        6.989038    1.365714    0.201735
     24          1           0        7.407793    1.065587   -1.493516
     25          6           0        3.121305   -0.322807   -0.054271
     26          6           0        2.339050   -0.883065    1.134079
     27          6           0        0.857582   -1.093918    0.820098
     28          1           0        2.671700    0.630961   -0.363424
     29          1           0        3.019674   -1.007325   -0.907529
     30          1           0        2.442714   -0.197229    1.984666
     31          1           0        2.790844   -1.834811    1.441776
     32          1           0        0.736116   -1.795073   -0.011905
     33          1           0        0.386008   -0.148186    0.534069
     34          1           0        0.317361   -1.494945    1.683347
 ---------------------------------------------------------------------

 SCF Done:  E(RHF) =  -669.535094708     A.U. after   15 cycles
 E2 =    -0.2092311715D+01 EUMP2 =    -0.67162740642281D+03

 The electronic state is 1-A.
 Alpha  occ. eigenvalues --  -20.60762 -20.60743 -15.85796 -11.31143 -11.27747
 Alpha  occ. eigenvalues --  -11.27713 -11.27500 -11.26746 -11.26736 -11.21612
 Alpha  occ. eigenvalues --  -11.21521 -11.21387 -11.21319 -11.21091 -11.20852
 Alpha  occ. eigenvalues --   -1.59819  -1.39373  -1.19344  -1.08735  -1.08400
 Alpha  occ. eigenvalues --   -1.04753  -1.03483  -0.95941  -0.95562  -0.86963
 Alpha  occ. eigenvalues --   -0.86131  -0.82404  -0.79561  -0.78219  -0.77438
 Alpha  occ. eigenvalues --   -0.72019  -0.71132  -0.70459  -0.65042  -0.64992
 Alpha  occ. eigenvalues --   -0.64751  -0.62116  -0.60882  -0.59291  -0.57546
 Alpha  occ. eigenvalues --   -0.55315  -0.55195  -0.53155  -0.52920  -0.52494
 Alpha  occ. eigenvalues --   -0.52300  -0.49846  -0.48776  -0.48771  -0.47866
 Alpha  occ. eigenvalues --   -0.46584  -0.45761  -0.45686  -0.44775  -0.43715
 Alpha  occ. eigenvalues --   -0.37321  -0.36296
 Alpha virt. eigenvalues --    0.05077   0.11286   0.16536   0.21189   0.22904
 Alpha virt. eigenvalues --    0.24234   0.26599   0.26694   0.27528   0.27787
 Alpha virt. eigenvalues --    0.28797   0.30118   0.31502   0.31594   0.31897

 Mulliken charges:
               1
     1  C   -0.170448
     2  C   -0.219120
     3  C   -0.170644
     4  C    0.157911
     5  C   -0.167222
     6  C   -0.221284
     7  H    0.225442
     8  H    0.223227
     9  H    0.275530
    10  H    0.278803
    11  H    0.223487
    12  N    0.488588
    13  O   -0.460242
    14  O   -0.460682
    15  C   -0.298051
    16  C   -0.299516
    17  C   -0.475633
    18  H    0.147947
    19  H    0.150549
    20  H    0.150576
    21  H    0.152994
    22  H    0.155816
    23  H    0.154340
    24  H    0.160112
    25  C   -0.298363
    26  C   -0.300010
    27  C   -0.481526
    28  H    0.147195
    29  H    0.151996
    30  H    0.146868
    31  H    0.154052
    32  H    0.164243
    33  H    0.151852
    34  H    0.161213
 Sum of Mulliken charges =  -0.00000

 Dipole moment (field-independent basis, Debye):
    X=              0.3025    Y=              5.0272    Z=              0.9103  Tot=              5.1179
 Quadrupole moment (field-independent basis, Debye-Ang):
   XX=            -98.0010   YY=            -94.9385   ZZ=            -91.2597
   XY=            -16.7320   XZ=             -0.9744   YZ=             -1.3448

 Normal termination of Gaussian 16 at Wed May  5 20:34:58 2021.
