 Gaussian 16, Revision A.03,
 Gaussian 16:  EM64L-G16RevA.03 25-Dec-2016

 -------------
 #p 6-31g* mp2
 -------------

 ------------------------------------------------------
 Input file generated by CHIRIPA (05-May-2021 14:57:21)
 ------------------------------------------------------
 Symbolic Z-matrix:
 Charge =  0 Multiplicity = 1

                         Standard orientation:
 ---------------------------------------------------------------------
 Center     Atomic      Atomic             Coordinates (Angstroms)
 Number     Number       Type             X           Y           Z
 ---------------------------------------------------------------------
      1          6           0        2.649461    2.252724    1.227558
      2          6           0        1.689139    1.505205    0.537981
      3          6           0        2.046784    0.325420   -0.121372
      4          6           0        3.379791   -0.079281   -0.070386
      5          6           0        4.359642    0.643673    0.608229
      6          6           0        3.979303    1.820335    1.260423
      7          1           0        2.362819    3.167996    1.736978
      8          1           0        0.655621    1.838590    0.510770
      9          1           0        1.323681   -0.272536   -0.662656
     10          1           0        5.382057    0.285903    0.617577
     11          1           0        4.727235    2.398851    1.795178
     12          7           0        3.770426   -1.326613   -0.764624
     13          8           0        4.951432   -1.661682   -0.704696
     14          8           0        2.888204   -1.945585   -1.355550
     15          6           0       -3.450256    2.082671   -1.255732
     16          6           0       -4.574978    1.576306   -0.596098
     17          6           0       -4.511777    0.353406    0.078492
     18          6           0       -3.302373   -0.339849    0.073110
     19          6           0       -2.164479    0.138320   -0.574842
     20          6           0       -2.250711    1.363330   -1.243020
     21          1           0       -3.508299    3.033468   -1.777279
     22          1           0       -5.507880    2.132787   -0.604301
     23          1           0       -5.367229   -0.061842    0.597327
     24          1           0       -1.248421   -0.439253   -0.549078
     25          1           0       -1.375637    1.754144   -1.754445
     26          7           0       -3.223273   -1.635594    0.783874
     27          8           0       -2.146048   -2.227066    0.764285
     28          8           0       -4.239999   -2.035194    1.347102
 ---------------------------------------------------------------------

 SCF Done:  E(RHF) =  -868.336519867     A.U. after   16 cycles
 E2 =    -0.2600783378D+01 EUMP2 =    -0.87093730324503D+03

 The electronic state is 1-A.
 Alpha  occ. eigenvalues --  -20.61117 -20.61101 -20.60858 -20.60845 -15.86172
 Alpha  occ. eigenvalues --  -15.85912 -11.31755 -11.31424 -11.28438 -11.28310
 Alpha  occ. eigenvalues --  -11.28102 -11.28096 -11.27968 -11.27755 -11.27459
 Alpha  occ. eigenvalues --  -11.27343 -11.27083 -11.27005  -1.60185  -1.59925
 Alpha  occ. eigenvalues --   -1.39732  -1.39476  -1.19950  -1.19603  -1.09289
 Alpha  occ. eigenvalues --   -1.08963  -1.05406  -1.05039  -0.96094  -0.95782
 Alpha  occ. eigenvalues --   -0.86770  -0.86424  -0.82942  -0.82615  -0.77980
 Alpha  occ. eigenvalues --   -0.77625  -0.72382  -0.72129  -0.71515  -0.71248
 Alpha  occ. eigenvalues --   -0.71070  -0.70697  -0.65600  -0.65423  -0.65259
 Alpha  occ. eigenvalues --   -0.65025  -0.62907  -0.62239  -0.55857  -0.55512
 Alpha  occ. eigenvalues --   -0.53713  -0.53535  -0.53325  -0.53078  -0.49160
 Alpha  occ. eigenvalues --   -0.49130  -0.48898  -0.48877  -0.45090  -0.44849
 Alpha  occ. eigenvalues --   -0.37912  -0.37566  -0.37009  -0.36641
 Alpha virt. eigenvalues --    0.04564   0.04902   0.10635   0.11018   0.15870
 Alpha virt. eigenvalues --    0.16353   0.18554   0.22045   0.24468   0.26795
 Alpha virt. eigenvalues --    0.27775   0.29234   0.30407   0.31273   0.31498

 Mulliken charges:
               1
     1  C   -0.170613
     2  C   -0.222281
     3  C   -0.175632
     4  C    0.161111
     5  C   -0.169766
     6  C   -0.218041
     7  H    0.225978
     8  H    0.220996
     9  H    0.273865
    10  H    0.277110
    11  H    0.224606
    12  N    0.487895
    13  O   -0.459348
    14  O   -0.458329
    15  C   -0.170848
    16  C   -0.218419
    17  C   -0.169152
    18  C    0.160411
    19  C   -0.179410
    20  C   -0.225225
    21  H    0.227343
    22  H    0.225829
    23  H    0.278144
    24  H    0.279487
    25  H    0.222543
    26  N    0.487011
    27  O   -0.456560
    28  O   -0.458705
 Sum of Mulliken charges =  -0.00000

 Dipole moment (field-independent basis, Debye):
    X=             -1.7388    Y=              8.8730    Z=              0.0060  Tot=              9.0418
 Quadrupole moment (field-independent basis, Debye-Ang):
   XX=           -101.6229   YY=           -109.6594   ZZ=           -106.1423
   XY=              0.1070   XZ=             17.0869   YZ=              1.0661

 Normal termination of Gaussian 16 at Wed May  5 19:16:21 2021.
