 Gaussian 16, Revision A.03,
 Gaussian 16:  EM64L-G16RevA.03 25-Dec-2016

 -------------
 #p 6-31g* mp2
 -------------

 ------------------------------------------------------
 Input file generated by CHIRIPA (05-May-2021 14:55:20)
 ------------------------------------------------------
 Symbolic Z-matrix:
 Charge =  0 Multiplicity = 1

                         Standard orientation:
 ---------------------------------------------------------------------
 Center     Atomic      Atomic             Coordinates (Angstroms)
 Number     Number       Type             X           Y           Z
 ---------------------------------------------------------------------
      1          6           0        3.171204    2.536516   -0.421521
      2          6           0        2.799637    2.225806    0.890698
      3          6           0        2.579288    0.898607    1.270881
      4          6           0        2.740226   -0.097324    0.308846
      5          6           0        3.109566    0.180355   -1.006362
      6          6           0        3.324712    1.514601   -1.364201
      7          1           0        3.340355    3.570253   -0.708177
      8          1           0        2.679681    3.017383    1.624906
      9          1           0        2.290873    0.629927    2.279863
     10          1           0        3.221353   -0.630391   -1.716018
     11          1           0        3.613196    1.752953   -2.384009
     12          7           0        2.509706   -1.506099    0.699502
     13          8           0        2.658070   -2.365226   -0.166828
     14          8           0        2.185026   -1.724496    1.864629
     15          6           0       -4.100093    0.363525   -0.321472
     16          6           0       -5.219467    0.107798    0.688276
     17          6           0       -6.300211    1.188973    0.659185
     18          1           0       -3.646591    1.342913   -0.116339
     19          1           0       -4.532260    0.424238   -1.329906
     20          1           0       -4.785141    0.046207    1.694349
     21          1           0       -5.670228   -0.871179    0.480834
     22          1           0       -6.760530    1.246952   -0.332453
     23          1           0       -5.870413    2.169552    0.887957
     24          1           0       -7.090500    0.986376    1.388747
     25          6           0       -3.012146   -0.708766   -0.304350
     26          6           0       -1.892772   -0.453039   -1.314097
     27          6           0       -0.812026   -1.534213   -1.285007
     28          1           0       -2.579978   -0.769479    0.704085
     29          1           0       -3.465648   -1.688155   -0.509484
     30          1           0       -1.442010    0.525938   -1.106655
     31          1           0       -2.327097   -0.391449   -2.320171
     32          1           0       -1.241825   -2.514793   -1.513779
     33          1           0       -0.351709   -1.592194   -0.293369
     34          1           0       -0.021739   -1.331616   -2.014568
 ---------------------------------------------------------------------

 SCF Done:  E(RHF) =  -669.535726526     A.U. after   15 cycles
 E2 =    -0.2091860484D+01 EUMP2 =    -0.67162758701048D+03

 The electronic state is 1-A.
 Alpha  occ. eigenvalues --  -20.60816 -20.60804 -15.85842 -11.31220 -11.27791
 Alpha  occ. eigenvalues --  -11.27786 -11.27533 -11.26810 -11.26799 -11.21450
 Alpha  occ. eigenvalues --  -11.21313 -11.21220 -11.21084 -11.20983 -11.20583
 Alpha  occ. eigenvalues --   -1.59880  -1.39432  -1.19392  -1.08788  -1.08206
 Alpha  occ. eigenvalues --   -1.04798  -1.03289  -0.95725  -0.95622  -0.86734
 Alpha  occ. eigenvalues --   -0.86194  -0.82456  -0.79353  -0.78015  -0.77502
 Alpha  occ. eigenvalues --   -0.72071  -0.71216  -0.70502  -0.65047  -0.64840
 Alpha  occ. eigenvalues --   -0.64802  -0.62147  -0.60688  -0.59105  -0.57339
 Alpha  occ. eigenvalues --   -0.55301  -0.55010  -0.53126  -0.52893  -0.52410
 Alpha  occ. eigenvalues --   -0.52131  -0.49664  -0.48834  -0.48827  -0.47659
 Alpha  occ. eigenvalues --   -0.46399  -0.45553  -0.45485  -0.44831  -0.43524
 Alpha  occ. eigenvalues --   -0.37367  -0.36397
 Alpha virt. eigenvalues --    0.05017   0.11213   0.16511   0.21335   0.23035
 Alpha virt. eigenvalues --    0.24393   0.26846   0.27108   0.27687   0.27809
 Alpha virt. eigenvalues --    0.28529   0.30780   0.31296   0.31733   0.32050

 Mulliken charges:
               1
     1  C   -0.170763
     2  C   -0.218604
     3  C   -0.171679
     4  C    0.158579
     5  C   -0.170575
     6  C   -0.218756
     7  H    0.225719
     8  H    0.223474
     9  H    0.275518
    10  H    0.275824
    11  H    0.223608
    12  N    0.488646
    13  O   -0.457790
    14  O   -0.460960
    15  C   -0.297679
    16  C   -0.299581
    17  C   -0.475448
    18  H    0.147045
    19  H    0.148568
    20  H    0.152408
    21  H    0.152803
    22  H    0.154747
    23  H    0.153690
    24  H    0.160181
    25  C   -0.298521
    26  C   -0.300725
    27  C   -0.474708
    28  H    0.151950
    29  H    0.151013
    30  H    0.147888
    31  H    0.149553
    32  H    0.158634
    33  H    0.159465
    34  H    0.156472
 Sum of Mulliken charges =  -0.00000

 Dipole moment (field-independent basis, Debye):
    X=              0.8906    Y=              4.8758    Z=             -1.3591  Tot=              5.1395
 Quadrupole moment (field-independent basis, Debye-Ang):
   XX=            -91.5657   YY=            -95.8957   ZZ=            -90.9762
   XY=             14.4228   XZ=             -4.4203   YZ=              3.6101

 Normal termination of Gaussian 16 at Thu May  6 09:15:32 2021.
