 Gaussian 16, Revision A.03,
 Gaussian 16:  EM64L-G16RevA.03 25-Dec-2016

 -------------
 #p 6-31g* mp2
 -------------

 ------------------------------------------------------
 Input file generated by CHIRIPA (05-May-2021 14:55:25)
 ------------------------------------------------------
 Symbolic Z-matrix:
 Charge =  0 Multiplicity = 1

                         Standard orientation:
 ---------------------------------------------------------------------
 Center     Atomic      Atomic             Coordinates (Angstroms)
 Number     Number       Type             X           Y           Z
 ---------------------------------------------------------------------
      1          6           0       -0.688043   -0.734152    1.170649
      2          6           0       -0.756703   -0.508876   -0.208139
      3          6           0       -1.989209   -0.293262   -0.831828
      4          6           0       -3.138298   -0.309710   -0.042770
      5          6           0       -3.102551   -0.531399    1.333045
      6          6           0       -1.859121   -0.744677    1.935492
      7          1           0        0.273641   -0.900739    1.646895
      8          1           0        0.151136   -0.500151   -0.804626
      9          1           0       -2.071183   -0.116425   -1.897392
     10          1           0       -4.024766   -0.534286    1.901314
     11          1           0       -1.808820   -0.919375    3.006471
     12          7           0       -4.448880   -0.082686   -0.691797
     13          8           0       -5.446677   -0.102082    0.025601
     14          8           0       -4.453499    0.110353   -1.905614
     15          6           0        4.123385   -0.163635    0.177157
     16          6           0        5.047627   -0.789270   -0.867995
     17          6           0        5.806641   -2.004488   -0.334200
     18          1           0        4.717002    0.129160    1.053990
     19          1           0        3.407022   -0.921415    0.523550
     20          1           0        5.761147   -0.030157   -1.213324
     21          1           0        4.451770   -1.080435   -1.742519
     22          1           0        5.108349   -2.781714   -0.007231
     23          1           0        6.425165   -1.725469    0.524971
     24          1           0        6.461377   -2.436044   -1.097705
     25          6           0        3.357699    1.052277   -0.341504
     26          6           0        2.433458    1.677912    0.703648
     27          6           0        1.674444    2.893131    0.169853
     28          1           0        4.074063    1.810057   -0.687897
     29          1           0        2.764082    0.759483   -1.218337
     30          1           0        3.029315    1.969077    1.578172
     31          1           0        1.719938    0.918799    1.048977
     32          1           0        1.055919    2.614111   -0.689318
     33          1           0        2.372736    3.670357   -0.157116
     34          1           0        1.019708    3.324686    0.933358
 ---------------------------------------------------------------------

 SCF Done:  E(RHF) =  -669.534885120     A.U. after   15 cycles
 E2 =    -0.2092906707D+01 EUMP2 =    -0.67162779182762D+03

 The electronic state is 1-A.
 Alpha  occ. eigenvalues --  -20.60781 -20.60776 -15.85835 -11.31217 -11.27789
 Alpha  occ. eigenvalues --  -11.27785 -11.27519 -11.26809 -11.26795 -11.22519
 Alpha  occ. eigenvalues --  -11.22405 -11.22363 -11.22315 -11.21751 -11.21742
 Alpha  occ. eigenvalues --   -1.59856  -1.39409  -1.19394  -1.09352  -1.08785
 Alpha  occ. eigenvalues --   -1.04801  -1.04335  -0.96769  -0.95622  -0.87781
 Alpha  occ. eigenvalues --   -0.86198  -0.82455  -0.80414  -0.79176  -0.77493
 Alpha  occ. eigenvalues --   -0.72054  -0.71179  -0.70536  -0.66076  -0.65042
 Alpha  occ. eigenvalues --   -0.64754  -0.62192  -0.61670  -0.60139  -0.58385
 Alpha  occ. eigenvalues --   -0.56075  -0.55327  -0.53422  -0.53195  -0.53097
 Alpha  occ. eigenvalues --   -0.52887  -0.50715  -0.48815  -0.48809  -0.48707
 Alpha  occ. eigenvalues --   -0.47461  -0.46685  -0.46650  -0.44812  -0.44617
 Alpha  occ. eigenvalues --   -0.37337  -0.36392
 Alpha virt. eigenvalues --    0.05009   0.11156   0.16413   0.18419   0.22859
 Alpha virt. eigenvalues --    0.23520   0.24828   0.25289   0.27089   0.28230
 Alpha virt. eigenvalues --    0.29980   0.30187   0.31092   0.31554   0.31685

 Mulliken charges:
               1
     1  C   -0.172004
     2  C   -0.218557
     3  C   -0.171928
     4  C    0.158723
     5  C   -0.170778
     6  C   -0.219643
     7  H    0.227308
     8  H    0.226536
     9  H    0.275807
    10  H    0.275776
    11  H    0.223813
    12  N    0.488089
    13  O   -0.460313
    14  O   -0.460312
    15  C   -0.297835
    16  C   -0.299917
    17  C   -0.476145
    18  H    0.153013
    19  H    0.140574
    20  H    0.155121
    21  H    0.151463
    22  H    0.154361
    23  H    0.156530
    24  H    0.163182
    25  C   -0.300300
    26  C   -0.304811
    27  C   -0.474308
    28  H    0.155234
    29  H    0.144858
    30  H    0.154874
    31  H    0.145229
    32  H    0.154629
    33  H    0.157917
    34  H    0.163816
 Sum of Mulliken charges =  -0.00000

 Dipole moment (field-independent basis, Debye):
    X=              4.7406    Y=             -0.7174    Z=              2.2873  Tot=              5.3122
 Quadrupole moment (field-independent basis, Debye-Ang):
   XX=           -122.1737   YY=            -95.1698   ZZ=            -91.1048
   XY=              2.5188   XZ=             -9.7774   YZ=             -0.7580

 Normal termination of Gaussian 16 at Thu May  6 08:01:18 2021.
