 Gaussian 16, Revision A.03,
 Gaussian 16:  EM64L-G16RevA.03 25-Dec-2016

 -------------
 #p 6-31g* mp2
 -------------

 ------------------------------------------------------
 Input file generated by CHIRIPA (05-May-2021 14:53:15)
 ------------------------------------------------------
 Symbolic Z-matrix:
 Charge =  0 Multiplicity = 1

                         Standard orientation:
 ---------------------------------------------------------------------
 Center     Atomic      Atomic             Coordinates (Angstroms)
 Number     Number       Type             X           Y           Z
 ---------------------------------------------------------------------
      1          6           0       -2.726033    1.036773    0.088827
      2          6           0       -3.233772    2.373529   -0.452718
      3          6           0       -2.352532    3.552305   -0.038354
      4          1           0       -2.672564    1.088958    1.184894
      5          1           0       -1.699582    0.871168   -0.266655
      6          1           0       -4.259459    2.535914   -0.097453
      7          1           0       -3.286220    2.318091   -1.547612
      8          1           0       -1.330227    3.416971   -0.406021
      9          1           0       -2.308996    3.636031    1.052377
     10          1           0       -2.733772    4.497923   -0.436252
     11          6           0       -3.596532   -0.151212   -0.316945
     12          6           0       -3.088793   -1.487968    0.224600
     13          6           0       -3.970033   -2.666744   -0.189764
     14          1           0       -4.622983    0.014393    0.038537
     15          1           0       -3.650000   -0.203396   -1.413012
     16          1           0       -3.036345   -1.432530    1.319493
     17          1           0       -2.063106   -1.650352   -0.130665
     18          1           0       -4.013569   -2.750470   -1.280496
     19          1           0       -4.992338   -2.531410    0.177902
     20          1           0       -3.588793   -3.612362    0.208133
     21          6           0        0.685599   -2.111199    0.347022
     22          6           0        0.487602   -0.832845    0.879121
     23          6           0        1.469307    0.153082    0.742197
     24          6           0        2.642237   -0.175262    0.064175
     25          6           0        2.869023   -1.439741   -0.477075
     26          6           0        1.873583   -2.410040   -0.328187
     27          1           0       -0.082349   -2.871021    0.458035
     28          1           0       -0.434015   -0.597930    1.403988
     29          1           0        1.342068    1.150839    1.144330
     30          1           0        3.798151   -1.644092   -0.995128
     31          1           0        2.030081   -3.401977   -0.742449
     32          7           0        3.688795    0.860223   -0.087114
     33          8           0        4.713354    0.545772   -0.688808
     34          8           0        3.464711    1.966680    0.398866
 ---------------------------------------------------------------------

 SCF Done:  E(RHF) =  -669.533523542     A.U. after   15 cycles
 E2 =    -0.2094747998D+01 EUMP2 =    -0.67162827153964D+03

 The electronic state is 1-A.
 Alpha  occ. eigenvalues --  -20.60754 -20.60749 -15.85805 -11.31175 -11.27729
 Alpha  occ. eigenvalues --  -11.27696 -11.27418 -11.26758 -11.26630 -11.22681
 Alpha  occ. eigenvalues --  -11.22229 -11.22157 -11.22097 -11.22041 -11.21438
 Alpha  occ. eigenvalues --   -1.59829  -1.39383  -1.19339  -1.09277  -1.08723
 Alpha  occ. eigenvalues --   -1.04734  -1.04300  -0.96720  -0.95573  -0.87740
 Alpha  occ. eigenvalues --   -0.86148  -0.82403  -0.80435  -0.79149  -0.77403
 Alpha  occ. eigenvalues --   -0.72023  -0.71153  -0.70460  -0.65903  -0.64987
 Alpha  occ. eigenvalues --   -0.64714  -0.62083  -0.61682  -0.60119  -0.58363
 Alpha  occ. eigenvalues --   -0.55990  -0.55214  -0.53461  -0.53174  -0.53077
 Alpha  occ. eigenvalues --   -0.52778  -0.50654  -0.48811  -0.48781  -0.48680
 Alpha  occ. eigenvalues --   -0.47438  -0.46557  -0.46475  -0.44787  -0.44548
 Alpha  occ. eigenvalues --   -0.37268  -0.36276
 Alpha virt. eigenvalues --    0.05020   0.11201   0.16388   0.20538   0.22582
 Alpha virt. eigenvalues --    0.23149   0.24471   0.26344   0.26748   0.28237
 Alpha virt. eigenvalues --    0.29490   0.30716   0.30948   0.31402   0.31842

 Mulliken charges:
               1
     1  C   -0.308759
     2  C   -0.299479
     3  C   -0.477649
     4  H    0.144057
     5  H    0.155274
     6  H    0.153159
     7  H    0.154720
     8  H    0.158408
     9  H    0.154269
    10  H    0.163948
    11  C   -0.294971
    12  C   -0.313845
    13  C   -0.475412
    14  H    0.152508
    15  H    0.153563
    16  H    0.147581
    17  H    0.153984
    18  H    0.158806
    19  H    0.159770
    20  H    0.156825
    21  C   -0.176293
    22  C   -0.218725
    23  C   -0.175300
    24  C    0.158847
    25  C   -0.171508
    26  C   -0.219321
    27  H    0.228313
    28  H    0.234962
    29  H    0.276264
    30  H    0.275416
    31  H    0.223379
    32  N    0.488021
    33  O   -0.460516
    34  O   -0.460296
 Sum of Mulliken charges =  -0.00000

 Dipole moment (field-independent basis, Debye):
    X=             -3.8107    Y=             -3.5616    Z=              0.4353  Tot=              5.2341
 Quadrupole moment (field-independent basis, Debye-Ang):
   XX=           -112.6624   YY=            -92.3423   ZZ=            -93.4284
   XY=            -11.9285   XZ=             -0.7174   YZ=              1.4199

 Normal termination of Gaussian 16 at Thu May  6 10:34:21 2021.
