 Gaussian 16, Revision A.03,
 Gaussian 16:  EM64L-G16RevA.03 25-Dec-2016

 -------------
 #p 6-31g* mp2
 -------------

 ------------------------------------------------------
 Input file generated by CHIRIPA (05-May-2021 14:53:12)
 ------------------------------------------------------
 Symbolic Z-matrix:
 Charge =  0 Multiplicity = 1

                         Standard orientation:
 ---------------------------------------------------------------------
 Center     Atomic      Atomic             Coordinates (Angstroms)
 Number     Number       Type             X           Y           Z
 ---------------------------------------------------------------------
      1          6           0       -4.145790   -0.603716   -0.131481
      2          6           0       -3.395971   -0.963275    1.151669
      3          6           0       -2.031974   -1.598891    0.880934
      4          1           0       -4.276005   -1.509950   -0.738711
      5          1           0       -3.530665    0.085493   -0.726466
      6          1           0       -4.012920   -1.650514    1.744706
      7          1           0       -3.267694   -0.056114    1.756003
      8          1           0       -1.395080   -0.915611    0.309886
      9          1           0       -2.144540   -2.519070    0.298524
     10          1           0       -1.513222   -1.847953    1.811915
     11          6           0       -5.511123    0.032641    0.122772
     12          6           0       -6.260942    0.392200   -1.160378
     13          6           0       -7.624939    1.027817   -0.889643
     14          1           0       -6.126248   -0.656568    0.717756
     15          1           0       -5.380907    0.938876    0.730002
     16          1           0       -6.389218   -0.514961   -1.764712
     17          1           0       -5.643993    1.079439   -1.753415
     18          1           0       -7.512373    1.947996   -0.307234
     19          1           0       -8.261833    0.344537   -0.318595
     20          1           0       -8.143690    1.276879   -1.820624
     21          6           0        1.662736    1.129489    1.049521
     22          6           0        1.757384   -0.228739    0.728928
     23          6           0        2.921363   -0.741936    0.148988
     24          6           0        3.976170    0.135447   -0.097732
     25          6           0        3.912301    1.493505    0.210308
     26          6           0        2.738599    1.984768    0.789646
     27          1           0        0.754752    1.519633    1.499798
     28          1           0        0.923436   -0.895295    0.929622
     29          1           0        3.021490   -1.789175   -0.109240
     30          1           0        4.760290    2.133357   -0.001643
     31          1           0        2.667909    3.040032    1.037570
     32          7           0        5.213569   -0.396241   -0.711371
     33          8           0        6.128782    0.397508   -0.918695
     34          8           0        5.244798   -1.596659   -0.973396
 ---------------------------------------------------------------------

 SCF Done:  E(RHF) =  -669.535471430     A.U. after   15 cycles
 E2 =    -0.2091059269D+01 EUMP2 =    -0.67162653069940D+03

 The electronic state is 1-A.
 Alpha  occ. eigenvalues --  -20.60713 -20.60708 -15.85764 -11.31120 -11.27691
 Alpha  occ. eigenvalues --  -11.27665 -11.27424 -11.26711 -11.26612 -11.22544
 Alpha  occ. eigenvalues --  -11.22278 -11.22123 -11.22092 -11.21969 -11.21486
 Alpha  occ. eigenvalues --   -1.59788  -1.39342  -1.19287  -1.09141  -1.08686
 Alpha  occ. eigenvalues --   -1.04686  -1.04277  -0.96751  -0.95524  -0.87786
 Alpha  occ. eigenvalues --   -0.86081  -0.82353  -0.80357  -0.78909  -0.77400
 Alpha  occ. eigenvalues --   -0.71984  -0.71111  -0.70402  -0.65785  -0.64937
 Alpha  occ. eigenvalues --   -0.64706  -0.62106  -0.61612  -0.60135  -0.58327
 Alpha  occ. eigenvalues --   -0.56046  -0.55191  -0.53524  -0.53195  -0.53007
 Alpha  occ. eigenvalues --   -0.52693  -0.50657  -0.48748  -0.48740  -0.48645
 Alpha  occ. eigenvalues --   -0.47359  -0.46460  -0.46359  -0.44750  -0.44516
 Alpha  occ. eigenvalues --   -0.37273  -0.36285
 Alpha virt. eigenvalues --    0.05126   0.11284   0.16617   0.20512   0.22390
 Alpha virt. eigenvalues --    0.23771   0.25840   0.26039   0.26864   0.27967
 Alpha virt. eigenvalues --    0.29010   0.29772   0.30878   0.31155   0.32060

 Mulliken charges:
               1
     1  C   -0.299348
     2  C   -0.298929
     3  C   -0.485120
     4  H    0.152213
     5  H    0.149663
     6  H    0.156153
     7  H    0.150003
     8  H    0.152261
     9  H    0.162184
    10  H    0.158396
    11  C   -0.298768
    12  C   -0.300167
    13  C   -0.476047
    14  H    0.150994
    15  H    0.149200
    16  H    0.153278
    17  H    0.152284
    18  H    0.155180
    19  H    0.155974
    20  H    0.161883
    21  C   -0.173644
    22  C   -0.225896
    23  C   -0.172742
    24  C    0.158906
    25  C   -0.171422
    26  C   -0.218363
    27  H    0.225139
    28  H    0.235795
    29  H    0.275866
    30  H    0.275295
    31  H    0.222935
    32  N    0.488032
    33  O   -0.460718
    34  O   -0.460467
 Sum of Mulliken charges =  -0.00000

 Dipole moment (field-independent basis, Debye):
    X=             -4.6114    Y=              1.8257    Z=              2.1354  Tot=              5.3999
 Quadrupole moment (field-independent basis, Debye-Ang):
   XX=           -129.2462   YY=            -89.4013   ZZ=            -96.0757
   XY=             10.0556   XZ=              9.2340   YZ=              0.2640

 Normal termination of Gaussian 16 at Thu May  6 16:59:39 2021.
