 Gaussian 16, Revision A.03,
 Gaussian 16:  EM64L-G16RevA.03 25-Dec-2016

 -------------
 #p 6-31g* mp2
 -------------

 ------------------------------------------------------
 Input file generated by CHIRIPA (05-May-2021 14:55:25)
 ------------------------------------------------------
 Symbolic Z-matrix:
 Charge =  0 Multiplicity = 1

                         Standard orientation:
 ---------------------------------------------------------------------
 Center     Atomic      Atomic             Coordinates (Angstroms)
 Number     Number       Type             X           Y           Z
 ---------------------------------------------------------------------
      1          6           0       -1.773708    1.621119    1.792280
      2          6           0       -1.456423    1.635175    0.430056
      3          6           0       -2.025442    0.701504   -0.441164
      4          6           0       -2.911811   -0.236347    0.086165
      5          6           0       -3.247843   -0.276009    1.438496
      6          6           0       -2.666830    0.667254    2.291273
      7          1           0       -1.327022    2.350143    2.461901
      8          1           0       -0.763133    2.374802    0.039742
      9          1           0       -1.797382    0.689746   -1.500063
     10          1           0       -3.942332   -1.025497    1.798178
     11          1           0       -2.915080    0.653965    3.348742
     12          7           0       -3.520554   -1.229860   -0.826394
     13          8           0       -4.298591   -2.045816   -0.336993
     14          8           0       -3.208125   -1.173808   -2.013779
     15          6           0        4.142244   -0.052278    0.213823
     16          6           0        4.686254   -1.479205    0.136896
     17          6           0        5.772907   -1.754439    1.176716
     18          1           0        4.970203    0.656843    0.077523
     19          1           0        3.740768    0.125828    1.221041
     20          1           0        5.085332   -1.655020   -0.870299
     21          1           0        3.856873   -2.185012    0.273203
     22          1           0        5.383592   -1.606439    2.189203
     23          1           0        6.619031   -1.073435    1.039204
     24          1           0        6.147661   -2.780167    1.103906
     25          6           0        3.055152    0.238144   -0.819431
     26          6           0        2.511142    1.665072   -0.742504
     27          6           0        1.424489    1.940306   -1.782324
     28          1           0        3.456628    0.060039   -1.826649
     29          1           0        2.227193   -0.470976   -0.683131
     30          1           0        3.340523    2.370879   -0.878811
     31          1           0        2.112064    1.840887    0.264692
     32          1           0        0.578364    1.259303   -1.644812
     33          1           0        1.813804    1.792306   -2.794811
     34          1           0        1.049735    2.966035   -1.709515
 ---------------------------------------------------------------------

 SCF Done:  E(RHF) =  -669.534277603     A.U. after   15 cycles
 E2 =    -0.2092875722D+01 EUMP2 =    -0.67162715332489D+03

 The electronic state is 1-A.
 Alpha  occ. eigenvalues --  -20.60764 -20.60759 -15.85816 -11.31187 -11.27748
 Alpha  occ. eigenvalues --  -11.27721 -11.27472 -11.26772 -11.26676 -11.22363
 Alpha  occ. eigenvalues --  -11.22004 -11.21873 -11.21855 -11.21754 -11.21304
 Alpha  occ. eigenvalues --   -1.59839  -1.39392  -1.19354  -1.08921  -1.08742
 Alpha  occ. eigenvalues --   -1.04777  -1.04058  -0.96538  -0.95583  -0.87568
 Alpha  occ. eigenvalues --   -0.86146  -0.82422  -0.80145  -0.78685  -0.77466
 Alpha  occ. eigenvalues --   -0.72034  -0.71163  -0.70470  -0.65609  -0.65003
 Alpha  occ. eigenvalues --   -0.64754  -0.62349  -0.61247  -0.59921  -0.58122
 Alpha  occ. eigenvalues --   -0.55839  -0.55204  -0.53286  -0.53139  -0.52957
 Alpha  occ. eigenvalues --   -0.52689  -0.50444  -0.48793  -0.48788  -0.48444
 Alpha  occ. eigenvalues --   -0.47160  -0.46236  -0.46133  -0.44796  -0.44302
 Alpha  occ. eigenvalues --   -0.37333  -0.36326
 Alpha virt. eigenvalues --    0.05031   0.11229   0.16436   0.20414   0.22752
 Alpha virt. eigenvalues --    0.23974   0.25797   0.26230   0.26598   0.27966
 Alpha virt. eigenvalues --    0.29036   0.30334   0.31298   0.31427   0.31917

 Mulliken charges:
               1
     1  C   -0.173018
     2  C   -0.220372
     3  C   -0.177365
     4  C    0.158570
     5  C   -0.171533
     6  C   -0.218285
     7  H    0.225620
     8  H    0.234059
     9  H    0.277380
    10  H    0.275512
    11  H    0.223318
    12  N    0.488399
    13  O   -0.460473
    14  O   -0.460431
    15  C   -0.298564
    16  C   -0.300377
    17  C   -0.475939
    18  H    0.149849
    19  H    0.148335
    20  H    0.153349
    21  H    0.153955
    22  H    0.154636
    23  H    0.155177
    24  H    0.161903
    25  C   -0.299467
    26  C   -0.299473
    27  C   -0.487921
    28  H    0.152416
    29  H    0.153570
    30  H    0.155051
    31  H    0.146957
    32  H    0.155801
    33  H    0.164549
    34  H    0.154813
 Sum of Mulliken charges =  -0.00000

 Dipole moment (field-independent basis, Debye):
    X=              2.2830    Y=              3.4321    Z=              3.1796  Tot=              5.2059
 Quadrupole moment (field-independent basis, Debye-Ang):
   XX=           -106.3428   YY=            -96.3870   ZZ=            -91.4297
   XY=             -9.2435   XZ=            -12.6970   YZ=             -2.1350

 Normal termination of Gaussian 16 at Thu May  6 17:44:15 2021.
