 Gaussian 16, Revision A.03,
 Gaussian 16:  EM64L-G16RevA.03 25-Dec-2016

 -------------
 #p 6-31g* mp2
 -------------

 ------------------------------------------------------
 Input file generated by CHIRIPA (05-May-2021 14:55:21)
 ------------------------------------------------------
 Symbolic Z-matrix:
 Charge =  0 Multiplicity = 1

                         Standard orientation:
 ---------------------------------------------------------------------
 Center     Atomic      Atomic             Coordinates (Angstroms)
 Number     Number       Type             X           Y           Z
 ---------------------------------------------------------------------
      1          6           0       -3.309758    1.799796    1.056258
      2          6           0       -4.065490    0.628991    0.935398
      3          6           0       -3.534179   -0.496464    0.298524
      4          6           0       -2.238018   -0.415797   -0.208183
      5          6           0       -1.460105    0.736233   -0.103461
      6          6           0       -2.011766    1.849592    0.537357
      7          1           0       -3.730398    2.669378    1.552529
      8          1           0       -5.073799    0.587446    1.337432
      9          1           0       -4.097216   -1.415631    0.191110
     10          1           0       -0.457836    0.747384   -0.514253
     11          1           0       -1.422547    2.757516    0.629767
     12          7           0       -1.664771   -1.600863   -0.884501
     13          8           0       -0.520435   -1.504246   -1.322446
     14          8           0       -2.370651   -2.603896   -0.963848
     15          6           0        3.474328   -0.267851    0.328725
     16          6           0        2.786070   -1.577494    0.714888
     17          6           0        3.776985   -2.668264    1.122447
     18          1           0        4.172914   -0.457932   -0.497587
     19          1           0        4.080013    0.083520    1.175530
     20          1           0        2.180768   -1.925570   -0.131910
     21          1           0        2.088900   -1.384237    1.540250
     22          1           0        4.373026   -2.345547    1.982209
     23          1           0        4.465415   -2.889958    0.300549
     24          1           0        3.263582   -3.595767    1.394505
     25          6           0        2.496863    0.832290   -0.081129
     26          6           0        3.185121    2.141933   -0.467292
     27          6           0        2.194206    3.232703   -0.874850
     28          1           0        1.891178    0.480919   -0.927934
     29          1           0        1.798277    1.022371    0.745184
     30          1           0        3.882290    1.948676   -1.292654
     31          1           0        3.790424    2.490010    0.379506
     32          1           0        1.505776    3.454397   -0.052952
     33          1           0        1.598166    2.909987   -1.734613
     34          1           0        2.707608    4.160207   -1.146909
 ---------------------------------------------------------------------

 SCF Done:  E(RHF) =  -669.535931785     A.U. after   15 cycles
 E2 =    -0.2093423526D+01 EUMP2 =    -0.67162935531122D+03

 The electronic state is 1-A.
 Alpha  occ. eigenvalues --  -20.60854 -20.60849 -15.85882 -11.31138 -11.27730
 Alpha  occ. eigenvalues --  -11.27620 -11.27463 -11.26728 -11.26691 -11.21811
 Alpha  occ. eigenvalues --  -11.21621 -11.21438 -11.21108 -11.20864 -11.20495
 Alpha  occ. eigenvalues --   -1.59911  -1.39469  -1.19317  -1.08737  -1.08322
 Alpha  occ. eigenvalues --   -1.04704  -1.03388  -0.95909  -0.95584  -0.86932
 Alpha  occ. eigenvalues --   -0.86110  -0.82424  -0.79523  -0.78168  -0.77376
 Alpha  occ. eigenvalues --   -0.72110  -0.71218  -0.70432  -0.65033  -0.64894
 Alpha  occ. eigenvalues --   -0.64702  -0.62069  -0.60771  -0.59315  -0.57483
 Alpha  occ. eigenvalues --   -0.55244  -0.55201  -0.53051  -0.52889  -0.52559
 Alpha  occ. eigenvalues --   -0.52268  -0.49874  -0.48878  -0.48862  -0.47792
 Alpha  occ. eigenvalues --   -0.46535  -0.45642  -0.45470  -0.44741  -0.43639
 Alpha  occ. eigenvalues --   -0.37308  -0.36299
 Alpha virt. eigenvalues --    0.05008   0.11324   0.16472   0.19967   0.23229
 Alpha virt. eigenvalues --    0.24029   0.25395   0.26404   0.27476   0.28432
 Alpha virt. eigenvalues --    0.29668   0.30437   0.31726   0.31892   0.32690

 Mulliken charges:
               1
     1  C   -0.170174
     2  C   -0.219351
     3  C   -0.169803
     4  C    0.154645
     5  C   -0.175189
     6  C   -0.225745
     7  H    0.225518
     8  H    0.223163
     9  H    0.275239
    10  H    0.290788
    11  H    0.225685
    12  N    0.489561
    13  O   -0.464498
    14  O   -0.459432
    15  C   -0.296208
    16  C   -0.308286
    17  C   -0.475782
    18  H    0.151007
    19  H    0.146582
    20  H    0.177533
    21  H    0.146171
    22  H    0.150695
    23  H    0.154823
    24  H    0.162138
    25  C   -0.312670
    26  C   -0.297827
    27  C   -0.479559
    28  H    0.164372
    29  H    0.142538
    30  H    0.155925
    31  H    0.152548
    32  H    0.145696
    33  H    0.155872
    34  H    0.164026
 Sum of Mulliken charges =  -0.00000

 Dipole moment (field-independent basis, Debye):
    X=             -1.9801    Y=              4.0250    Z=              2.2333  Tot=              5.0109
 Quadrupole moment (field-independent basis, Debye-Ang):
   XX=            -82.6014   YY=            -98.2074   ZZ=            -95.7005
   XY=             -5.6975   XZ=             -6.5652   YZ=             -1.6441

 Normal termination of Gaussian 16 at Wed May  5 18:59:31 2021.
