 Gaussian 16, Revision A.03,
 Gaussian 16:  EM64L-G16RevA.03 25-Dec-2016

 -------------
 #p 6-31g* mp2
 -------------

 ------------------------------------------------------
 Input file generated by CHIRIPA (05-May-2021 14:55:25)
 ------------------------------------------------------
 Symbolic Z-matrix:
 Charge =  0 Multiplicity = 1

                         Standard orientation:
 ---------------------------------------------------------------------
 Center     Atomic      Atomic             Coordinates (Angstroms)
 Number     Number       Type             X           Y           Z
 ---------------------------------------------------------------------
      1          6           0       -0.541522   -0.856996   -0.320602
      2          6           0       -1.499530   -1.875514   -0.357537
      3          6           0       -2.856989   -1.579415   -0.202045
      4          6           0       -3.222796   -0.247943   -0.010582
      5          6           0       -2.292056    0.789017    0.030969
      6          6           0       -0.940140    0.469680   -0.126809
      7          1           0        0.510832   -1.096039   -0.442280
      8          1           0       -1.192857   -2.906722   -0.507890
      9          1           0       -3.619601   -2.348340   -0.226445
     10          1           0       -2.628312    1.807551    0.182426
     11          1           0       -0.198335    1.262725   -0.097685
     12          7           0       -4.656944    0.077824    0.155241
     13          8           0       -4.953428    1.258811    0.322589
     14          8           0       -5.457388   -0.853994    0.114724
     15          6           0        4.045321   -0.223437    0.451413
     16          6           0        4.810136   -1.253627   -0.380304
     17          6           0        5.248961   -2.467248    0.439665
     18          1           0        4.677689    0.106129    1.287141
     19          1           0        3.163548   -0.704129    0.897290
     20          1           0        5.689448   -0.770788   -0.825603
     21          1           0        4.175945   -1.580635   -1.214261
     22          1           0        4.380406   -2.974715    0.871744
     23          1           0        5.902509   -2.160266    1.262609
     24          1           0        5.793901   -3.190936   -0.174483
     25          6           0        3.599944    0.995619   -0.354360
     26          6           0        2.835128    2.025808    0.477356
     27          6           0        2.396304    3.239431   -0.342612
     28          1           0        4.481716    1.476310   -0.800238
     29          1           0        2.967575    0.666054   -1.190089
     30          1           0        3.469320    2.352818    1.311313
     31          1           0        1.955816    1.542969    0.922656
     32          1           0        1.742755    2.932447   -1.165557
     33          1           0        3.264858    3.746897   -0.774691
     34          1           0        1.851363    3.963117    0.271536
 ---------------------------------------------------------------------

 SCF Done:  E(RHF) =  -669.535364700     A.U. after   15 cycles
 E2 =    -0.2092174027D+01 EUMP2 =    -0.67162753872762D+03

 The electronic state is 1-A.
 Alpha  occ. eigenvalues --  -20.60748 -20.60743 -15.85801 -11.31171 -11.27742
 Alpha  occ. eigenvalues --  -11.27728 -11.27484 -11.26760 -11.26709 -11.22793
 Alpha  occ. eigenvalues --  -11.22562 -11.22542 -11.22447 -11.22185 -11.21886
 Alpha  occ. eigenvalues --   -1.59824  -1.39377  -1.19342  -1.09544  -1.08737
 Alpha  occ. eigenvalues --   -1.04754  -1.04578  -0.97020  -0.95573  -0.88025
 Alpha  occ. eigenvalues --   -0.86148  -0.82403  -0.80640  -0.79331  -0.77452
 Alpha  occ. eigenvalues --   -0.72020  -0.71147  -0.70467  -0.66292  -0.64991
 Alpha  occ. eigenvalues --   -0.64726  -0.62328  -0.61727  -0.60376  -0.58613
 Alpha  occ. eigenvalues --   -0.56373  -0.55203  -0.53682  -0.53420  -0.53076
 Alpha  occ. eigenvalues --   -0.52813  -0.50973  -0.48945  -0.48775  -0.48766
 Alpha  occ. eigenvalues --   -0.47698  -0.46851  -0.46820  -0.44838  -0.44782
 Alpha  occ. eigenvalues --   -0.37324  -0.36343
 Alpha virt. eigenvalues --    0.05078   0.11225   0.16545   0.17612   0.21994
 Alpha virt. eigenvalues --    0.23680   0.24985   0.26025   0.26414   0.28379
 Alpha virt. eigenvalues --    0.29773   0.30604   0.30838   0.31330   0.32533

 Mulliken charges:
               1
     1  C   -0.176469
     2  C   -0.218662
     3  C   -0.170973
     4  C    0.158913
     5  C   -0.172239
     6  C   -0.227205
     7  H    0.228872
     8  H    0.223410
     9  H    0.275537
    10  H    0.276115
    11  H    0.235564
    12  N    0.487998
    13  O   -0.460332
    14  O   -0.460509
    15  C   -0.300614
    16  C   -0.300273
    17  C   -0.475891
    18  H    0.154850
    19  H    0.145045
    20  H    0.155734
    21  H    0.148779
    22  H    0.153552
    23  H    0.158082
    24  H    0.163105
    25  C   -0.300101
    26  C   -0.306286
    27  C   -0.480303
    28  H    0.155558
    29  H    0.144804
    30  H    0.159345
    31  H    0.146313
    32  H    0.152320
    33  H    0.161996
    34  H    0.163968
 Sum of Mulliken charges =  -0.00000

 Dipole moment (field-independent basis, Debye):
    X=              5.3280    Y=             -1.0680    Z=             -0.5571  Tot=              5.4625
 Quadrupole moment (field-independent basis, Debye-Ang):
   XX=           -125.6875   YY=            -89.6957   ZZ=            -95.7577
   XY=              4.8025   XZ=              2.0998   YZ=              1.2531

 Normal termination of Gaussian 16 at Thu May  6 17:45:54 2021.
