 Gaussian 16, Revision A.03,
 Gaussian 16:  EM64L-G16RevA.03 25-Dec-2016

 -------------
 #p 6-31g* mp2
 -------------

 ------------------------------------------------------
 Input file generated by CHIRIPA (05-May-2021 14:53:18)
 ------------------------------------------------------
 Symbolic Z-matrix:
 Charge =  0 Multiplicity = 1

                         Standard orientation:
 ---------------------------------------------------------------------
 Center     Atomic      Atomic             Coordinates (Angstroms)
 Number     Number       Type             X           Y           Z
 ---------------------------------------------------------------------
      1          6           0       -3.867671   -0.186945    0.102742
      2          6           0       -4.371741   -1.192013   -0.933471
      3          6           0       -4.962923   -2.450526   -0.297513
      4          1           0       -3.110373   -0.670396    0.734976
      5          1           0       -4.697531    0.091861    0.766815
      6          1           0       -3.541508   -1.467789   -1.596251
      7          1           0       -5.127788   -0.706056   -1.563435
      8          1           0       -5.808578   -2.194612    0.348998
      9          1           0       -4.213285   -2.960673    0.315996
     10          1           0       -5.317066   -3.155328   -1.056259
     11          6           0       -3.273815    1.076463   -0.517632
     12          6           0       -2.769745    2.081530    0.518581
     13          6           0       -2.178563    3.340043   -0.117378
     14          1           0       -2.443955    0.797656   -1.181705
     15          1           0       -4.031113    1.559913   -1.149867
     16          1           0       -2.013698    1.595573    1.148545
     17          1           0       -3.599979    2.357306    1.181360
     18          1           0       -2.928201    3.850190   -0.730887
     19          1           0       -1.332908    3.084129   -0.763889
     20          1           0       -1.824420    4.044845    0.641369
     21          6           0        0.644485   -1.210022    1.172127
     22          6           0        1.555808   -2.101988    0.597315
     23          6           0        2.747540   -1.635270    0.034737
     24          6           0        2.997029   -0.264079    0.064418
     25          6           0        2.108931    0.649695    0.629738
     26          6           0        0.923463    0.160557    1.186479
     27          1           0       -0.278848   -1.581289    1.606884
     28          1           0        1.341782   -3.166921    0.584747
     29          1           0        3.470592   -2.303666   -0.416774
     30          1           0        2.350022    1.705766    0.627277
     31          1           0        0.217557    0.855590    1.632203
     32          7           0        4.255346    0.241883   -0.528069
     33          8           0        4.451726    1.454551   -0.489264
     34          8           0        5.021409   -0.583794   -1.020046
 ---------------------------------------------------------------------

 SCF Done:  E(RHF) =  -669.535495520     A.U. after   15 cycles
 E2 =    -0.2091776893D+01 EUMP2 =    -0.67162727241366D+03

 The electronic state is 1-A.
 Alpha  occ. eigenvalues --  -20.60782 -20.60777 -15.85836 -11.31215 -11.27785
 Alpha  occ. eigenvalues --  -11.27778 -11.27535 -11.26803 -11.26780 -11.22514
 Alpha  occ. eigenvalues --  -11.22303 -11.22228 -11.22117 -11.21781 -11.21755
 Alpha  occ. eigenvalues --   -1.59858  -1.39411  -1.19389  -1.09224  -1.08781
 Alpha  occ. eigenvalues --   -1.04793  -1.04294  -0.96723  -0.95614  -0.87735
 Alpha  occ. eigenvalues --   -0.86193  -0.82445  -0.80363  -0.79043  -0.77489
 Alpha  occ. eigenvalues --   -0.72054  -0.71181  -0.70499  -0.65913  -0.65039
 Alpha  occ. eigenvalues --   -0.64777  -0.62213  -0.61619  -0.60090  -0.58338
 Alpha  occ. eigenvalues --   -0.56021  -0.55284  -0.53408  -0.53145  -0.53119
 Alpha  occ. eigenvalues --   -0.52891  -0.50657  -0.48831  -0.48808  -0.48651
 Alpha  occ. eigenvalues --   -0.47393  -0.46593  -0.46483  -0.44813  -0.44548
 Alpha  occ. eigenvalues --   -0.37368  -0.36391
 Alpha virt. eigenvalues --    0.05033   0.11173   0.16475   0.18841   0.22705
 Alpha virt. eigenvalues --    0.23217   0.25033   0.26384   0.26529   0.27820
 Alpha virt. eigenvalues --    0.29351   0.30276   0.30981   0.31301   0.31843

 Mulliken charges:
               1
     1  C   -0.296978
     2  C   -0.300758
     3  C   -0.475240
     4  H    0.139791
     5  H    0.151771
     6  H    0.153341
     7  H    0.155092
     8  H    0.156808
     9  H    0.150803
    10  H    0.163006
    11  C   -0.299582
    12  C   -0.301558
    13  C   -0.477929
    14  H    0.153215
    15  H    0.153543
    16  H    0.140887
    17  H    0.155113
    18  H    0.159801
    19  H    0.157598
    20  H    0.160584
    21  C   -0.173707
    22  C   -0.218686
    23  C   -0.170931
    24  C    0.158804
    25  C   -0.172358
    26  C   -0.222677
    27  H    0.226811
    28  H    0.223615
    29  H    0.275728
    30  H    0.276249
    31  H    0.230441
    32  N    0.488005
    33  O   -0.460221
    34  O   -0.460379
 Sum of Mulliken charges =  -0.00000

 Dipole moment (field-independent basis, Debye):
    X=             -4.5772    Y=             -1.7247    Z=              1.9624  Tot=              5.2704
 Quadrupole moment (field-independent basis, Debye-Ang):
   XX=           -120.3293   YY=            -89.9606   ZZ=            -95.0894
   XY=             -6.6390   XZ=              6.1130   YZ=              0.8668

 Normal termination of Gaussian 16 at Wed May  5 17:18:02 2021.
