 Gaussian 16, Revision A.03,
 Gaussian 16:  EM64L-G16RevA.03 25-Dec-2016

 -------------
 #p 6-31g* mp2
 -------------

 ------------------------------------------------------
 Input file generated by CHIRIPA (05-May-2021 14:55:23)
 ------------------------------------------------------
 Symbolic Z-matrix:
 Charge =  0 Multiplicity = 1

                         Standard orientation:
 ---------------------------------------------------------------------
 Center     Atomic      Atomic             Coordinates (Angstroms)
 Number     Number       Type             X           Y           Z
 ---------------------------------------------------------------------
      1          6           0       -1.885417    1.653700    0.748381
      2          6           0       -3.110522    2.258194    0.448002
      3          6           0       -4.194790    1.488808    0.015619
      4          6           0       -4.018016    0.111380   -0.105761
      5          6           0       -2.810010   -0.520249    0.185884
      6          6           0       -1.739329    0.268849    0.616596
      7          1           0       -1.048409    2.259035    1.083618
      8          1           0       -3.226863    3.333471    0.549430
      9          1           0       -5.154339    1.930882   -0.223657
     10          1           0       -2.724464   -1.594413    0.075107
     11          1           0       -0.789062   -0.203323    0.849169
     12          7           0       -5.158690   -0.713569   -0.562621
     13          8           0       -4.977261   -1.925165   -0.661395
     14          8           0       -6.212580   -0.132948   -0.813284
     15          6           0        4.182134   -0.233865    0.279348
     16          6           0        3.491324   -1.561399    0.593067
     17          6           0        2.050972   -1.379419    1.072717
     18          1           0        4.170326    0.399429    1.176981
     19          1           0        3.604013    0.300077   -0.487513
     20          1           0        4.071326   -2.093305    1.358109
     21          1           0        3.504946   -2.191683   -0.305361
     22          1           0        1.452332   -0.870832    0.310109
     23          1           0        2.021930   -0.771895    1.983032
     24          1           0        1.576095   -2.340973    1.291270
     25          6           0        5.622715   -0.399329   -0.201357
     26          6           0        6.313525    0.928206   -0.515075
     27          6           0        7.753876    0.746225   -0.994726
     28          1           0        6.200836   -0.933270    0.565505
     29          1           0        5.634521   -1.032623   -1.098990
     30          1           0        6.299902    1.558489    0.383353
     31          1           0        5.733521    1.460111   -1.280117
     32          1           0        7.782918    0.138702   -1.905040
     33          1           0        8.352516    0.237638   -0.232118
     34          1           0        8.228753    1.707779   -1.213279
 ---------------------------------------------------------------------

 SCF Done:  E(RHF) =  -669.535645161     A.U. after   15 cycles
 E2 =    -0.2090797439D+01 EUMP2 =    -0.67162644260028D+03

 The electronic state is 1-A.
 Alpha  occ. eigenvalues --  -20.60705 -20.60699 -15.85756 -11.31106 -11.27677
 Alpha  occ. eigenvalues --  -11.27655 -11.27403 -11.26692 -11.26608 -11.22424
 Alpha  occ. eigenvalues --  -11.22222 -11.22104 -11.22089 -11.21926 -11.21468
 Alpha  occ. eigenvalues --   -1.59780  -1.39334  -1.19272  -1.09093  -1.08671
 Alpha  occ. eigenvalues --   -1.04671  -1.04225  -0.96705  -0.95510  -0.87738
 Alpha  occ. eigenvalues --   -0.86067  -0.82342  -0.80308  -0.78880  -0.77389
 Alpha  occ. eigenvalues --   -0.71975  -0.71103  -0.70384  -0.65722  -0.64922
 Alpha  occ. eigenvalues --   -0.64685  -0.62058  -0.61592  -0.60073  -0.58290
 Alpha  occ. eigenvalues --   -0.56007  -0.55174  -0.53441  -0.53217  -0.53004
 Alpha  occ. eigenvalues --   -0.52632  -0.50632  -0.48755  -0.48732  -0.48578
 Alpha  occ. eigenvalues --   -0.47310  -0.46428  -0.46327  -0.44743  -0.44463
 Alpha  occ. eigenvalues --   -0.37257  -0.36273
 Alpha virt. eigenvalues --    0.05137   0.11341   0.16618   0.20691   0.22300
 Alpha virt. eigenvalues --    0.23738   0.25460   0.26063   0.26986   0.28307
 Alpha virt. eigenvalues --    0.28790   0.30276   0.30814   0.31026   0.31894

 Mulliken charges:
               1
     1  C   -0.173346
     2  C   -0.218435
     3  C   -0.171432
     4  C    0.158881
     5  C   -0.173503
     6  C   -0.228362
     7  H    0.225667
     8  H    0.222952
     9  H    0.275233
    10  H    0.275653
    11  H    0.238996
    12  N    0.488074
    13  O   -0.460599
    14  O   -0.460779
    15  C   -0.299177
    16  C   -0.299539
    17  C   -0.483260
    18  H    0.148878
    19  H    0.148903
    20  H    0.155635
    21  H    0.155748
    22  H    0.149952
    23  H    0.154962
    24  H    0.164295
    25  C   -0.298877
    26  C   -0.300048
    27  C   -0.476066
    28  H    0.150954
    29  H    0.151426
    30  H    0.151710
    31  H    0.151988
    32  H    0.156234
    33  H    0.155971
    34  H    0.161312
 Sum of Mulliken charges =  -0.00000

 Dipole moment (field-independent basis, Debye):
    X=              4.2719    Y=              2.8564    Z=              1.6081  Tot=              5.3846
 Quadrupole moment (field-independent basis, Debye-Ang):
   XX=           -126.2008   YY=            -90.8067   ZZ=            -95.1383
   XY=            -14.1821   XZ=             -6.0414   YZ=             -0.3957

 Normal termination of Gaussian 16 at Thu May  6 20:49:18 2021.
