 Gaussian 16, Revision A.03,
 Gaussian 16:  EM64L-G16RevA.03 25-Dec-2016

 -------------
 #p 6-31g* mp2
 -------------

 ------------------------------------------------------
 Input file generated by CHIRIPA (05-May-2021 14:53:16)
 ------------------------------------------------------
 Symbolic Z-matrix:
 Charge =  0 Multiplicity = 1

                         Standard orientation:
 ---------------------------------------------------------------------
 Center     Atomic      Atomic             Coordinates (Angstroms)
 Number     Number       Type             X           Y           Z
 ---------------------------------------------------------------------
      1          6           0       -4.115517    0.979661    0.170303
      2          6           0       -2.740267    1.621497   -0.016030
      3          6           0       -2.658765    3.027780    0.578545
      4          1           0       -4.877966    1.620231   -0.293688
      5          1           0       -4.351454    0.939573    1.242740
      6          1           0       -2.506396    1.659103   -1.087714
      7          1           0       -1.980982    0.979230    0.448291
      8          1           0       -2.866390    3.004287    1.653227
      9          1           0       -3.394790    3.688023    0.108494
     10          1           0       -1.667133    3.467861    0.434133
     11          6           0       -4.212659   -0.426464   -0.418853
     12          6           0       -5.587908   -1.068299   -0.232519
     13          6           0       -5.669410   -2.474582   -0.827095
     14          1           0       -3.976722   -0.386375   -1.491290
     15          1           0       -3.450210   -1.067033    0.045138
     16          1           0       -6.347194   -0.426032   -0.696841
     17          1           0       -5.821779   -1.105905    0.839164
     18          1           0       -4.933386   -3.134825   -0.357044
     19          1           0       -5.461785   -2.451089   -1.901777
     20          1           0       -6.661042   -2.914663   -0.682682
     21          6           0        5.482345   -0.012580   -1.067122
     22          6           0        4.392716    0.748253   -1.503429
     23          6           0        3.152908    0.643588   -0.865880
     24          6           0        3.037687   -0.235767    0.209641
     25          6           0        4.104597   -1.007200    0.667776
     26          6           0        5.335068   -0.886337    0.015180
     27          1           0        6.441832    0.075018   -1.568230
     28          1           0        4.504180    1.427639   -2.343700
     29          1           0        2.292840    1.220780   -1.182980
     30          1           0        3.962770   -1.675860    1.508132
     31          1           0        6.179557   -1.478448    0.356189
     32          7           0        1.730101   -0.355145    0.892550
     33          8           0        1.654523   -1.137108    1.837781
     34          8           0        0.805551    0.335508    0.469653
 ---------------------------------------------------------------------

 SCF Done:  E(RHF) =  -669.536165679     A.U. after   15 cycles
 E2 =    -0.2090845815D+01 EUMP2 =    -0.67162701149392D+03

 The electronic state is 1-A.
 Alpha  occ. eigenvalues --  -20.60966 -20.60951 -15.85995 -11.31304 -11.27866
 Alpha  occ. eigenvalues --  -11.27861 -11.27602 -11.26871 -11.26861 -11.20813
 Alpha  occ. eigenvalues --  -11.20405 -11.20391 -11.20274 -11.20105 -11.19940
 Alpha  occ. eigenvalues --   -1.60024  -1.39580  -1.19471  -1.08879  -1.07381
 Alpha  occ. eigenvalues --   -1.04866  -1.02497  -0.95723  -0.95000  -0.86266
 Alpha  occ. eigenvalues --   -0.86024  -0.82557  -0.78570  -0.77613  -0.77145
 Alpha  occ. eigenvalues --   -0.72217  -0.71337  -0.70580  -0.65128  -0.64869
 Alpha  occ. eigenvalues --   -0.64010  -0.62213  -0.59889  -0.58374  -0.56583
 Alpha  occ. eigenvalues --   -0.55371  -0.54303  -0.53198  -0.52957  -0.51715
 Alpha  occ. eigenvalues --   -0.51422  -0.49070  -0.48970  -0.48895  -0.46878
 Alpha  occ. eigenvalues --   -0.45577  -0.45001  -0.44716  -0.44537  -0.42760
 Alpha  occ. eigenvalues --   -0.37450  -0.36466
 Alpha virt. eigenvalues --    0.04923   0.11189   0.16425   0.21314   0.23875
 Alpha virt. eigenvalues --    0.25271   0.27238   0.27697   0.28085   0.28703
 Alpha virt. eigenvalues --    0.28942   0.30890   0.32301   0.32367   0.32841

 Mulliken charges:
               1
     1  C   -0.297542
     2  C   -0.309339
     3  C   -0.473851
     4  H    0.143802
     5  H    0.148288
     6  H    0.144178
     7  H    0.183207
     8  H    0.153866
     9  H    0.148016
    10  H    0.158673
    11  C   -0.298457
    12  C   -0.298846
    13  C   -0.475229
    14  H    0.146181
    15  H    0.155956
    16  H    0.149236
    17  H    0.151471
    18  H    0.156049
    19  H    0.153193
    20  H    0.157518
    21  C   -0.170555
    22  C   -0.218553
    23  C   -0.170850
    24  C    0.157571
    25  C   -0.170426
    26  C   -0.218619
    27  H    0.226031
    28  H    0.223901
    29  H    0.276028
    30  H    0.275831
    31  H    0.223826
    32  N    0.492624
    33  O   -0.459558
    34  O   -0.463619
 Sum of Mulliken charges =  -0.00000

 Dipole moment (field-independent basis, Debye):
    X=              4.9583    Y=              0.3190    Z=             -2.3223  Tot=              5.4845
 Quadrupole moment (field-independent basis, Debye-Ang):
   XX=            -67.7954   YY=            -94.6874   ZZ=            -93.7024
   XY=             -1.3771   XZ=             -5.2595   YZ=             -2.6511

 Normal termination of Gaussian 16 at Wed May  5 17:11:46 2021.
