 Gaussian 16, Revision A.03,
 Gaussian 16:  EM64L-G16RevA.03 25-Dec-2016

 -------------
 #p 6-31g* mp2
 -------------

 ------------------------------------------------------
 Input file generated by CHIRIPA (05-May-2021 14:51:13)
 ------------------------------------------------------
 Symbolic Z-matrix:
 Charge =  0 Multiplicity = 1

                         Standard orientation:
 ---------------------------------------------------------------------
 Center     Atomic      Atomic             Coordinates (Angstroms)
 Number     Number       Type             X           Y           Z
 ---------------------------------------------------------------------
      1          6           0       -3.586339   -0.510566   -0.363246
      2          6           0       -3.642832   -1.554187    0.752840
      3          6           0       -4.754638   -2.582915    0.544512
      4          1           0       -4.555663    0.002670   -0.426051
      5          1           0       -3.439733   -1.020496   -1.325469
      6          1           0       -3.787903   -1.042342    1.712832
      7          1           0       -2.673199   -2.064866    0.813122
      8          1           0       -4.611056   -3.119623   -0.398849
      9          1           0       -5.732094   -2.091289    0.505974
     10          1           0       -4.776967   -3.319370    1.353830
     11          6           0       -2.479932    0.524761   -0.169107
     12          6           0       -2.423440    1.568381   -1.285193
     13          6           0       -1.311634    2.597109   -1.076865
     14          1           0       -2.626538    1.034691    0.793116
     15          1           0       -1.510609    0.011524   -0.106302
     16          1           0       -3.393073    2.079061   -1.345475
     17          1           0       -2.278369    1.056536   -2.245186
     18          1           0       -0.334178    2.105484   -1.038327
     19          1           0       -1.455216    3.133818   -0.133505
     20          1           0       -1.289305    3.333564   -1.886184
     21          6           0        2.510790    0.297958    0.732576
     22          6           0        2.332879    1.804489    0.541005
     23          6           0        1.284556    2.400227    1.481168
     24          1           0        1.545843   -0.202114    0.572113
     25          1           0        2.796382    0.099119    1.774831
     26          1           0        2.049056    2.000541   -0.500928
     27          1           0        3.298404    2.301014    0.701755
     28          1           0        1.565319    2.233808    2.526193
     29          1           0        0.308873    1.931627    1.316677
     30          1           0        1.173504    3.478111    1.327236
     31          6           0        3.555481   -0.312153   -0.200222
     32          6           0        3.733393   -1.818683   -0.008652
     33          6           0        4.781716   -2.414422   -0.948815
     34          1           0        3.269889   -0.113314   -1.242477
     35          1           0        4.520429    0.187920   -0.039759
     36          1           0        2.767867   -2.315209   -0.169402
     37          1           0        4.017216   -2.014735    1.033280
     38          1           0        5.757399   -1.945821   -0.784324
     39          1           0        4.500952   -2.248002   -1.993840
     40          1           0        4.892769   -3.492305   -0.794883
 ---------------------------------------------------------------------

 SCF Done:  E(RHF) =  -470.731858933     A.U. after   11 cycles
 E2 =    -0.1584352649D+01 EUMP2 =    -0.47231621158199D+03

 The electronic state is 1-A.
 Alpha  occ. eigenvalues --  -11.21632 -11.21623 -11.21615 -11.21559 -11.21469
 Alpha  occ. eigenvalues --  -11.21411 -11.21403 -11.21351 -11.21094 -11.21083
 Alpha  occ. eigenvalues --  -11.20999 -11.20884  -1.08490  -1.08413  -1.03614
 Alpha  occ. eigenvalues --   -1.03453  -0.96083  -0.95875  -0.87091  -0.86900
 Alpha  occ. eigenvalues --   -0.79668  -0.79533  -0.78321  -0.78218  -0.65204
 Alpha  occ. eigenvalues --   -0.64991  -0.61155  -0.60799  -0.59373  -0.59314
 Alpha  occ. eigenvalues --   -0.57637  -0.57552  -0.55396  -0.55154  -0.52709
 Alpha  occ. eigenvalues --   -0.52661  -0.52386  -0.52312  -0.49995  -0.49874
 Alpha  occ. eigenvalues --   -0.48042  -0.47718  -0.46757  -0.46520  -0.45982
 Alpha  occ. eigenvalues --   -0.45753  -0.45695  -0.45508  -0.43816  -0.43757
 Alpha virt. eigenvalues --    0.20358   0.23180   0.23595   0.24916   0.25309
 Alpha virt. eigenvalues --    0.26394   0.26639   0.27792   0.28617   0.29503
 Alpha virt. eigenvalues --    0.30408   0.30433   0.31372   0.31905   0.32271

 Mulliken charges:
               1
     1  C   -0.298210
     2  C   -0.299723
     3  C   -0.475753
     4  H    0.150090
     5  H    0.149618
     6  H    0.152213
     7  H    0.151854
     8  H    0.155179
     9  H    0.155273
    10  H    0.160445
    11  C   -0.301722
    12  C   -0.299283
    13  C   -0.481939
    14  H    0.150332
    15  H    0.150306
    16  H    0.152005
    17  H    0.151461
    18  H    0.161884
    19  H    0.157646
    20  H    0.159722
    21  C   -0.300329
    22  C   -0.303714
    23  C   -0.479183
    24  H    0.149936
    25  H    0.150148
    26  H    0.153247
    27  H    0.152616
    28  H    0.153667
    29  H    0.162346
    30  H    0.159946
    31  C   -0.298175
    32  C   -0.299552
    33  C   -0.475700
    34  H    0.149150
    35  H    0.149952
    36  H    0.151481
    37  H    0.152098
    38  H    0.155298
    39  H    0.155109
    40  H    0.160263
 Sum of Mulliken charges =  -0.00000

 Dipole moment (field-independent basis, Debye):
    X=             -0.0290    Y=              0.0133    Z=              0.0030  Tot=              0.0321
 Quadrupole moment (field-independent basis, Debye-Ang):
   XX=            -84.9039   YY=            -85.3808   ZZ=            -84.4792
   XY=             -0.4874   XZ=              0.5489   YZ=              0.0703

 Normal termination of Gaussian 16 at Wed May  5 21:36:44 2021.
