 Gaussian 16, Revision A.03,
 Gaussian 16:  EM64L-G16RevA.03 25-Dec-2016

 -------------
 #p 6-31g* mp2
 -------------

 ------------------------------------------------------
 Input file generated by CHIRIPA (05-May-2021 14:55:23)
 ------------------------------------------------------
 Symbolic Z-matrix:
 Charge =  0 Multiplicity = 1

                         Standard orientation:
 ---------------------------------------------------------------------
 Center     Atomic      Atomic             Coordinates (Angstroms)
 Number     Number       Type             X           Y           Z
 ---------------------------------------------------------------------
      1          6           0        3.137221    2.349535    0.849693
      2          6           0        3.959879    1.222277    0.944796
      3          6           0        3.613822    0.033875    0.294803
      4          6           0        2.432654    0.007872   -0.445099
      5          6           0        1.592183    1.114194   -0.558897
      6          6           0        1.958077    2.291997    0.099473
      7          1           0        3.413751    3.268597    1.357877
      8          1           0        4.876206    1.264065    1.526728
      9          1           0        4.232312   -0.853627    0.351625
     10          1           0        0.684940    1.042011   -1.146363
     11          1           0        1.317262    3.165886    0.023854
     12          7           0        2.055798   -1.244626   -1.137652
     13          8           0        1.009956   -1.241762   -1.783286
     14          8           0        2.813397   -2.205482   -1.021727
     15          6           0       -3.927958   -0.150738    0.254992
     16          6           0       -4.160424    1.137879   -0.534572
     17          6           0       -5.635064    1.371207   -0.864405
     18          1           0       -4.315205   -1.001675   -0.321975
     19          1           0       -4.511193   -0.112671    1.185467
     20          1           0       -3.575842    1.097986   -1.462628
     21          1           0       -3.772407    1.985827    0.044257
     22          1           0       -6.229184    1.437332    0.052791
     23          1           0       -6.031503    0.544447   -1.462655
     24          1           0       -5.778428    2.297766   -1.429025
     25          6           0       -2.458638   -0.397866    0.592262
     26          6           0       -2.226171   -1.686482    1.381825
     27          6           0       -0.751532   -1.919811    1.711658
     28          1           0       -1.875403   -0.435934   -0.338214
     29          1           0       -2.071392    0.453072    1.169228
     30          1           0       -2.614189   -2.534431    0.802997
     31          1           0       -2.810754   -1.646590    2.309881
     32          1           0       -0.355093   -1.093050    2.309908
     33          1           0       -0.157411   -1.985936    0.794462
     34          1           0       -0.608168   -2.846370    2.276278
 ---------------------------------------------------------------------

 SCF Done:  E(RHF) =  -669.536359812     A.U. after   15 cycles
 E2 =    -0.2092342045D+01 EUMP2 =    -0.67162870185694D+03

 The electronic state is 1-A.
 Alpha  occ. eigenvalues --  -20.60930 -20.60918 -15.85938 -11.31215 -11.27784
 Alpha  occ. eigenvalues --  -11.27774 -11.27523 -11.26786 -11.26774 -11.21542
 Alpha  occ. eigenvalues --  -11.21193 -11.21170 -11.21053 -11.21005 -11.20562
 Alpha  occ. eigenvalues --   -1.59984  -1.39540  -1.19387  -1.08804  -1.08175
 Alpha  occ. eigenvalues --   -1.04778  -1.03264  -0.95711  -0.95652  -0.86733
 Alpha  occ. eigenvalues --   -0.86182  -0.82488  -0.79357  -0.78013  -0.77533
 Alpha  occ. eigenvalues --   -0.72170  -0.71310  -0.70503  -0.65049  -0.64810
 Alpha  occ. eigenvalues --   -0.64761  -0.62128  -0.60643  -0.59092  -0.57330
 Alpha  occ. eigenvalues --   -0.55294  -0.54981  -0.53111  -0.52876  -0.52410
 Alpha  occ. eigenvalues --   -0.52145  -0.49651  -0.48938  -0.48916  -0.47677
 Alpha  occ. eigenvalues --   -0.46397  -0.45589  -0.45492  -0.44785  -0.43521
 Alpha  occ. eigenvalues --   -0.37363  -0.36370
 Alpha virt. eigenvalues --    0.04946   0.11251   0.16433   0.21105   0.23108
 Alpha virt. eigenvalues --    0.24524   0.25801   0.27018   0.27669   0.28098
 Alpha virt. eigenvalues --    0.29106   0.30897   0.31672   0.31979   0.32250

 Mulliken charges:
               1
     1  C   -0.170481
     2  C   -0.218797
     3  C   -0.170384
     4  C    0.157805
     5  C   -0.170155
     6  C   -0.219359
     7  H    0.225681
     8  H    0.223518
     9  H    0.275651
    10  H    0.277191
    11  H    0.223857
    12  N    0.488111
    13  O   -0.460811
    14  O   -0.457641
    15  C   -0.297660
    16  C   -0.299751
    17  C   -0.475402
    18  H    0.152640
    19  H    0.148193
    20  H    0.152185
    21  H    0.147122
    22  H    0.154799
    23  H    0.157019
    24  H    0.158729
    25  C   -0.305195
    26  C   -0.297302
    27  C   -0.482835
    28  H    0.160804
    29  H    0.142311
    30  H    0.156027
    31  H    0.148706
    32  H    0.149077
    33  H    0.165762
    34  H    0.160584
 Sum of Mulliken charges =  -0.00000

 Dipole moment (field-independent basis, Debye):
    X=              1.4282    Y=              4.3114    Z=              2.3422  Tot=              5.1102
 Quadrupole moment (field-independent basis, Debye-Ang):
   XX=            -86.1253   YY=            -93.9289   ZZ=            -96.6384
   XY=              9.2956   XZ=              6.9323   YZ=             -2.1242

 Normal termination of Gaussian 16 at Wed May  5 19:06:15 2021.
