 Gaussian 16, Revision A.03,
 Gaussian 16:  EM64L-G16RevA.03 25-Dec-2016

 -------------
 #p 6-31g* mp2
 -------------

 ------------------------------------------------------
 Input file generated by CHIRIPA (05-May-2021 14:55:22)
 ------------------------------------------------------
 Symbolic Z-matrix:
 Charge =  0 Multiplicity = 1

                         Standard orientation:
 ---------------------------------------------------------------------
 Center     Atomic      Atomic             Coordinates (Angstroms)
 Number     Number       Type             X           Y           Z
 ---------------------------------------------------------------------
      1          6           0       -2.547936    2.109163   -0.914779
      2          6           0       -1.681010    1.201756   -0.297062
      3          6           0       -2.150143   -0.037537    0.148601
      4          6           0       -3.498188   -0.338061   -0.040475
      5          6           0       -4.386733    0.544785   -0.652325
      6          6           0       -3.895654    1.778364   -1.090130
      7          1           0       -2.174978    3.069656   -1.257928
      8          1           0       -0.633865    1.455971   -0.159554
      9          1           0       -1.500885   -0.758749    0.629989
     10          1           0       -5.425433    0.263052   -0.775397
     11          1           0       -4.571215    2.481105   -1.569524
     12          7           0       -4.006454   -1.647020    0.427169
     13          8           0       -5.198428   -1.887873    0.248770
     14          8           0       -3.203236   -2.407344    0.963251
     15          6           0        4.825676   -0.449905    0.242019
     16          6           0        5.468822   -0.927461   -1.060398
     17          6           0        6.376685   -2.141465   -0.860965
     18          1           0        5.615537   -0.204059    0.964945
     19          1           0        4.246223   -1.274178    0.680432
     20          1           0        6.045759   -0.102115   -1.496934
     21          1           0        4.677340   -1.172018   -1.780373
     22          1           0        5.810292   -2.982338   -0.447768
     23          1           0        7.186486   -1.906357   -0.162719
     24          1           0        6.825989   -2.466122   -1.804673
     25          6           0        3.915238    0.763066    0.058905
     26          6           0        3.272092    1.240622    1.361321
     27          6           0        2.364228    2.454626    1.161888
     28          1           0        4.494689    1.587339   -0.379508
     29          1           0        3.125376    0.517219   -0.664022
     30          1           0        4.063574    1.485178    2.081296
     31          1           0        2.695155    0.415276    1.797857
     32          1           0        1.554427    2.219518    0.463642
     33          1           0        2.930622    3.295499    0.748692
     34          1           0        1.914925    2.779282    2.105596
 ---------------------------------------------------------------------

 SCF Done:  E(RHF) =  -669.535480326     A.U. after   15 cycles
 E2 =    -0.2090808158D+01 EUMP2 =    -0.67162628848399D+03

 The electronic state is 1-A.
 Alpha  occ. eigenvalues --  -20.60751 -20.60746 -15.85805 -11.31165 -11.27733
 Alpha  occ. eigenvalues --  -11.27729 -11.27470 -11.26748 -11.26723 -11.22322
 Alpha  occ. eigenvalues --  -11.22072 -11.21994 -11.21937 -11.21794 -11.21307
 Alpha  occ. eigenvalues --   -1.59827  -1.39381  -1.19336  -1.08972  -1.08731
 Alpha  occ. eigenvalues --   -1.04740  -1.04090  -0.96554  -0.95567  -0.87574
 Alpha  occ. eigenvalues --   -0.86138  -0.82401  -0.80159  -0.78750  -0.77451
 Alpha  occ. eigenvalues --   -0.72023  -0.71150  -0.70444  -0.65623  -0.64988
 Alpha  occ. eigenvalues --   -0.64758  -0.62139  -0.61455  -0.59926  -0.58141
 Alpha  occ. eigenvalues --   -0.55882  -0.55228  -0.53250  -0.53068  -0.53050
 Alpha  occ. eigenvalues --   -0.52758  -0.50489  -0.48784  -0.48778  -0.48463
 Alpha  occ. eigenvalues --   -0.47187  -0.46300  -0.46201  -0.44787  -0.44325
 Alpha  occ. eigenvalues --   -0.37316  -0.36342
 Alpha virt. eigenvalues --    0.05086   0.11309   0.16580   0.19420   0.22645
 Alpha virt. eigenvalues --    0.23695   0.25402   0.26524   0.27223   0.28313
 Alpha virt. eigenvalues --    0.28578   0.30064   0.31092   0.31576   0.32156

 Mulliken charges:
               1
     1  C   -0.173519
     2  C   -0.226054
     3  C   -0.173944
     4  C    0.158927
     5  C   -0.171230
     6  C   -0.218539
     7  H    0.226220
     8  H    0.235817
     9  H    0.275658
    10  H    0.275493
    11  H    0.223352
    12  N    0.488088
    13  O   -0.460550
    14  O   -0.460600
    15  C   -0.298968
    16  C   -0.300068
    17  C   -0.476164
    18  H    0.151110
    19  H    0.151271
    20  H    0.151971
    21  H    0.152205
    22  H    0.156744
    23  H    0.155681
    24  H    0.161371
    25  C   -0.298213
    26  C   -0.300369
    27  C   -0.480403
    28  H    0.150707
    29  H    0.146271
    30  H    0.156238
    31  H    0.152670
    32  H    0.145284
    33  H    0.159314
    34  H    0.164226
 Sum of Mulliken charges =  -0.00000

 Dipole moment (field-independent basis, Debye):
    X=              1.9800    Y=              4.6134    Z=             -1.6076  Tot=              5.2715
 Quadrupole moment (field-independent basis, Debye-Ang):
   XX=           -102.2182   YY=            -98.5015   ZZ=            -94.7440
   XY=            -17.0602   XZ=              7.8254   YZ=              0.0393

 Normal termination of Gaussian 16 at Wed May  5 19:02:25 2021.
