 Gaussian 16, Revision A.03,
 Gaussian 16:  EM64L-G16RevA.03 25-Dec-2016

 -------------
 #p 6-31g* mp2
 -------------

 ------------------------------------------------------
 Input file generated by CHIRIPA (05-May-2021 14:51:09)
 ------------------------------------------------------
 Symbolic Z-matrix:
 Charge =  0 Multiplicity = 1

                         Standard orientation:
 ---------------------------------------------------------------------
 Center     Atomic      Atomic             Coordinates (Angstroms)
 Number     Number       Type             X           Y           Z
 ---------------------------------------------------------------------
      1          6           0       -2.158585    0.794355   -0.574586
      2          6           0       -2.340483    2.308954   -0.470236
      3          6           0       -1.757064    3.058366   -1.668483
      4          1           0       -1.087990    0.565472   -0.666158
      5          1           0       -2.634610    0.437685   -1.498481
      6          1           0       -1.865455    2.662468    0.453881
      7          1           0       -3.410755    2.534245   -0.378709
      8          1           0       -2.237806    2.733914   -2.597041
      9          1           0       -0.683726    2.862866   -1.759721
     10          1           0       -1.898089    4.139524   -1.573242
     11          6           0       -2.736696    0.031313    0.615911
     12          6           0       -2.554798   -1.483285    0.511560
     13          6           0       -3.138217   -2.232698    1.709808
     14          1           0       -2.260671    0.387983    1.539806
     15          1           0       -3.807291    0.260196    0.707483
     16          1           0       -1.484526   -1.708577    0.420034
     17          1           0       -3.029826   -1.836800   -0.412556
     18          1           0       -4.211555   -2.037197    1.801046
     19          1           0       -2.657475   -1.908246    2.638366
     20          1           0       -2.997192   -3.313855    1.614567
     21          6           0        2.940246    0.164137    0.068083
     22          6           0        2.568156    1.108691    1.211478
     23          6           0        3.563141    2.257850    1.376496
     24          1           0        3.944952   -0.241952    0.248646
     25          1           0        2.998294    0.737327   -0.867588
     26          1           0        2.509471    0.533642    2.144479
     27          1           0        1.564140    1.512431    1.028269
     28          1           0        3.615780    2.856271    0.461224
     29          1           0        4.566482    1.871921    1.583775
     30          1           0        3.277955    2.920775    2.199333
     31          6           0        1.955035   -0.989805   -0.109408
     32          6           0        2.327126   -1.934359   -1.252802
     33          6           0        1.332140   -3.083518   -1.417821
     34          1           0        1.896986   -1.562994    0.826262
     35          1           0        0.950329   -0.583717   -0.289970
     36          1           0        3.331140   -2.338098   -1.069594
     37          1           0        2.385810   -1.359309   -2.185803
     38          1           0        0.328799   -2.697588   -1.625100
     39          1           0        1.279500   -3.681939   -0.502549
     40          1           0        1.617325   -3.746444   -2.240658
 ---------------------------------------------------------------------

 SCF Done:  E(RHF) =  -470.733228510     A.U. after   11 cycles
 E2 =    -0.1584224517D+01 EUMP2 =    -0.47231745302670D+03

 The electronic state is 1-A.
 Alpha  occ. eigenvalues --  -11.21676 -11.21644 -11.21634 -11.21559 -11.21462
 Alpha  occ. eigenvalues --  -11.21428 -11.21401 -11.21358 -11.21121 -11.21120
 Alpha  occ. eigenvalues --  -11.21075 -11.21044  -1.08509  -1.08431  -1.03579
 Alpha  occ. eigenvalues --   -1.03534  -0.96029  -0.95986  -0.87041  -0.87005
 Alpha  occ. eigenvalues --   -0.79659  -0.79586  -0.78446  -0.78139  -0.65324
 Alpha  occ. eigenvalues --   -0.64895  -0.61006  -0.60904  -0.59415  -0.59334
 Alpha  occ. eigenvalues --   -0.57681  -0.57562  -0.55391  -0.55208  -0.52715
 Alpha  occ. eigenvalues --   -0.52682  -0.52473  -0.52393  -0.50013  -0.49893
 Alpha  occ. eigenvalues --   -0.48058  -0.47848  -0.46754  -0.46636  -0.46408
 Alpha  occ. eigenvalues --   -0.45786  -0.45758  -0.45035  -0.43832  -0.43791
 Alpha virt. eigenvalues --    0.19651   0.22459   0.23650   0.24656   0.25509
 Alpha virt. eigenvalues --    0.26750   0.27028   0.27458   0.28066   0.30343
 Alpha virt. eigenvalues --    0.31291   0.31467   0.31712   0.31903   0.32062

 Mulliken charges:
               1
     1  C   -0.307533
     2  C   -0.299342
     3  C   -0.475703
     4  H    0.156640
     5  H    0.149571
     6  H    0.152055
     7  H    0.152395
     8  H    0.155380
     9  H    0.154353
    10  H    0.160610
    11  C   -0.297510
    12  C   -0.305962
    13  C   -0.475579
    14  H    0.149744
    15  H    0.149724
    16  H    0.158746
    17  H    0.151343
    18  H    0.154962
    19  H    0.155152
    20  H    0.160417
    21  C   -0.297640
    22  C   -0.300591
    23  C   -0.475704
    24  H    0.150183
    25  H    0.149407
    26  H    0.152109
    27  H    0.151438
    28  H    0.155417
    29  H    0.155491
    30  H    0.160421
    31  C   -0.310445
    32  C   -0.298912
    33  C   -0.478297
    34  H    0.149542
    35  H    0.160401
    36  H    0.152084
    37  H    0.151956
    38  H    0.158271
    39  H    0.155035
    40  H    0.160371
 Sum of Mulliken charges =  -0.00000

 Dipole moment (field-independent basis, Debye):
    X=              0.0138    Y=             -0.0070    Z=             -0.0023  Tot=              0.0157
 Quadrupole moment (field-independent basis, Debye-Ang):
   XX=            -84.1773   YY=            -85.6903   ZZ=            -84.8066
   XY=             -1.0761   XZ=              0.9581   YZ=              0.0066

 Normal termination of Gaussian 16 at Thu May  6 06:56:02 2021.
