 Gaussian 16, Revision A.03,
 Gaussian 16:  EM64L-G16RevA.03 25-Dec-2016

 -------------
 #p 6-31g* mp2
 -------------

 ------------------------------------------------------
 Input file generated by CHIRIPA (05-May-2021 14:55:18)
 ------------------------------------------------------
 Symbolic Z-matrix:
 Charge =  0 Multiplicity = 1

                         Standard orientation:
 ---------------------------------------------------------------------
 Center     Atomic      Atomic             Coordinates (Angstroms)
 Number     Number       Type             X           Y           Z
 ---------------------------------------------------------------------
      1          6           0        2.082124    2.082152    0.154791
      2          6           0        3.032738    1.800649    1.141507
      3          6           0        3.784019    0.622820    1.088190
      4          6           0        3.557779   -0.255150    0.029287
      5          6           0        2.617977   -0.002903   -0.968928
      6          6           0        1.878137    1.181066   -0.895426
      7          1           0        1.502954    2.999503    0.204049
      8          1           0        3.193284    2.498612    1.958280
      9          1           0        4.526410    0.379988    1.838727
     10          1           0        2.480354   -0.717968   -1.770900
     11          1           0        1.140554    1.397075   -1.663122
     12          7           0        4.347071   -1.505315   -0.037842
     13          8           0        4.128827   -2.262512   -0.981059
     14          8           0        5.169016   -1.704325    0.854031
     15          6           0       -3.766229    0.193203   -0.476536
     16          6           0       -2.960373    1.408180   -0.015658
     17          6           0       -1.720604    1.656011   -0.875510
     18          1           0       -3.120952   -0.695715   -0.456892
     19          1           0       -4.067714    0.337520   -1.523281
     20          1           0       -2.661677    1.262233    1.030332
     21          1           0       -3.607698    2.294275   -0.036219
     22          1           0       -2.003570    1.827336   -1.919147
     23          1           0       -1.052173    0.789431   -0.846535
     24          1           0       -1.159328    2.529159   -0.528460
     25          6           0       -5.008668   -0.067487    0.373239
     26          6           0       -5.814524   -1.282465   -0.087640
     27          6           0       -7.054294   -1.530296    0.772212
     28          1           0       -4.707183   -0.211805    1.419984
     29          1           0       -5.653945    0.821431    0.353595
     30          1           0       -5.167200   -2.168559   -0.067077
     31          1           0       -6.113220   -1.136517   -1.133629
     32          1           0       -7.722724   -0.663715    0.743237
     33          1           0       -6.771328   -1.701621    1.815849
     34          1           0       -7.615569   -2.403443    0.425162
 ---------------------------------------------------------------------

 SCF Done:  E(RHF) =  -669.534601796     A.U. after   15 cycles
 E2 =    -0.2091938437D+01 EUMP2 =    -0.67162654023357D+03

 The electronic state is 1-A.
 Alpha  occ. eigenvalues --  -20.60733 -20.60728 -15.85785 -11.31141 -11.27703
 Alpha  occ. eigenvalues --  -11.27682 -11.27424 -11.26727 -11.26637 -11.22337
 Alpha  occ. eigenvalues --  -11.22103 -11.21934 -11.21915 -11.21783 -11.21323
 Alpha  occ. eigenvalues --   -1.59809  -1.39363  -1.19308  -1.08953  -1.08702
 Alpha  occ. eigenvalues --   -1.04714  -1.04094  -0.96584  -0.95539  -0.87636
 Alpha  occ. eigenvalues --   -0.86087  -0.82375  -0.80188  -0.78726  -0.77418
 Alpha  occ. eigenvalues --   -0.72004  -0.71132  -0.70419  -0.65585  -0.64956
 Alpha  occ. eigenvalues --   -0.64723  -0.62100  -0.61450  -0.59975  -0.58170
 Alpha  occ. eigenvalues --   -0.55872  -0.55208  -0.53432  -0.53076  -0.52989
 Alpha  occ. eigenvalues --   -0.52627  -0.50472  -0.48768  -0.48760  -0.48469
 Alpha  occ. eigenvalues --   -0.47170  -0.46276  -0.46170  -0.44771  -0.44347
 Alpha  occ. eigenvalues --   -0.37263  -0.36286
 Alpha virt. eigenvalues --    0.05090   0.11289   0.16520   0.20568   0.22432
 Alpha virt. eigenvalues --    0.23870   0.26058   0.26206   0.26414   0.27547
 Alpha virt. eigenvalues --    0.28600   0.29918   0.30839   0.31698   0.32153

 Mulliken charges:
               1
     1  C   -0.172266
     2  C   -0.218709
     3  C   -0.171280
     4  C    0.158813
     5  C   -0.174001
     6  C   -0.218178
     7  H    0.225540
     8  H    0.223128
     9  H    0.275299
    10  H    0.275326
    11  H    0.230925
    12  N    0.488053
    13  O   -0.460589
    14  O   -0.460613
    15  C   -0.299581
    16  C   -0.299651
    17  C   -0.481937
    18  H    0.151768
    19  H    0.150059
    20  H    0.154182
    21  H    0.153289
    22  H    0.156166
    23  H    0.159212
    24  H    0.151324
    25  C   -0.298823
    26  C   -0.300224
    27  C   -0.476032
    28  H    0.150565
    29  H    0.149938
    30  H    0.153391
    31  H    0.152245
    32  H    0.155208
    33  H    0.155829
    34  H    0.161622
 Sum of Mulliken charges =  -0.00000

 Dipole moment (field-independent basis, Debye):
    X=             -2.9505    Y=              4.3593    Z=              0.2553  Tot=              5.2701
 Quadrupole moment (field-independent basis, Debye-Ang):
   XX=           -114.1775   YY=            -97.2289   ZZ=            -91.3617
   XY=             16.7439   XZ=              3.8660   YZ=              1.1638

 Normal termination of Gaussian 16 at Thu May  6 15:41:55 2021.
