 Gaussian 16, Revision A.03,
 Gaussian 16:  EM64L-G16RevA.03 25-Dec-2016

 -------------
 #p 6-31g* mp2
 -------------

 ------------------------------------------------------
 Input file generated by CHIRIPA (05-May-2021 14:57:26)
 ------------------------------------------------------
 Symbolic Z-matrix:
 Charge =  0 Multiplicity = 1

                         Standard orientation:
 ---------------------------------------------------------------------
 Center     Atomic      Atomic             Coordinates (Angstroms)
 Number     Number       Type             X           Y           Z
 ---------------------------------------------------------------------
      1          6           0        5.259103    1.102119    0.227395
      2          6           0        4.543938    1.304011   -0.957636
      3          6           0        3.323791    0.655357   -1.169853
      4          6           0        2.846173   -0.192115   -0.171373
      5          6           0        3.535342   -0.413752    1.019935
      6          6           0        4.753414    0.245393    1.210665
      7          1           0        6.206137    1.610084    0.383905
      8          1           0        4.934238    1.968791   -1.722998
      9          1           0        2.749516    0.793577   -2.077885
     10          1           0        3.120726   -1.082388    1.764539
     11          1           0        5.306659    0.086706    2.131959
     12          7           0        1.555556   -0.884369   -0.384664
     13          8           0        1.156342   -1.625968    0.510487
     14          8           0        0.967623   -0.672250   -1.442953
     15          6           0       -3.727048    2.508002    0.257370
     16          6           0       -3.116116    1.894402    1.355904
     17          6           0       -2.741678    0.548586    1.299995
     18          6           0       -2.994286   -0.156898    0.124507
     19          6           0       -3.601226    0.426246   -0.986734
     20          6           0       -3.967231    1.773262   -0.908387
     21          1           0       -4.014645    3.553930    0.309517
     22          1           0       -2.928357    2.462554    2.262542
     23          1           0       -2.267173    0.048673    2.135668
     24          1           0       -3.775424   -0.165997   -1.876858
     25          1           0       -4.441527    2.247184   -1.763071
     26          7           0       -2.602350   -1.582288    0.053442
     27          8           0       -2.835849   -2.181971   -0.993695
     28          8           0       -2.069072   -2.072836    1.046224
 ---------------------------------------------------------------------

 SCF Done:  E(RHF) =  -868.335853807     A.U. after   16 cycles
 E2 =    -0.2601085341D+01 EUMP2 =    -0.87093693914821D+03

 The electronic state is 1-A.
 Alpha  occ. eigenvalues --  -20.60343 -20.60278 -20.59233 -20.59145 -15.85360
 Alpha  occ. eigenvalues --  -15.84256 -11.30948 -11.30073 -11.27553 -11.27530
 Alpha  occ. eigenvalues --  -11.27331 -11.26712 -11.26693 -11.26615 -11.26598
 Alpha  occ. eigenvalues --  -11.26582 -11.25870 -11.25843  -1.59393  -1.58225
 Alpha  occ. eigenvalues --   -1.38935  -1.37780  -1.19145  -1.18296  -1.08500
 Alpha  occ. eigenvalues --   -1.07613  -1.04579  -1.03783  -0.95292  -0.94375
 Alpha  occ. eigenvalues --   -0.85966  -0.85160  -0.82118  -0.81223  -0.77137
 Alpha  occ. eigenvalues --   -0.76174  -0.71559  -0.70755  -0.70493  -0.70250
 Alpha  occ. eigenvalues --   -0.69501  -0.69431  -0.64788  -0.64581  -0.63955
 Alpha  occ. eigenvalues --   -0.63814  -0.61921  -0.61131  -0.55074  -0.54300
 Alpha  occ. eigenvalues --   -0.52901  -0.52672  -0.52073  -0.51897  -0.48353
 Alpha  occ. eigenvalues --   -0.48318  -0.47273  -0.47218  -0.44315  -0.43015
 Alpha  occ. eigenvalues --   -0.37142  -0.36301  -0.36195  -0.35407
 Alpha virt. eigenvalues --    0.05397   0.06414   0.11456   0.12244   0.16843
 Alpha virt. eigenvalues --    0.17807   0.21578   0.22243   0.27472   0.28114
 Alpha virt. eigenvalues --    0.28495   0.29192   0.31114   0.31741   0.32743

 Mulliken charges:
               1
     1  C   -0.171627
     2  C   -0.218683
     3  C   -0.171600
     4  C    0.158522
     5  C   -0.171999
     6  C   -0.218740
     7  H    0.224374
     8  H    0.222085
     9  H    0.274906
    10  H    0.277206
    11  H    0.222726
    12  N    0.485437
    13  O   -0.448477
    14  O   -0.463796
    15  C   -0.172875
    16  C   -0.219458
    17  C   -0.171781
    18  C    0.164902
    19  C   -0.168501
    20  C   -0.219047
    21  H    0.220478
    22  H    0.218236
    23  H    0.275021
    24  H    0.275374
    25  H    0.219437
    26  N    0.492642
    27  O   -0.462402
    28  O   -0.452359
 Sum of Mulliken charges =  -0.00000

 Dipole moment (field-independent basis, Debye):
    X=              3.2974    Y=              7.0940    Z=              1.0299  Tot=              7.8904
 Quadrupole moment (field-independent basis, Debye-Ang):
   XX=            -72.7895   YY=           -107.9375   ZZ=            -97.0316
   XY=             -8.3944   XZ=              3.0669   YZ=             -2.2143

 Normal termination of Gaussian 16 at Wed May  5 21:15:01 2021.
