 Gaussian 16, Revision A.03,
 Gaussian 16:  EM64L-G16RevA.03 25-Dec-2016

 -------------
 #p 6-31g* mp2
 -------------

 ------------------------------------------------------
 Input file generated by CHIRIPA (05-May-2021 14:53:16)
 ------------------------------------------------------
 Symbolic Z-matrix:
 Charge =  0 Multiplicity = 1

                         Standard orientation:
 ---------------------------------------------------------------------
 Center     Atomic      Atomic             Coordinates (Angstroms)
 Number     Number       Type             X           Y           Z
 ---------------------------------------------------------------------
      1          6           0       -5.059624   -0.346466   -0.222200
      2          6           0       -6.585630   -0.301950   -0.307697
      3          6           0       -7.200764   -1.668246   -0.612062
      4          1           0       -4.656620   -0.728672   -1.170067
      5          1           0       -4.763687   -1.064273    0.555341
      6          1           0       -6.878623    0.416583   -1.083894
      7          1           0       -6.985038    0.080375    0.640415
      8          1           0       -6.937262   -2.391427    0.166512
      9          1           0       -6.830242   -2.053309   -1.567594
     10          1           0       -8.292387   -1.613418   -0.668740
     11          6           0       -4.429995    1.011863    0.081506
     12          6           0       -2.903989    0.967348    0.167003
     13          6           0       -2.288855    2.333644    0.471368
     14          1           0       -4.725932    1.729670   -0.696035
     15          1           0       -4.832998    1.394070    1.029373
     16          1           0       -2.504581    0.585022   -0.781109
     17          1           0       -2.610996    0.248814    0.943200
     18          1           0       -2.659376    2.718707    1.426900
     19          1           0       -2.552357    3.056825   -0.307206
     20          1           0       -1.197232    2.278815    0.528046
     21          6           0        1.418711   -0.913197    0.893662
     22          6           0        1.697176    0.423153    0.588463
     23          6           0        2.961487    0.796569    0.123031
     24          6           0        3.928095   -0.196765   -0.026124
     25          6           0        3.681274   -1.536534    0.269489
     26          6           0        2.409900   -1.887059    0.733483
     27          1           0        0.433821   -1.194385    1.254663
     28          1           0        0.929342    1.181598    0.711895
     29          1           0        3.204085    1.823776   -0.120713
     30          1           0        4.467097   -2.270125    0.136277
     31          1           0        2.196473   -2.925657    0.969723
     32          7           0        5.270302    0.186437   -0.518095
     33          8           0        6.104655   -0.707658   -0.640916
     34          8           0        5.462556    1.373631   -0.771566
 ---------------------------------------------------------------------

 SCF Done:  E(RHF) =  -669.535516280     A.U. after   15 cycles
 E2 =    -0.2090946556D+01 EUMP2 =    -0.67162646283604D+03

 The electronic state is 1-A.
 Alpha  occ. eigenvalues --  -20.60732 -20.60727 -15.85785 -11.31146 -11.27718
 Alpha  occ. eigenvalues --  -11.27711 -11.27452 -11.26730 -11.26709 -11.22640
 Alpha  occ. eigenvalues --  -11.22194 -11.22179 -11.22152 -11.22046 -11.21547
 Alpha  occ. eigenvalues --   -1.59807  -1.39361  -1.19318  -1.09198  -1.08713
 Alpha  occ. eigenvalues --   -1.04724  -1.04315  -0.96760  -0.95548  -0.87778
 Alpha  occ. eigenvalues --   -0.86121  -0.82383  -0.80391  -0.78981  -0.77434
 Alpha  occ. eigenvalues --   -0.72004  -0.71131  -0.70422  -0.65819  -0.64970
 Alpha  occ. eigenvalues --   -0.64766  -0.62116  -0.61697  -0.60148  -0.58365
 Alpha  occ. eigenvalues --   -0.56018  -0.55225  -0.53542  -0.53234  -0.53049
 Alpha  occ. eigenvalues --   -0.52690  -0.50680  -0.48783  -0.48759  -0.48679
 Alpha  occ. eigenvalues --   -0.47414  -0.46527  -0.46428  -0.44768  -0.44566
 Alpha  occ. eigenvalues --   -0.37296  -0.36326
 Alpha virt. eigenvalues --    0.05106   0.11313   0.16597   0.19058   0.22439
 Alpha virt. eigenvalues --    0.23796   0.25292   0.25756   0.26370   0.27941
 Alpha virt. eigenvalues --    0.28738   0.29462   0.30827   0.31636   0.32068

 Mulliken charges:
               1
     1  C   -0.298736
     2  C   -0.300254
     3  C   -0.476102
     4  H    0.150683
     5  H    0.148115
     6  H    0.153440
     7  H    0.152796
     8  H    0.154993
     9  H    0.155893
    10  H    0.162123
    11  C   -0.298801
    12  C   -0.301065
    13  C   -0.479673
    14  H    0.152640
    15  H    0.151450
    16  H    0.154573
    17  H    0.145455
    18  H    0.159512
    19  H    0.161701
    20  H    0.152046
    21  C   -0.173898
    22  C   -0.225666
    23  C   -0.173195
    24  C    0.158869
    25  C   -0.171137
    26  C   -0.218669
    27  H    0.226899
    28  H    0.234294
    29  H    0.276085
    30  H    0.275430
    31  H    0.223272
    32  N    0.488030
    33  O   -0.460648
    34  O   -0.460455
 Sum of Mulliken charges =  -0.00000

 Dipole moment (field-independent basis, Debye):
    X=             -4.9778    Y=             -1.3206    Z=              1.6895  Tot=              5.4201
 Quadrupole moment (field-independent basis, Debye-Ang):
   XX=           -131.5337   YY=            -90.3468   ZZ=            -94.7378
   XY=             -6.7678   XZ=              6.9982   YZ=             -1.0902

 Normal termination of Gaussian 16 at Wed May  5 15:42:08 2021.
