 Gaussian 16, Revision A.03,
 Gaussian 16:  EM64L-G16RevA.03 25-Dec-2016

 -------------
 #p 6-31g* mp2
 -------------

 ------------------------------------------------------
 Input file generated by CHIRIPA (05-May-2021 14:55:24)
 ------------------------------------------------------
 Symbolic Z-matrix:
 Charge =  0 Multiplicity = 1

                         Standard orientation:
 ---------------------------------------------------------------------
 Center     Atomic      Atomic             Coordinates (Angstroms)
 Number     Number       Type             X           Y           Z
 ---------------------------------------------------------------------
      1          6           0       -3.020454   -2.342133    0.109525
      2          6           0       -3.727937   -1.705067   -0.915237
      3          6           0       -3.821583   -0.310662   -0.952856
      4          6           0       -3.192784    0.418955    0.054894
      5          6           0       -2.480653   -0.186569    1.089061
      6          6           0       -2.400164   -1.582190    1.106645
      7          1           0       -2.952818   -3.425813    0.130966
      8          1           0       -4.210660   -2.292702   -1.690935
      9          1           0       -4.362898    0.208299   -1.734569
     10          1           0       -2.009965    0.426047    1.848385
     11          1           0       -1.850053   -2.074244    1.903706
     12          7           0       -3.284959    1.895793    0.025673
     13          8           0       -2.722109    2.515934    0.925263
     14          8           0       -3.918311    2.405233   -0.896267
     15          6           0        4.699862   -0.031394   -0.458461
     16          6           0        5.761269    0.630013    0.421279
     17          6           0        7.020809    1.010985   -0.357318
     18          1           0        5.128049   -0.927934   -0.927306
     19          1           0        4.433643    0.652257   -1.276473
     20          1           0        6.024401   -0.054126    1.238183
     21          1           0        5.330448    1.524977    0.888235
     22          1           0        6.778739    1.712636   -1.162108
     23          1           0        7.476636    0.124561   -0.810173
     24          1           0        7.766274    1.482221    0.290817
     25          6           0        3.434774   -0.418025    0.305604
     26          6           0        2.373368   -1.079432   -0.574136
     27          6           0        1.113827   -1.460404    0.204462
     28          1           0        3.700993   -1.101676    1.123616
     29          1           0        3.006587    0.478515    0.774450
     30          1           0        2.804189   -1.974396   -1.041093
     31          1           0        2.110236   -0.395293   -1.391039
     32          1           0        0.658001   -0.573981    0.657315
     33          1           0        1.355897   -2.162056    1.009251
     34          1           0        0.368363   -1.931640   -0.443675
 ---------------------------------------------------------------------

 SCF Done:  E(RHF) =  -669.535182174     A.U. after   15 cycles
 E2 =    -0.2091989738D+01 EUMP2 =    -0.67162717191258D+03

 The electronic state is 1-A.
 Alpha  occ. eigenvalues --  -20.60776 -20.60771 -15.85828 -11.31189 -11.27735
 Alpha  occ. eigenvalues --  -11.27725 -11.27475 -11.26778 -11.26743 -11.21806
 Alpha  occ. eigenvalues --  -11.21643 -11.21530 -11.21443 -11.21408 -11.21089
 Alpha  occ. eigenvalues --   -1.59851  -1.39405  -1.19355  -1.08754  -1.08555
 Alpha  occ. eigenvalues --   -1.04758  -1.03675  -0.96140  -0.95589  -0.87170
 Alpha  occ. eigenvalues --   -0.86149  -0.82419  -0.79752  -0.78362  -0.77464
 Alpha  occ. eigenvalues --   -0.72047  -0.71174  -0.70461  -0.65185  -0.65006
 Alpha  occ. eigenvalues --   -0.64755  -0.62104  -0.61076  -0.59516  -0.57744
 Alpha  occ. eigenvalues --   -0.55451  -0.55256  -0.53356  -0.52855  -0.52594
 Alpha  occ. eigenvalues --   -0.52529  -0.50076  -0.48804  -0.48802  -0.48069
 Alpha  occ. eigenvalues --   -0.46772  -0.45910  -0.45820  -0.44811  -0.43931
 Alpha  occ. eigenvalues --   -0.37321  -0.36280
 Alpha virt. eigenvalues --    0.05038   0.11237   0.16496   0.21137   0.22769
 Alpha virt. eigenvalues --    0.24134   0.26366   0.26480   0.27493   0.28122
 Alpha virt. eigenvalues --    0.28566   0.30212   0.31303   0.31700   0.32034

 Mulliken charges:
               1
     1  C   -0.173418
     2  C   -0.218329
     3  C   -0.171624
     4  C    0.158342
     5  C   -0.171430
     6  C   -0.211132
     7  H    0.225671
     8  H    0.223406
     9  H    0.275429
    10  H    0.275131
    11  H    0.225020
    12  N    0.488055
    13  O   -0.460708
    14  O   -0.460357
    15  C   -0.298497
    16  C   -0.299941
    17  C   -0.475849
    18  H    0.148941
    19  H    0.151148
    20  H    0.151131
    21  H    0.153453
    22  H    0.156104
    23  H    0.154641
    24  H    0.160658
    25  C   -0.298987
    26  C   -0.300345
    27  C   -0.477122
    28  H    0.147866
    29  H    0.151878
    30  H    0.150831
    31  H    0.154904
    32  H    0.155482
    33  H    0.148673
    34  H    0.160974
 Sum of Mulliken charges =  -0.00000

 Dipole moment (field-independent basis, Debye):
    X=              0.3186    Y=             -5.1803    Z=              0.0875  Tot=              5.1909
 Quadrupole moment (field-independent basis, Debye-Ang):
   XX=            -96.6599   YY=            -99.1254   ZZ=            -91.6746
   XY=             16.6430   XZ=              2.7469   YZ=             -0.0494

 Normal termination of Gaussian 16 at Thu May  6 11:01:46 2021.
