 Gaussian 16, Revision A.03,
 Gaussian 16:  EM64L-G16RevA.03 25-Dec-2016

 -------------
 #p 6-31g* mp2
 -------------

 ------------------------------------------------------
 Input file generated by CHIRIPA (05-May-2021 14:51:12)
 ------------------------------------------------------
 Symbolic Z-matrix:
 Charge =  0 Multiplicity = 1

                         Standard orientation:
 ---------------------------------------------------------------------
 Center     Atomic      Atomic             Coordinates (Angstroms)
 Number     Number       Type             X           Y           Z
 ---------------------------------------------------------------------
      1          6           0        2.830388    0.341669    0.149843
      2          6           0        3.991007    0.553691   -0.822780
      3          6           0        4.380377    2.025244   -0.966707
      4          1           0        1.962014    0.920286   -0.193776
      5          1           0        3.106583    0.746706    1.133233
      6          1           0        3.713233    0.147131   -1.803681
      7          1           0        4.856659   -0.025650   -0.476909
      8          1           0        4.683342    2.439918    0.000174
      9          1           0        3.533419    2.613682   -1.334136
     10          1           0        5.211926    2.153898   -1.666590
     11          6           0        2.429566   -1.124344    0.304361
     12          6           0        1.268947   -1.336366    1.276984
     13          6           0        0.879576   -2.807919    1.420911
     14          1           0        2.153371   -1.529382   -0.679029
     15          1           0        3.297940   -1.702961    0.647980
     16          1           0        0.403295   -0.757025    0.931113
     17          1           0        1.546720   -0.929807    2.257885
     18          1           0        1.726534   -3.396357    1.788340
     19          1           0        0.576612   -3.222593    0.454030
     20          1           0        0.048028   -2.936574    2.120793
     21          6           0       -2.572737    0.890194    0.348483
     22          6           0       -2.677623    2.348203   -0.100063
     23          6           0       -2.561282    3.334238    1.062690
     24          1           0       -3.359254    0.682921    1.086977
     25          1           0       -1.613492    0.740248    0.863032
     26          1           0       -3.635784    2.495022   -0.614830
     27          1           0       -1.890884    2.551977   -0.837717
     28          1           0       -1.599649    3.216777    1.572657
     29          1           0       -3.354464    3.159499    1.796809
     30          1           0       -2.638946    4.370607    0.719517
     31          6           0       -2.687217   -0.107519   -0.802687
     32          6           0       -2.582331   -1.565528   -0.354142
     33          6           0       -2.698671   -2.551564   -1.516894
     34          1           0       -3.646461    0.042428   -1.317236
     35          1           0       -1.900699    0.099754   -1.541180
     36          1           0       -3.369070   -1.769302    0.383513
     37          1           0       -1.624169   -1.712347    0.160626
     38          1           0       -1.905490   -2.376824   -2.251013
     39          1           0       -3.660305   -2.434102   -2.026860
     40          1           0       -2.621008   -3.587932   -1.173721
 ---------------------------------------------------------------------

 SCF Done:  E(RHF) =  -470.732620676     A.U. after   11 cycles
 E2 =    -0.1584390720D+01 EUMP2 =    -0.47231701139592D+03

 The electronic state is 1-A.
 Alpha  occ. eigenvalues --  -11.21658 -11.21651 -11.21616 -11.21533 -11.21470
 Alpha  occ. eigenvalues --  -11.21413 -11.21411 -11.21354 -11.21121 -11.21110
 Alpha  occ. eigenvalues --  -11.21072 -11.21071  -1.08518  -1.08420  -1.03621
 Alpha  occ. eigenvalues --   -1.03502  -0.96047  -0.95977  -0.87055  -0.86996
 Alpha  occ. eigenvalues --   -0.79662  -0.79594  -0.78380  -0.78191  -0.65404
 Alpha  occ. eigenvalues --   -0.64861  -0.61241  -0.60698  -0.59440  -0.59303
 Alpha  occ. eigenvalues --   -0.57648  -0.57596  -0.55391  -0.55221  -0.52733
 Alpha  occ. eigenvalues --   -0.52665  -0.52476  -0.52389  -0.49999  -0.49909
 Alpha  occ. eigenvalues --   -0.48003  -0.47899  -0.46813  -0.46608  -0.46112
 Alpha  occ. eigenvalues --   -0.45802  -0.45770  -0.45239  -0.43841  -0.43783
 Alpha virt. eigenvalues --    0.20164   0.22975   0.23538   0.24805   0.25612
 Alpha virt. eigenvalues --    0.26724   0.26976   0.27520   0.28604   0.29578
 Alpha virt. eigenvalues --    0.31291   0.31547   0.31734   0.31857   0.32171

 Mulliken charges:
               1
     1  C   -0.298459
     2  C   -0.299699
     3  C   -0.475755
     4  H    0.148839
     5  H    0.149780
     6  H    0.151965
     7  H    0.152221
     8  H    0.155318
     9  H    0.155143
    10  H    0.160474
    11  C   -0.297450
    12  C   -0.311204
    13  C   -0.478326
    14  H    0.149280
    15  H    0.150173
    16  H    0.160572
    17  H    0.152608
    18  H    0.156553
    19  H    0.156221
    20  H    0.161365
    21  C   -0.304646
    22  C   -0.299120
    23  C   -0.475876
    24  H    0.150003
    25  H    0.154472
    26  H    0.152091
    27  H    0.151344
    28  H    0.155599
    29  H    0.155228
    30  H    0.160274
    31  C   -0.297486
    32  C   -0.310976
    33  C   -0.475317
    34  H    0.149733
    35  H    0.148352
    36  H    0.151632
    37  H    0.165280
    38  H    0.154089
    39  H    0.155215
    40  H    0.160490
 Sum of Mulliken charges =  -0.00000

 Dipole moment (field-independent basis, Debye):
    X=              0.0245    Y=             -0.0156    Z=              0.0305  Tot=              0.0421
 Quadrupole moment (field-independent basis, Debye-Ang):
   XX=            -83.4502   YY=            -86.4832   ZZ=            -84.7667
   XY=             -0.5088   XZ=              0.3766   YZ=             -0.5207

 Normal termination of Gaussian 16 at Thu May  6 02:19:18 2021.
