 Gaussian 16, Revision A.03,
 Gaussian 16:  EM64L-G16RevA.03 25-Dec-2016

 -------------
 #p 6-31g* mp2
 -------------

 ------------------------------------------------------
 Input file generated by CHIRIPA (05-May-2021 14:55:20)
 ------------------------------------------------------
 Symbolic Z-matrix:
 Charge =  0 Multiplicity = 1

                         Standard orientation:
 ---------------------------------------------------------------------
 Center     Atomic      Atomic             Coordinates (Angstroms)
 Number     Number       Type             X           Y           Z
 ---------------------------------------------------------------------
      1          6           0       -0.769742   -1.409898    0.791677
      2          6           0       -1.511970   -1.844887   -0.311230
      3          6           0       -2.680716   -1.176928   -0.688607
      4          6           0       -3.079894   -0.072670    0.062766
      5          6           0       -2.361984    0.384964    1.166607
      6          6           0       -1.196366   -0.298321    1.525781
      7          1           0        0.136952   -1.934737    1.077762
      8          1           0       -1.183042   -2.707854   -0.883191
      9          1           0       -3.274374   -1.492291   -1.538038
     10          1           0       -2.715095    1.248363    1.717309
     11          1           0       -0.621939    0.041740    2.382774
     12          7           0       -4.315537    0.642580   -0.327111
     13          8           0       -4.645921    1.612772    0.351277
     14          8           0       -4.930252    0.219458   -1.303702
     15          6           0        4.059699   -0.419655   -0.150141
     16          6           0        3.140233   -1.641047   -0.122408
     17          6           0        3.911400   -2.961079   -0.097703
     18          1           0        4.713348   -0.480632   -1.031032
     19          1           0        4.717603   -0.444618    0.729595
     20          1           0        2.483314   -1.613057   -1.001208
     21          1           0        2.488565   -1.577057    0.758416
     22          1           0        4.554496   -3.015045    0.786671
     23          1           0        4.549214   -3.051249   -0.982951
     24          1           0        3.234704   -3.821054   -0.078090
     25          6           0        3.303488    0.907468   -0.175035
     26          6           0        4.222954    2.128860   -0.202768
     27          6           0        3.451786    3.448891   -0.227473
     28          1           0        2.645584    0.932431   -1.054771
     29          1           0        2.649839    0.968445    0.705856
     30          1           0        4.874622    2.064870   -1.083592
     31          1           0        4.879873    2.100870    0.676033
     32          1           0        2.813973    3.539062    0.657775
     33          1           0        2.808691    3.502858   -1.111847
     34          1           0        4.128482    4.308866   -0.247087
 ---------------------------------------------------------------------

 SCF Done:  E(RHF) =  -669.535391514     A.U. after   15 cycles
 E2 =    -0.2091454110D+01 EUMP2 =    -0.67162684562381D+03

 The electronic state is 1-A.
 Alpha  occ. eigenvalues --  -20.60724 -20.60719 -15.85779 -11.31131 -11.27711
 Alpha  occ. eigenvalues --  -11.27707 -11.27403 -11.26714 -11.26701 -11.22685
 Alpha  occ. eigenvalues --  -11.22180 -11.22120 -11.22027 -11.22013 -11.21473
 Alpha  occ. eigenvalues --   -1.59801  -1.39355  -1.19306  -1.09188  -1.08696
 Alpha  occ. eigenvalues --   -1.04711  -1.04273  -0.96687  -0.95535  -0.87703
 Alpha  occ. eigenvalues --   -0.86106  -0.82377  -0.80376  -0.78978  -0.77423
 Alpha  occ. eigenvalues --   -0.71997  -0.71125  -0.70417  -0.65819  -0.64956
 Alpha  occ. eigenvalues --   -0.64717  -0.62063  -0.61670  -0.60099  -0.58310
 Alpha  occ. eigenvalues --   -0.55962  -0.55215  -0.53395  -0.53103  -0.53029
 Alpha  occ. eigenvalues --   -0.52803  -0.50623  -0.48770  -0.48752  -0.48637
 Alpha  occ. eigenvalues --   -0.47406  -0.46511  -0.46415  -0.44763  -0.44515
 Alpha  occ. eigenvalues --   -0.37257  -0.36319
 Alpha virt. eigenvalues --    0.05106   0.11295   0.16556   0.20004   0.22545
 Alpha virt. eigenvalues --    0.23648   0.25228   0.26282   0.26834   0.27806
 Alpha virt. eigenvalues --    0.28952   0.30192   0.30868   0.31241   0.32014

 Mulliken charges:
               1
     1  C   -0.170604
     2  C   -0.220870
     3  C   -0.170874
     4  C    0.158195
     5  C   -0.170676
     6  C   -0.220268
     7  H    0.231555
     8  H    0.223288
     9  H    0.275297
    10  H    0.275371
    11  H    0.222489
    12  N    0.488088
    13  O   -0.460621
    14  O   -0.460687
    15  C   -0.298307
    16  C   -0.302888
    17  C   -0.475910
    18  H    0.153110
    19  H    0.150893
    20  H    0.153412
    21  H    0.142119
    22  H    0.157857
    23  H    0.159768
    24  H    0.157046
    25  C   -0.297803
    26  C   -0.300444
    27  C   -0.475842
    28  H    0.152649
    29  H    0.145073
    30  H    0.153566
    31  H    0.152095
    32  H    0.154243
    33  H    0.157448
    34  H    0.162232
 Sum of Mulliken charges =  -0.00000

 Dipole moment (field-independent basis, Debye):
    X=              4.5416    Y=             -2.4627    Z=              1.2927  Tot=              5.3256
 Quadrupole moment (field-independent basis, Debye-Ang):
   XX=           -121.8610   YY=            -93.7325   ZZ=            -90.9975
   XY=              8.4415   XZ=             -3.6446   YZ=              2.6202

 Normal termination of Gaussian 16 at Thu May  6 17:26:42 2021.
