 Gaussian 16, Revision A.03,
 Gaussian 16:  EM64L-G16RevA.03 25-Dec-2016

 -------------
 #p 6-31g* mp2
 -------------

 ------------------------------------------------------
 Input file generated by CHIRIPA (05-May-2021 14:53:11)
 ------------------------------------------------------
 Symbolic Z-matrix:
 Charge =  0 Multiplicity = 1

                         Standard orientation:
 ---------------------------------------------------------------------
 Center     Atomic      Atomic             Coordinates (Angstroms)
 Number     Number       Type             X           Y           Z
 ---------------------------------------------------------------------
      1          6           0        2.317866    0.682369   -0.801175
      2          6           0        2.854864    1.979472   -0.195253
      3          6           0        2.294811    3.227376   -0.878532
      4          1           0        2.562137    0.656688   -1.871977
      5          1           0        1.221326    0.679300   -0.730559
      6          1           0        3.950149    1.979474   -0.265742
      7          1           0        2.609453    2.001980    0.874271
      8          1           0        1.203440    3.254629   -0.796259
      9          1           0        2.551753    3.231995   -1.942750
     10          1           0        2.691844    4.143216   -0.429687
     11          6           0        2.868587   -0.573904   -0.128707
     12          6           0        2.331588   -1.871007   -0.734629
     13          6           0        2.891642   -3.118911   -0.051351
     14          1           0        3.965126   -0.570835   -0.199324
     15          1           0        2.624315   -0.548223    0.942095
     16          1           0        2.576999   -1.893515   -1.804154
     17          1           0        1.236304   -1.871009   -0.664140
     18          1           0        2.634700   -3.123530    1.012868
     19          1           0        3.983012   -3.146164   -0.133623
     20          1           0        2.494608   -4.034751   -0.500196
     21          6           0       -3.884566   -0.300176   -1.323488
     22          6           0       -3.093617   -1.401395   -0.979631
     23          6           0       -2.061062   -1.270168   -0.046272
     24          6           0       -1.846275   -0.017445    0.526302
     25          6           0       -2.617116    1.098562    0.204399
     26          6           0       -3.644216    0.944094   -0.731419
     27          1           0       -4.684561   -0.411143   -2.049498
     28          1           0       -3.277995   -2.368916   -1.437837
     29          1           0       -1.433558   -2.106075    0.238186
     30          1           0       -2.409267    2.050340    0.678039
     31          1           0       -4.256887    1.801056   -0.996549
     32          7           0       -0.756043    0.133780    1.515708
     33          8           0       -0.587121    1.248149    2.005897
     34          8           0       -0.091083   -0.864921    1.782281
 ---------------------------------------------------------------------

 SCF Done:  E(RHF) =  -669.536373259     A.U. after   15 cycles
 E2 =    -0.2094512688D+01 EUMP2 =    -0.67163088594793D+03

 The electronic state is 1-A.
 Alpha  occ. eigenvalues --  -20.61128 -20.61122 -15.86120 -11.31384 -11.27928
 Alpha  occ. eigenvalues --  -11.27924 -11.27647 -11.26918 -11.26908 -11.20776
 Alpha  occ. eigenvalues --  -11.20680 -11.20595 -11.20395 -11.20296 -11.20222
 Alpha  occ. eigenvalues --   -1.60172  -1.39729  -1.19538  -1.08957  -1.07515
 Alpha  occ. eigenvalues --   -1.04919  -1.02689  -0.95810  -0.95162  -0.86325
 Alpha  occ. eigenvalues --   -0.86182  -0.82645  -0.78770  -0.77715  -0.77340
 Alpha  occ. eigenvalues --   -0.72362  -0.71534  -0.70643  -0.65200  -0.64922
 Alpha  occ. eigenvalues --   -0.64048  -0.62272  -0.60060  -0.58541  -0.56788
 Alpha  occ. eigenvalues --   -0.55425  -0.54436  -0.53253  -0.53011  -0.51894
 Alpha  occ. eigenvalues --   -0.51607  -0.49146  -0.49111  -0.49102  -0.47117
 Alpha  occ. eigenvalues --   -0.45752  -0.45176  -0.44858  -0.44663  -0.42935
 Alpha  occ. eigenvalues --   -0.37496  -0.36506
 Alpha virt. eigenvalues --    0.04751   0.11048   0.16225   0.21010   0.23533
 Alpha virt. eigenvalues --    0.24731   0.26530   0.27317   0.28278   0.28438
 Alpha virt. eigenvalues --    0.28942   0.30765   0.31229   0.32415   0.32637

 Mulliken charges:
               1
     1  C   -0.295268
     2  C   -0.302146
     3  C   -0.474137
     4  H    0.144350
     5  H    0.139011
     6  H    0.148578
     7  H    0.166769
     8  H    0.152765
     9  H    0.150357
    10  H    0.158951
    11  C   -0.304085
    12  C   -0.296370
    13  C   -0.477611
    14  H    0.143918
    15  H    0.173851
    16  H    0.144469
    17  H    0.147734
    18  H    0.164894
    19  H    0.152772
    20  H    0.152269
    21  C   -0.170135
    22  C   -0.218622
    23  C   -0.171266
    24  C    0.156131
    25  C   -0.171359
    26  C   -0.218204
    27  H    0.226491
    28  H    0.224538
    29  H    0.277406
    30  H    0.276136
    31  H    0.224327
    32  N    0.490808
    33  O   -0.458463
    34  O   -0.458859
 Sum of Mulliken charges =  -0.00000

 Dipole moment (field-independent basis, Debye):
    X=             -4.0370    Y=             -0.5016    Z=             -3.1710  Tot=              5.1579
 Quadrupole moment (field-independent basis, Debye-Ang):
   XX=            -80.4663   YY=            -91.6190   ZZ=            -98.9773
   XY=              0.2236   XZ=              4.6999   YZ=              0.7669

 Normal termination of Gaussian 16 at Thu May  6 05:41:37 2021.
