 Gaussian 16, Revision A.03,
 Gaussian 16:  EM64L-G16RevA.03 25-Dec-2016

 -------------
 #p 6-31g* mp2
 -------------

 ------------------------------------------------------
 Input file generated by CHIRIPA (05-May-2021 14:55:20)
 ------------------------------------------------------
 Symbolic Z-matrix:
 Charge =  0 Multiplicity = 1

                         Standard orientation:
 ---------------------------------------------------------------------
 Center     Atomic      Atomic             Coordinates (Angstroms)
 Number     Number       Type             X           Y           Z
 ---------------------------------------------------------------------
      1          6           0        0.582778   -0.293700    0.855433
      2          6           0        1.292167   -1.478244    0.631508
      3          6           0        2.631060   -1.439123    0.231031
      4          6           0        3.232023   -0.192535    0.063248
      5          6           0        2.551927    1.005135    0.278531
      6          6           0        1.213810    0.942031    0.678542
      7          1           0       -0.457005   -0.333405    1.166353
      8          1           0        0.804666   -2.439353    0.768102
      9          1           0        3.203791   -2.340736    0.050776
     10          1           0        3.064936    1.948208    0.134125
     11          1           0        0.665357    1.863580    0.851722
     12          7           0        4.649038   -0.138424   -0.360473
     13          8           0        5.155655    0.972492   -0.501330
     14          8           0        5.226247   -1.207954   -0.543704
     15          6           0       -3.931913    1.008706   -0.066172
     16          6           0       -2.650216    1.815157   -0.278010
     17          6           0       -2.854029    3.315597   -0.066031
     18          1           0       -4.706323    1.375722   -0.753582
     19          1           0       -4.306188    1.188728    0.951131
     20          1           0       -2.277713    1.632589   -1.294143
     21          1           0       -1.878709    1.446052    0.409852
     22          1           0       -3.203247    3.516919    0.951867
     23          1           0       -3.604518    3.704517   -0.761810
     24          1           0       -1.925208    3.872973   -0.222506
     25          6           0       -3.744200   -0.492987   -0.274518
     26          6           0       -5.025897   -1.299438   -0.062680
     27          6           0       -4.822083   -2.799877   -0.274659
     28          1           0       -3.369924   -0.673008   -1.291820
     29          1           0       -2.969790   -0.860002    0.412893
     30          1           0       -5.797404   -0.930332   -0.750542
     31          1           0       -5.398399   -1.116870    0.953453
     32          1           0       -4.071593   -3.188797    0.421119
     33          1           0       -4.472866   -3.001199   -1.292557
     34          1           0       -5.750904   -3.357254   -0.118184
 ---------------------------------------------------------------------

 SCF Done:  E(RHF) =  -669.534787549     A.U. after   15 cycles
 E2 =    -0.2092406109D+01 EUMP2 =    -0.67162719365853D+03

 The electronic state is 1-A.
 Alpha  occ. eigenvalues --  -20.60716 -20.60711 -15.85770 -11.31122 -11.27692
 Alpha  occ. eigenvalues --  -11.27688 -11.27400 -11.26698 -11.26680 -11.22756
 Alpha  occ. eigenvalues --  -11.22482 -11.22423 -11.22370 -11.22060 -11.21840
 Alpha  occ. eigenvalues --   -1.59792  -1.39346  -1.19293  -1.09451  -1.08688
 Alpha  occ. eigenvalues --   -1.04699  -1.04491  -0.96925  -0.95531  -0.87938
 Alpha  occ. eigenvalues --   -0.86099  -0.82366  -0.80573  -0.79279  -0.77409
 Alpha  occ. eigenvalues --   -0.71988  -0.71115  -0.70438  -0.66096  -0.64947
 Alpha  occ. eigenvalues --   -0.64703  -0.62108  -0.61830  -0.60292  -0.58544
 Alpha  occ. eigenvalues --   -0.56211  -0.55224  -0.53599  -0.53348  -0.53024
 Alpha  occ. eigenvalues --   -0.52786  -0.50866  -0.48877  -0.48745  -0.48738
 Alpha  occ. eigenvalues --   -0.47605  -0.46790  -0.46696  -0.44758  -0.44754
 Alpha  occ. eigenvalues --   -0.37250  -0.36298
 Alpha virt. eigenvalues --    0.05115   0.11315   0.16566   0.19086   0.22387
 Alpha virt. eigenvalues --    0.22972   0.24697   0.25873   0.26230   0.27997
 Alpha virt. eigenvalues --    0.29705   0.30249   0.30911   0.30992   0.32078

 Mulliken charges:
               1
     1  C   -0.173255
     2  C   -0.220044
     3  C   -0.170941
     4  C    0.158146
     5  C   -0.171241
     6  C   -0.220326
     7  H    0.230888
     8  H    0.223111
     9  H    0.275339
    10  H    0.275291
    11  H    0.225205
    12  N    0.488056
    13  O   -0.460642
    14  O   -0.460615
    15  C   -0.299249
    16  C   -0.303340
    17  C   -0.476969
    18  H    0.154598
    19  H    0.150681
    20  H    0.158102
    21  H    0.141170
    22  H    0.156710
    23  H    0.160611
    24  H    0.159359
    25  C   -0.299772
    26  C   -0.300283
    27  C   -0.475957
    28  H    0.153764
    29  H    0.140048
    30  H    0.155463
    31  H    0.153150
    32  H    0.152238
    33  H    0.157051
    34  H    0.163652
 Sum of Mulliken charges =  -0.00000

 Dipole moment (field-independent basis, Debye):
    X=             -5.2624    Y=             -0.1544    Z=              1.3779  Tot=              5.4420
 Quadrupole moment (field-independent basis, Debye-Ang):
   XX=           -126.6347   YY=            -90.5822   ZZ=            -94.4202
   XY=              0.0171   XZ=              5.1033   YZ=             -0.4942

 Normal termination of Gaussian 16 at Thu May  6 10:51:26 2021.
