 Gaussian 16, Revision A.03,
 Gaussian 16:  EM64L-G16RevA.03 25-Dec-2016

 -------------
 #p 6-31g* mp2
 -------------

 ------------------------------------------------------
 Input file generated by CHIRIPA (05-May-2021 14:57:24)
 ------------------------------------------------------
 Symbolic Z-matrix:
 Charge =  0 Multiplicity = 1

                         Standard orientation:
 ---------------------------------------------------------------------
 Center     Atomic      Atomic             Coordinates (Angstroms)
 Number     Number       Type             X           Y           Z
 ---------------------------------------------------------------------
      1          6           0       -4.396446   -0.335131   -1.417151
      2          6           0       -3.975371    0.927181   -0.986122
      3          6           0       -3.001562    1.049115    0.009557
      4          6           0       -2.467717   -0.117469    0.554882
      5          6           0       -2.866521   -1.389305    0.146619
      6          6           0       -3.841655   -1.487314   -0.850404
      7          1           0       -5.153439   -0.420559   -2.191140
      8          1           0       -4.404481    1.823705   -1.424476
      9          1           0       -2.657294    2.013857    0.361935
     10          1           0       -2.420337   -2.264843    0.602439
     11          1           0       -4.166751   -2.468951   -1.183188
     12          7           0       -1.436087   -0.001047    1.609674
     13          8           0       -0.981326   -1.044143    2.074196
     14          8           0       -1.101792    1.131095    1.951926
     15          6           0        1.582826    2.424427   -0.519541
     16          6           0        0.839623    1.289168   -0.859181
     17          6           0        1.413871    0.016589   -0.786186
     18          6           0        2.739727   -0.084516   -0.367651
     19          6           0        3.506157    1.027594   -0.022562
     20          6           0        2.911379    2.290253   -0.103049
     21          1           0        1.128761    3.409144   -0.579154
     22          1           0       -0.192351    1.390356   -1.182964
     23          1           0        0.861411   -0.879036   -1.043216
     24          1           0        4.532749    0.894977    0.296717
     25          1           0        3.490961    3.170155    0.161340
     26          7           0        3.358525   -1.426488   -0.286408
     27          8           0        4.528405   -1.488758    0.085265
     28          8           0        2.661942   -2.390645   -0.595941
 ---------------------------------------------------------------------

 SCF Done:  E(RHF) =  -868.337041784     A.U. after   16 cycles
 E2 =    -0.2603319079D+01 EUMP2 =    -0.87094036086369D+03

 The electronic state is 1-A.
 Alpha  occ. eigenvalues --  -20.61305 -20.61278 -20.60118 -20.60112 -15.86309
 Alpha  occ. eigenvalues --  -15.85172 -11.31887 -11.30486 -11.28492 -11.28365
 Alpha  occ. eigenvalues --  -11.28140 -11.27512 -11.27405 -11.27085 -11.27051
 Alpha  occ. eigenvalues --  -11.26817 -11.26105 -11.26070  -1.60346  -1.59187
 Alpha  occ. eigenvalues --   -1.39898  -1.38746  -1.20057  -1.18652  -1.09395
 Alpha  occ. eigenvalues --   -1.08059  -1.05463  -1.04092  -0.96202  -0.94913
 Alpha  occ. eigenvalues --   -0.86843  -0.85490  -0.83021  -0.81781  -0.78062
 Alpha  occ. eigenvalues --   -0.76832  -0.72538  -0.71708  -0.71405  -0.71103
 Alpha  occ. eigenvalues --   -0.70490  -0.69802  -0.65678  -0.65426  -0.64339
 Alpha  occ. eigenvalues --   -0.64148  -0.62783  -0.61470  -0.55903  -0.54622
 Alpha  occ. eigenvalues --   -0.53804  -0.53519  -0.52349  -0.52197  -0.49321
 Alpha  occ. eigenvalues --   -0.49291  -0.48157  -0.48153  -0.45255  -0.44167
 Alpha  occ. eigenvalues --   -0.38022  -0.37083  -0.36554  -0.35638
 Alpha virt. eigenvalues --    0.04414   0.05764   0.10420   0.12045   0.15953
 Alpha virt. eigenvalues --    0.17237   0.20732   0.21930   0.26570   0.27353
 Alpha virt. eigenvalues --    0.27954   0.28833   0.30565   0.31323   0.31922

 Mulliken charges:
               1
     1  C   -0.171120
     2  C   -0.218915
     3  C   -0.181119
     4  C    0.155313
     5  C   -0.173345
     6  C   -0.217596
     7  H    0.228475
     8  H    0.224593
     9  H    0.273165
    10  H    0.281869
    11  H    0.228132
    12  N    0.489219
    13  O   -0.453236
    14  O   -0.459561
    15  C   -0.163591
    16  C   -0.216236
    17  C   -0.173311
    18  C    0.163002
    19  C   -0.169669
    20  C   -0.217085
    21  H    0.221507
    22  H    0.217915
    23  H    0.271193
    24  H    0.274141
    25  H    0.221434
    26  N    0.489008
    27  O   -0.461925
    28  O   -0.462257
 Sum of Mulliken charges =  -0.00000

 Dipole moment (field-independent basis, Debye):
    X=             -5.9661    Y=              4.1813    Z=             -3.8283  Tot=              8.2301
 Quadrupole moment (field-independent basis, Debye-Ang):
   XX=            -95.4811   YY=           -100.0718   ZZ=           -109.7205
   XY=             16.9729   XZ=              9.2316   YZ=             -1.0307

 Normal termination of Gaussian 16 at Thu May  6 09:50:27 2021.
