 Gaussian 16, Revision A.03,
 Gaussian 16:  EM64L-G16RevA.03 25-Dec-2016

 -------------
 #p 6-31g* mp2
 -------------

 ------------------------------------------------------
 Input file generated by CHIRIPA (05-May-2021 14:55:20)
 ------------------------------------------------------
 Symbolic Z-matrix:
 Charge =  0 Multiplicity = 1

                         Standard orientation:
 ---------------------------------------------------------------------
 Center     Atomic      Atomic             Coordinates (Angstroms)
 Number     Number       Type             X           Y           Z
 ---------------------------------------------------------------------
      1          6           0        4.464553    2.121399    0.199324
      2          6           0        5.002800    0.857572    0.463055
      3          6           0        4.218608   -0.291372    0.323346
      4          6           0        2.894089   -0.139085   -0.083774
      5          6           0        2.328977    1.106273   -0.354000
      6          6           0        3.131709    2.241504   -0.207645
      7          1           0        5.080933    3.008600    0.310435
      8          1           0        6.037587    0.761280    0.779265
      9          1           0        4.609850   -1.281982    0.520932
     10          1           0        1.294111    1.170468   -0.667608
     11          1           0        2.711032    3.221729   -0.413152
     12          7           0        2.054086   -1.348162   -0.235196
     13          8           0        0.890001   -1.187155   -0.595224
     14          8           0        2.575682   -2.433950    0.009015
     15          6           0       -3.844031    0.666483   -0.095582
     16          6           0       -5.108709    1.439621    0.279689
     17          6           0       -5.018206    2.925718   -0.068334
     18          1           0       -2.982471    1.113287    0.419227
     19          1           0       -3.658563    0.781178   -1.172541
     20          1           0       -5.292506    1.322364    1.355368
     21          1           0       -5.967385    0.990805   -0.235923
     22          1           0       -4.858547    3.060678   -1.142994
     23          1           0       -4.179833    3.394120    0.457338
     24          1           0       -5.932857    3.459280    0.208405
     25          6           0       -3.919250   -0.820557    0.246156
     26          6           0       -2.654571   -1.593696   -0.129115
     27          6           0       -2.745073   -3.079793    0.218908
     28          1           0       -4.104717   -0.935253    1.323115
     29          1           0       -4.780807   -1.267361   -0.268653
     30          1           0       -1.795895   -1.144880    0.386497
     31          1           0       -2.470773   -1.476438   -1.204794
     32          1           0       -3.583447   -3.548195   -0.306764
     33          1           0       -2.904734   -3.214752    1.293569
     34          1           0       -1.830422   -3.613355   -0.057831
 ---------------------------------------------------------------------

 SCF Done:  E(RHF) =  -669.535916303     A.U. after   15 cycles
 E2 =    -0.2091081443D+01 EUMP2 =    -0.67162699774667D+03

 The electronic state is 1-A.
 Alpha  occ. eigenvalues --  -20.60920 -20.60913 -15.85949 -11.31281 -11.27846
 Alpha  occ. eigenvalues --  -11.27841 -11.27585 -11.26856 -11.26846 -11.21185
 Alpha  occ. eigenvalues --  -11.20830 -11.20796 -11.20469 -11.20157 -11.19715
 Alpha  occ. eigenvalues --   -1.59983  -1.39538  -1.19452  -1.08855  -1.07651
 Alpha  occ. eigenvalues --   -1.04849  -1.02664  -0.95696  -0.95168  -0.86249
 Alpha  occ. eigenvalues --   -0.86199  -0.82530  -0.78796  -0.77609  -0.77327
 Alpha  occ. eigenvalues --   -0.72166  -0.71298  -0.70559  -0.65107  -0.64851
 Alpha  occ. eigenvalues --   -0.64298  -0.62195  -0.60074  -0.58582  -0.56706
 Alpha  occ. eigenvalues --   -0.55352  -0.54498  -0.53181  -0.52940  -0.51843
 Alpha  occ. eigenvalues --   -0.51590  -0.49169  -0.48935  -0.48928  -0.47082
 Alpha  occ. eigenvalues --   -0.45876  -0.45136  -0.44882  -0.44594  -0.42931
 Alpha  occ. eigenvalues --   -0.37432  -0.36451
 Alpha virt. eigenvalues --    0.04926   0.11203   0.16403   0.21297   0.23504
 Alpha virt. eigenvalues --    0.25177   0.26990   0.27439   0.27796   0.28681
 Alpha virt. eigenvalues --    0.28834   0.30930   0.32100   0.32236   0.32871

 Mulliken charges:
               1
     1  C   -0.170649
     2  C   -0.218582
     3  C   -0.170769
     4  C    0.157772
     5  C   -0.171149
     6  C   -0.218587
     7  H    0.225963
     8  H    0.223758
     9  H    0.275802
    10  H    0.276196
    11  H    0.223947
    12  N    0.491009
    13  O   -0.461854
    14  O   -0.459576
    15  C   -0.296213
    16  C   -0.298729
    17  C   -0.474957
    18  H    0.145587
    19  H    0.148281
    20  H    0.151080
    21  H    0.151788
    22  H    0.154012
    23  H    0.152078
    24  H    0.158948
    25  C   -0.298797
    26  C   -0.297270
    27  C   -0.477981
    28  H    0.146019
    29  H    0.146246
    30  H    0.164101
    31  H    0.152544
    32  H    0.148045
    33  H    0.149139
    34  H    0.172796
 Sum of Mulliken charges =  -0.00000

 Dipole moment (field-independent basis, Debye):
    X=              3.2690    Y=              4.1794    Z=              0.4917  Tot=              5.3288
 Quadrupole moment (field-independent basis, Debye-Ang):
   XX=            -75.8691   YY=            -96.0673   ZZ=            -94.5761
   XY=              9.8200   XZ=              3.1016   YZ=             -0.8806

 Normal termination of Gaussian 16 at Wed May  5 20:34:05 2021.
