 Gaussian 16, Revision A.03,
 Gaussian 16:  EM64L-G16RevA.03 25-Dec-2016

 -------------
 #p 6-31g* mp2
 -------------

 ------------------------------------------------------
 Input file generated by CHIRIPA (05-May-2021 14:55:24)
 ------------------------------------------------------
 Symbolic Z-matrix:
 Charge =  0 Multiplicity = 1

                         Standard orientation:
 ---------------------------------------------------------------------
 Center     Atomic      Atomic             Coordinates (Angstroms)
 Number     Number       Type             X           Y           Z
 ---------------------------------------------------------------------
      1          6           0        0.830314   -0.300176    2.280290
      2          6           0        1.753254    0.724189    2.044961
      3          6           0        2.611958    0.666906    0.943192
      4          6           0        2.520192   -0.434309    0.093372
      5          6           0        1.611275   -1.470663    0.301049
      6          6           0        0.762390   -1.392407    1.409119
      7          1           0        0.167067   -0.247531    3.138618
      8          1           0        1.808234    1.573632    2.719845
      9          1           0        3.335848    1.446034    0.737372
     10          1           0        1.579948   -2.304762   -0.389396
     11          1           0        0.046606   -2.189399    1.589401
     12          7           0        3.424065   -0.506053   -1.076357
     13          8           0        3.323397   -1.486920   -1.810117
     14          8           0        4.216075    0.419939   -1.237282
     15          6           0       -2.594205    1.023196   -0.761580
     16          6           0       -1.601238    1.791090    0.111543
     17          6           0       -0.726162    2.752178   -0.693655
     18          1           0       -2.041697    0.463228   -1.528466
     19          1           0       -3.231969    1.740228   -1.296853
     20          1           0       -0.966450    1.072797    0.646067
     21          1           0       -2.156163    2.349143    0.876560
     22          1           0       -1.343778    3.490923   -1.214622
     23          1           0       -0.147305    2.207326   -1.446425
     24          1           0       -0.023730    3.290670   -0.049856
     25          6           0       -3.476125    0.058364    0.029018
     26          6           0       -4.469091   -0.709530   -0.844105
     27          6           0       -5.344167   -1.670618   -0.038907
     28          1           0       -2.838361   -0.658668    0.564291
     29          1           0       -4.028633    0.618332    0.795905
     30          1           0       -3.914167   -1.267583   -1.609122
     31          1           0       -5.103880    0.008763   -1.378629
     32          1           0       -5.923024   -1.125766    0.713863
     33          1           0       -4.726551   -2.409363    0.482061
     34          1           0       -6.046599   -2.209110   -0.682706
 ---------------------------------------------------------------------

 SCF Done:  E(RHF) =  -669.534920864     A.U. after   15 cycles
 E2 =    -0.2093813942D+01 EUMP2 =    -0.67162873480624D+03

 The electronic state is 1-A.
 Alpha  occ. eigenvalues --  -20.60852 -20.60846 -15.85908 -11.31313 -11.27903
 Alpha  occ. eigenvalues --  -11.27892 -11.27615 -11.26903 -11.26882 -11.21949
 Alpha  occ. eigenvalues --  -11.21797 -11.21681 -11.21588 -11.21464 -11.21203
 Alpha  occ. eigenvalues --   -1.59928  -1.39480  -1.19502  -1.08903  -1.08709
 Alpha  occ. eigenvalues --   -1.04900  -1.03791  -0.96255  -0.95711  -0.87267
 Alpha  occ. eigenvalues --   -0.86294  -0.82536  -0.79868  -0.78551  -0.77575
 Alpha  occ. eigenvalues --   -0.72124  -0.71253  -0.70595  -0.65373  -0.65145
 Alpha  occ. eigenvalues --   -0.64891  -0.62240  -0.61222  -0.59643  -0.57883
 Alpha  occ. eigenvalues --   -0.55570  -0.55393  -0.53279  -0.52985  -0.52893
 Alpha  occ. eigenvalues --   -0.52674  -0.50193  -0.48887  -0.48877  -0.48177
 Alpha  occ. eigenvalues --   -0.46898  -0.46080  -0.46009  -0.44877  -0.44061
 Alpha  occ. eigenvalues --   -0.37351  -0.36499
 Alpha virt. eigenvalues --    0.04941   0.11058   0.16379   0.20855   0.22744
 Alpha virt. eigenvalues --    0.23903   0.25934   0.26791   0.27368   0.27924
 Alpha virt. eigenvalues --    0.28683   0.30580   0.31259   0.31668   0.31866

 Mulliken charges:
               1
     1  C   -0.175248
     2  C   -0.215181
     3  C   -0.169387
     4  C    0.158684
     5  C   -0.171053
     6  C   -0.217461
     7  H    0.227631
     8  H    0.224547
     9  H    0.276478
    10  H    0.276169
    11  H    0.224422
    12  N    0.487951
    13  O   -0.460290
    14  O   -0.459761
    15  C   -0.297397
    16  C   -0.310181
    17  C   -0.473611
    18  H    0.151510
    19  H    0.150405
    20  H    0.162233
    21  H    0.146554
    22  H    0.155435
    23  H    0.158414
    24  H    0.155046
    25  C   -0.296961
    26  C   -0.300039
    27  C   -0.475272
    28  H    0.141441
    29  H    0.148761
    30  H    0.153115
    31  H    0.154036
    32  H    0.155202
    33  H    0.151637
    34  H    0.162170
 Sum of Mulliken charges =  -0.00000

 Dipole moment (field-independent basis, Debye):
    X=             -3.0809    Y=              0.2240    Z=              4.1119  Tot=              5.1429
 Quadrupole moment (field-independent basis, Debye-Ang):
   XX=           -110.6498   YY=            -91.5668   ZZ=            -94.2890
   XY=              3.1540   XZ=             11.2272   YZ=             -0.0345

 Normal termination of Gaussian 16 at Wed May  5 17:37:08 2021.
