 Gaussian 16, Revision A.03,
 Gaussian 16:  EM64L-G16RevA.03 25-Dec-2016

 -------------
 #p 6-31g* mp2
 -------------

 ------------------------------------------------------
 Input file generated by CHIRIPA (05-May-2021 14:51:08)
 ------------------------------------------------------
 Symbolic Z-matrix:
 Charge =  0 Multiplicity = 1

                         Standard orientation:
 ---------------------------------------------------------------------
 Center     Atomic      Atomic             Coordinates (Angstroms)
 Number     Number       Type             X           Y           Z
 ---------------------------------------------------------------------
      1          6           0        2.704626   -0.507515    0.536634
      2          6           0        2.095306   -1.860802    0.904504
      3          6           0        0.795013   -1.727629    1.697788
      4          1           0        2.890939    0.065449    1.455298
      5          1           0        1.974461    0.068646   -0.048424
      6          1           0        2.826915   -2.434789    1.487516
      7          1           0        1.910599   -2.430688   -0.015131
      8          1           0        0.045683   -1.177288    1.119661
      9          1           0        0.967206   -1.181412    2.630846
     10          1           0        0.376650   -2.706968    1.950233
     11          6           0        4.004957   -0.624135   -0.256629
     12          6           0        4.614277    0.729151   -0.624499
     13          6           0        5.914570    0.595978   -1.417783
     14          1           0        4.735122   -1.200297    0.328429
     15          1           0        3.818644   -1.197100   -1.175293
     16          1           0        4.798984    1.299038    0.295136
     17          1           0        3.882668    1.303139   -1.207511
     18          1           0        5.742377    0.049761   -2.350841
     19          1           0        6.663900    0.045637   -0.839656
     20          1           0        6.332933    1.575317   -1.670228
     21          6           0       -3.218102    1.242865    0.186133
     22          6           0       -1.732053    1.597809    0.246600
     23          6           0       -1.474650    2.955135    0.901735
     24          1           0       -3.753447    2.026288   -0.367582
     25          1           0       -3.629787    1.243286    1.204912
     26          1           0       -1.322975    1.595364   -0.771863
     27          1           0       -1.200153    0.813353    0.800070
     28          1           0       -1.856074    2.966134    1.927891
     29          1           0       -1.979595    3.752587    0.347026
     30          1           0       -0.405936    3.188881    0.934516
     31          6           0       -3.491481   -0.111215   -0.466138
     32          6           0       -4.977530   -0.466158   -0.526605
     33          6           0       -5.234933   -1.823484   -1.181740
     34          1           0       -3.079797   -0.111635   -1.484917
     35          1           0       -2.956137   -0.894637    0.087577
     36          1           0       -5.509430    0.318298   -1.080075
     37          1           0       -5.386608   -0.463713    0.491858
     38          1           0       -4.729989   -2.620936   -0.627031
     39          1           0       -4.853508   -1.834483   -2.207896
     40          1           0       -6.303646   -2.057230   -1.214521
 ---------------------------------------------------------------------

 SCF Done:  E(RHF) =  -470.733358096     A.U. after   11 cycles
 E2 =    -0.1582829932D+01 EUMP2 =    -0.47231618802810D+03

 The electronic state is 1-A.
 Alpha  occ. eigenvalues --  -11.21608 -11.21603 -11.21601 -11.21585 -11.21408
 Alpha  occ. eigenvalues --  -11.21400 -11.21347 -11.21340 -11.21081 -11.21070
 Alpha  occ. eigenvalues --  -11.21070 -11.21056  -1.08441  -1.08420  -1.03549
 Alpha  occ. eigenvalues --   -1.03512  -0.95987  -0.95972  -0.87017  -0.86979
 Alpha  occ. eigenvalues --   -0.79661  -0.79539  -0.78298  -0.78190  -0.65114
 Alpha  occ. eigenvalues --   -0.65014  -0.61015  -0.60854  -0.59391  -0.59305
 Alpha  occ. eigenvalues --   -0.57613  -0.57568  -0.55286  -0.55254  -0.52681
 Alpha  occ. eigenvalues --   -0.52672  -0.52453  -0.52368  -0.50000  -0.49870
 Alpha  occ. eigenvalues --   -0.48083  -0.47796  -0.46765  -0.46518  -0.45926
 Alpha  occ. eigenvalues --   -0.45756  -0.45718  -0.45428  -0.43788  -0.43779
 Alpha virt. eigenvalues --    0.21306   0.23069   0.23704   0.24526   0.25520
 Alpha virt. eigenvalues --    0.26492   0.27094   0.27363   0.28295   0.29099
 Alpha virt. eigenvalues --    0.30939   0.31495   0.31758   0.31874   0.31940

 Mulliken charges:
               1
     1  C   -0.299360
     2  C   -0.299112
     3  C   -0.483704
     4  H    0.149409
     5  H    0.150999
     6  H    0.151933
     7  H    0.152086
     8  H    0.162643
     9  H    0.154932
    10  H    0.160168
    11  C   -0.298306
    12  C   -0.299664
    13  C   -0.475705
    14  H    0.149525
    15  H    0.149680
    16  H    0.151901
    17  H    0.151935
    18  H    0.155179
    19  H    0.155185
    20  H    0.160244
    21  C   -0.297645
    22  C   -0.308533
    23  C   -0.475234
    24  H    0.149645
    25  H    0.149692
    26  H    0.150836
    27  H    0.160881
    28  H    0.155246
    29  H    0.154989
    30  H    0.160658
    31  C   -0.299914
    32  C   -0.299613
    33  C   -0.475755
    34  H    0.149128
    35  H    0.150843
    36  H    0.152015
    37  H    0.152114
    38  H    0.155364
    39  H    0.155048
    40  H    0.160267
 Sum of Mulliken charges =  -0.00000

 Dipole moment (field-independent basis, Debye):
    X=             -0.0017    Y=             -0.0012    Z=              0.0067  Tot=              0.0070
 Quadrupole moment (field-independent basis, Debye-Ang):
   XX=            -85.5299   YY=            -85.5427   ZZ=            -83.7163
   XY=             -0.4152   XZ=              0.8979   YZ=             -0.7872

 Normal termination of Gaussian 16 at Thu May  6 11:33:18 2021.
