 Gaussian 16, Revision A.03,
 Gaussian 16:  EM64L-G16RevA.03 25-Dec-2016

 -------------
 #p 6-31g* mp2
 -------------

 ------------------------------------------------------
 Input file generated by CHIRIPA (05-May-2021 14:53:12)
 ------------------------------------------------------
 Symbolic Z-matrix:
 Charge =  0 Multiplicity = 1

                         Standard orientation:
 ---------------------------------------------------------------------
 Center     Atomic      Atomic             Coordinates (Angstroms)
 Number     Number       Type             X           Y           Z
 ---------------------------------------------------------------------
      1          6           0       -3.479517    0.918675   -0.012589
      2          6           0       -2.619366    2.134928   -0.357340
      3          6           0       -3.447546    3.400866   -0.579410
      4          1           0       -4.203003    0.748038   -0.821537
      5          1           0       -4.066147    1.137281    0.890445
      6          1           0       -2.033499    1.913586   -1.258663
      7          1           0       -1.897716    2.302575    0.452433
      8          1           0       -4.020431    3.649124    0.319907
      9          1           0       -4.156985    3.257925   -1.400911
     10          1           0       -2.812731    4.258029   -0.824646
     11          6           0       -2.665911   -0.354587    0.212302
     12          6           0       -3.526062   -1.570840    0.557053
     13          6           0       -2.697882   -2.836777    0.779123
     14          1           0       -2.079280   -0.573193   -0.690732
     15          1           0       -1.942425   -0.183950    1.021250
     16          1           0       -4.247711   -1.738486   -0.252720
     17          1           0       -4.111929   -1.349498    1.458377
     18          1           0       -1.988442   -2.693836    1.600624
     19          1           0       -2.124996   -3.085035   -0.120194
     20          1           0       -3.332697   -3.693941    1.024360
     21          6           0        3.972472    1.434487    0.997409
     22          6           0        4.112335    1.114598   -0.357077
     23          6           0        3.247068    0.199059   -0.963417
     24          6           0        2.248591   -0.380330   -0.181981
     25          6           0        2.083707   -0.082153    1.169757
     26          6           0        2.960389    0.836145    1.755167
     27          1           0        4.649066    2.146771    1.460300
     28          1           0        4.897418    1.577729   -0.948008
     29          1           0        3.332813   -0.066709   -2.010047
     30          1           0        1.291464   -0.560152    1.733037
     31          1           0        2.849409    1.082675    2.807284
     32          7           0        1.326529   -1.351031   -0.812808
     33          8           0        0.455004   -1.847688   -0.102588
     34          8           0        1.492802   -1.596828   -2.005524
 ---------------------------------------------------------------------

 SCF Done:  E(RHF) =  -669.535461302     A.U. after   15 cycles
 E2 =    -0.2092832941D+01 EUMP2 =    -0.67162829424282D+03

 The electronic state is 1-A.
 Alpha  occ. eigenvalues --  -20.60975 -20.60940 -15.85969 -11.31289 -11.27853
 Alpha  occ. eigenvalues --  -11.27848 -11.27587 -11.26858 -11.26848 -11.21161
 Alpha  occ. eigenvalues --  -11.20749 -11.20664 -11.20483 -11.20257 -11.19488
 Alpha  occ. eigenvalues --   -1.60020  -1.39577  -1.19456  -1.08865  -1.07585
 Alpha  occ. eigenvalues --   -1.04852  -1.02654  -0.95712  -0.95074  -0.86254
 Alpha  occ. eigenvalues --   -0.86087  -0.82554  -0.78792  -0.77675  -0.77245
 Alpha  occ. eigenvalues --   -0.72196  -0.71320  -0.70567  -0.65114  -0.64860
 Alpha  occ. eigenvalues --   -0.64233  -0.62201  -0.60068  -0.58517  -0.56668
 Alpha  occ. eigenvalues --   -0.55359  -0.54357  -0.53182  -0.52946  -0.51820
 Alpha  occ. eigenvalues --   -0.51481  -0.49091  -0.48975  -0.48916  -0.47035
 Alpha  occ. eigenvalues --   -0.45834  -0.45385  -0.44786  -0.44322  -0.42910
 Alpha  occ. eigenvalues --   -0.37430  -0.36451
 Alpha virt. eigenvalues --    0.04907   0.11186   0.16397   0.21091   0.23473
 Alpha virt. eigenvalues --    0.24896   0.26460   0.27566   0.27880   0.28676
 Alpha virt. eigenvalues --    0.29118   0.30921   0.31772   0.32413   0.32759

 Mulliken charges:
               1
     1  C   -0.298141
     2  C   -0.298310
     3  C   -0.474839
     4  H    0.148795
     5  H    0.145367
     6  H    0.152282
     7  H    0.146518
     8  H    0.153716
     9  H    0.155701
    10  H    0.157007
    11  C   -0.294433
    12  C   -0.300762
    13  C   -0.472536
    14  H    0.161542
    15  H    0.142303
    16  H    0.148453
    17  H    0.144155
    18  H    0.151553
    19  H    0.175793
    20  H    0.149578
    21  C   -0.170466
    22  C   -0.218541
    23  C   -0.170529
    24  C    0.158126
    25  C   -0.170680
    26  C   -0.218594
    27  H    0.225999
    28  H    0.223788
    29  H    0.275722
    30  H    0.275927
    31  H    0.223782
    32  N    0.491665
    33  O   -0.459824
    34  O   -0.460118
 Sum of Mulliken charges =  -0.00000

 Dipole moment (field-independent basis, Debye):
    X=              3.5431    Y=              3.2664    Z=              2.0833  Tot=              5.2501
 Quadrupole moment (field-independent basis, Debye-Ang):
   XX=            -80.7759   YY=            -99.3488   ZZ=            -91.0962
   XY=              7.5811   XZ=              2.5600   YZ=             -1.2988

 Normal termination of Gaussian 16 at Thu May  6 05:43:32 2021.
