 Gaussian 16, Revision A.03,
 Gaussian 16:  EM64L-G16RevA.03 25-Dec-2016

 -------------
 #p 6-31g* mp2
 -------------

 ------------------------------------------------------
 Input file generated by CHIRIPA (05-May-2021 14:53:12)
 ------------------------------------------------------
 Symbolic Z-matrix:
 Charge =  0 Multiplicity = 1

                         Standard orientation:
 ---------------------------------------------------------------------
 Center     Atomic      Atomic             Coordinates (Angstroms)
 Number     Number       Type             X           Y           Z
 ---------------------------------------------------------------------
      1          6           0       -4.006617    0.826298   -0.112782
      2          6           0       -3.149858    2.087243    0.005395
      3          6           0       -3.946746    3.368643   -0.241139
      4          1           0       -4.460006    0.791142   -1.112856
      5          1           0       -4.836615    0.886793    0.604741
      6          1           0       -2.320932    2.023759   -0.711172
      7          1           0       -2.698303    2.119303    1.005238
      8          1           0       -4.764106    3.459055    0.481599
      9          1           0       -4.384591    3.362968   -1.244563
     10          1           0       -3.314900    4.257819   -0.151717
     11          6           0       -3.224092   -0.462865    0.131025
     12          6           0       -4.080851   -1.723810    0.012849
     13          6           0       -3.283963   -3.005210    0.259382
     14          1           0       -2.394094   -0.523360   -0.586497
     15          1           0       -2.770703   -0.427709    1.131099
     16          1           0       -4.532406   -1.755870   -0.986994
     17          1           0       -4.909777   -1.660326    0.729415
     18          1           0       -2.846118   -2.999535    1.262806
     19          1           0       -2.466603   -3.095622   -0.463356
     20          1           0       -3.915809   -3.894386    0.169960
     21          6           0        4.745888    1.488310    0.120845
     22          6           0        3.432509    1.939803    0.287315
     23          6           0        2.360162    1.045447    0.218409
     24          6           0        2.638742   -0.299575   -0.019498
     25          6           0        3.936246   -0.780054   -0.189542
     26          6           0        4.993129    0.132214   -0.116633
     27          1           0        5.572905    2.190025    0.175928
     28          1           0        3.237516    2.992401    0.471864
     29          1           0        1.333639    1.367935    0.343592
     30          1           0        4.099197   -1.835272   -0.372241
     31          1           0        6.012094   -0.221255   -0.246304
     32          7           0        1.511683   -1.255871   -0.094564
     33          8           0        1.783646   -2.435825   -0.305232
     34          8           0        0.377671   -0.807353    0.058688
 ---------------------------------------------------------------------

 SCF Done:  E(RHF) =  -669.535881930     A.U. after   15 cycles
 E2 =    -0.2091342102D+01 EUMP2 =    -0.67162722403195D+03

 The electronic state is 1-A.
 Alpha  occ. eigenvalues --  -20.60910 -20.60905 -15.85944 -11.31275 -11.27841
 Alpha  occ. eigenvalues --  -11.27834 -11.27581 -11.26851 -11.26840 -11.20997
 Alpha  occ. eigenvalues --  -11.20662 -11.20472 -11.20358 -11.19899 -11.19609
 Alpha  occ. eigenvalues --   -1.59976  -1.39531  -1.19446  -1.08850  -1.07388
 Alpha  occ. eigenvalues --   -1.04843  -1.02554  -0.95690  -0.94978  -0.86243
 Alpha  occ. eigenvalues --   -0.85992  -0.82525  -0.78674  -0.77597  -0.77060
 Alpha  occ. eigenvalues --   -0.72157  -0.71293  -0.70553  -0.65101  -0.64845
 Alpha  occ. eigenvalues --   -0.64033  -0.62189  -0.59964  -0.58414  -0.56569
 Alpha  occ. eigenvalues --   -0.55347  -0.54260  -0.53176  -0.52934  -0.51748
 Alpha  occ. eigenvalues --   -0.51367  -0.48967  -0.48924  -0.48887  -0.46958
 Alpha  occ. eigenvalues --   -0.45729  -0.45003  -0.44634  -0.44419  -0.42769
 Alpha  occ. eigenvalues --   -0.37427  -0.36445
 Alpha virt. eigenvalues --    0.04941   0.11209   0.16428   0.21238   0.23687
 Alpha virt. eigenvalues --    0.25267   0.26862   0.27572   0.27759   0.28928
 Alpha virt. eigenvalues --    0.29131   0.31085   0.32246   0.32387   0.32450

 Mulliken charges:
               1
     1  C   -0.298052
     2  C   -0.298067
     3  C   -0.474610
     4  H    0.146447
     5  H    0.145465
     6  H    0.150791
     7  H    0.149157
     8  H    0.154546
     9  H    0.154625
    10  H    0.154766
    11  C   -0.300077
    12  C   -0.300078
    13  C   -0.474017
    14  H    0.168894
    15  H    0.150476
    16  H    0.146835
    17  H    0.145355
    18  H    0.155560
    19  H    0.166997
    20  H    0.152274
    21  C   -0.170633
    22  C   -0.218626
    23  C   -0.171450
    24  C    0.157499
    25  C   -0.170640
    26  C   -0.218626
    27  H    0.225923
    28  H    0.223912
    29  H    0.276595
    30  H    0.275778
    31  H    0.223722
    32  N    0.492510
    33  O   -0.459573
    34  O   -0.463677
 Sum of Mulliken charges =  -0.00000

 Dipole moment (field-independent basis, Debye):
    X=              4.2946    Y=              3.2472    Z=              0.2356  Tot=              5.3892
 Quadrupole moment (field-independent basis, Debye-Ang):
   XX=            -73.6257   YY=            -95.8816   ZZ=            -94.6003
   XY=              5.6644   XZ=             -0.1894   YZ=              0.8925

 Normal termination of Gaussian 16 at Thu May  6 02:31:04 2021.
