 Gaussian 16, Revision A.03,
 Gaussian 16:  EM64L-G16RevA.03 25-Dec-2016

 -------------
 #p 6-31g* mp2
 -------------

 ------------------------------------------------------
 Input file generated by CHIRIPA (05-May-2021 14:51:13)
 ------------------------------------------------------
 Symbolic Z-matrix:
 Charge =  0 Multiplicity = 1

                         Standard orientation:
 ---------------------------------------------------------------------
 Center     Atomic      Atomic             Coordinates (Angstroms)
 Number     Number       Type             X           Y           Z
 ---------------------------------------------------------------------
      1          6           0       -1.905340   -1.388419   -0.377624
      2          6           0       -1.578441   -2.612685    0.478118
      3          6           0       -0.857201   -3.707932   -0.308038
      4          1           0       -2.525636   -1.699376   -1.229377
      5          1           0       -0.974235   -0.985509   -0.799645
      6          1           0       -2.509737   -3.012342    0.899519
      7          1           0       -0.959011   -2.298746    1.328038
      8          1           0        0.086688   -3.331640   -0.715566
      9          1           0       -1.472849   -4.049291   -1.146520
     10          1           0       -0.633143   -4.573715    0.322896
     11          6           0       -2.626473   -0.284824    0.394240
     12          6           0       -2.953371    0.939443   -0.461502
     13          6           0       -3.674612    2.034689    0.324654
     14          1           0       -3.557578   -0.687733    0.816261
     15          1           0       -2.006177    0.026134    1.245993
     16          1           0       -3.572802    0.625504   -1.311422
     17          1           0       -2.022076    1.339100   -0.882903
     18          1           0       -3.058964    2.376048    1.163136
     19          1           0       -4.618501    1.658398    0.732182
     20          1           0       -3.898670    2.900473   -0.306279
     21          6           0        2.180965    1.538574    0.280618
     22          6           0        1.235529    2.420137   -0.536072
     23          6           0        1.075833    3.821370    0.054552
     24          1           0        1.804486    1.463442    1.309970
     25          1           0        3.163937    2.025792    0.342097
     26          1           0        0.255030    1.930744   -0.597160
     27          1           0        1.614199    2.493024   -1.563648
     28          1           0        2.042836    4.332656    0.100292
     29          1           0        0.675944    3.767181    1.072272
     30          1           0        0.395842    4.434626   -0.544938
     31          6           0        2.350848    0.134668   -0.297235
     32          6           0        3.296284   -0.746894    0.519456
     33          6           0        3.455980   -2.148127   -0.071168
     34          1           0        1.367876   -0.352550   -0.358714
     35          1           0        2.727327    0.209801   -1.326586
     36          1           0        2.917613   -0.819781    1.547032
     37          1           0        4.276783   -0.257500    0.580543
     38          1           0        3.855868   -2.093938   -1.088888
     39          1           0        2.488977   -2.659414   -0.116908
     40          1           0        4.135971   -2.761383    0.528322
 ---------------------------------------------------------------------

 SCF Done:  E(RHF) =  -470.732756797     A.U. after   11 cycles
 E2 =    -0.1585172515D+01 EUMP2 =    -0.47231792931195D+03

 The electronic state is 1-A.
 Alpha  occ. eigenvalues --  -11.21660 -11.21649 -11.21648 -11.21623 -11.21465
 Alpha  occ. eigenvalues --  -11.21454 -11.21406 -11.21394 -11.21117 -11.21114
 Alpha  occ. eigenvalues --  -11.21094 -11.21094  -1.08530  -1.08447  -1.03618
 Alpha  occ. eigenvalues --   -1.03539  -0.96061  -0.95990  -0.87090  -0.86994
 Alpha  occ. eigenvalues --   -0.79736  -0.79553  -0.78444  -0.78175  -0.65471
 Alpha  occ. eigenvalues --   -0.64793  -0.61305  -0.60688  -0.59436  -0.59335
 Alpha  occ. eigenvalues --   -0.57726  -0.57566  -0.55575  -0.55073  -0.52732
 Alpha  occ. eigenvalues --   -0.52696  -0.52551  -0.52350  -0.50233  -0.49673
 Alpha  occ. eigenvalues --   -0.48190  -0.47806  -0.46978  -0.46511  -0.46274
 Alpha  occ. eigenvalues --   -0.45833  -0.45794  -0.45066  -0.43840  -0.43818
 Alpha virt. eigenvalues --    0.18929   0.21416   0.24041   0.25128   0.25754
 Alpha virt. eigenvalues --    0.25961   0.26554   0.27736   0.28887   0.29529
 Alpha virt. eigenvalues --    0.30983   0.31428   0.31655   0.31807   0.32014

 Mulliken charges:
               1
     1  C   -0.305718
     2  C   -0.299778
     3  C   -0.481001
     4  H    0.150469
     5  H    0.155384
     6  H    0.152531
     7  H    0.151481
     8  H    0.159485
     9  H    0.155824
    10  H    0.160706
    11  C   -0.298032
    12  C   -0.307370
    13  C   -0.475378
    14  H    0.150056
    15  H    0.148918
    16  H    0.152505
    17  H    0.158743
    18  H    0.155127
    19  H    0.155299
    20  H    0.160467
    21  C   -0.297187
    22  C   -0.309326
    23  C   -0.475182
    24  H    0.149131
    25  H    0.150068
    26  H    0.159785
    27  H    0.152291
    28  H    0.155523
    29  H    0.154905
    30  H    0.160646
    31  C   -0.306850
    32  C   -0.298944
    33  C   -0.481527
    34  H    0.156381
    35  H    0.150001
    36  H    0.151699
    37  H    0.152299
    38  H    0.155334
    39  H    0.160503
    40  H    0.160733
 Sum of Mulliken charges =  -0.00000

 Dipole moment (field-independent basis, Debye):
    X=             -0.0049    Y=              0.0005    Z=             -0.0160  Tot=              0.0168
 Quadrupole moment (field-independent basis, Debye-Ang):
   XX=            -83.6022   YY=            -86.2988   ZZ=            -84.6808
   XY=              1.3416   XZ=              0.0875   YZ=             -0.7800

 Normal termination of Gaussian 16 at Wed May  5 19:57:34 2021.
