 Gaussian 16, Revision A.03,
 Gaussian 16:  EM64L-G16RevA.03 25-Dec-2016

 -------------
 #p 6-31g* mp2
 -------------

 ------------------------------------------------------
 Input file generated by CHIRIPA (05-May-2021 14:51:11)
 ------------------------------------------------------
 Symbolic Z-matrix:
 Charge =  0 Multiplicity = 1

                         Standard orientation:
 ---------------------------------------------------------------------
 Center     Atomic      Atomic             Coordinates (Angstroms)
 Number     Number       Type             X           Y           Z
 ---------------------------------------------------------------------
      1          6           0        3.168635    0.086264    0.013921
      2          6           0        4.693283    0.193548    0.057779
      3          6           0        5.181636    1.639224    0.154355
      4          1           0        2.791546    0.660231   -0.843582
      5          1           0        2.748883    0.556712    0.913856
      6          1           0        5.110101   -0.278187   -0.841301
      7          1           0        5.066801   -0.380898    0.915166
      8          1           0        4.793444    2.117324    1.059523
      9          1           0        4.836990    2.220618   -0.706923
     10          1           0        6.274384    1.692683    0.184419
     11          6           0        2.665113   -1.352787   -0.082641
     12          6           0        1.140465   -1.460071   -0.126500
     13          6           0        0.652113   -2.905747   -0.223075
     14          1           0        3.084865   -1.823235   -0.982576
     15          1           0        3.042203   -1.926754    0.774861
     16          1           0        0.766948   -0.885625   -0.983886
     17          1           0        0.723648   -0.988336    0.772581
     18          1           0        0.996759   -3.487141    0.638203
     19          1           0        1.040305   -3.383847   -1.128244
     20          1           0       -0.440635   -2.959206   -0.253139
     21          6           0       -3.081430    1.366909   -0.100230
     22          6           0       -1.889019    2.302626    0.101206
     23          6           0       -2.233955    3.766959   -0.171819
     24          1           0       -3.452229    1.472089   -1.129011
     25          1           0       -3.900881    1.680989    0.561016
     26          1           0       -1.071571    1.986033   -0.559221
     27          1           0       -1.520896    2.195065    1.129570
     28          1           0       -3.032582    4.105613    0.496096
     29          1           0       -2.580704    3.895393   -1.202289
     30          1           0       -1.367260    4.418271   -0.021840
     31          6           0       -2.752320   -0.100386    0.168951
     32          6           0       -3.944729   -1.036103   -0.032485
     33          6           0       -3.599794   -2.500436    0.240538
     34          1           0       -1.932868   -0.414467   -0.492297
     35          1           0       -2.381520   -0.205566    1.197731
     36          1           0       -4.312853   -0.928543   -1.060849
     37          1           0       -4.762178   -0.719510    0.627942
     38          1           0       -3.253044   -2.628870    1.271010
     39          1           0       -2.801168   -2.839090   -0.427376
     40          1           0       -4.466489   -3.151747    0.090560
 ---------------------------------------------------------------------

 SCF Done:  E(RHF) =  -470.732971644     A.U. after   11 cycles
 E2 =    -0.1583791600D+01 EUMP2 =    -0.47231676324376D+03

 The electronic state is 1-A.
 Alpha  occ. eigenvalues --  -11.21605 -11.21588 -11.21579 -11.21556 -11.21382
 Alpha  occ. eigenvalues --  -11.21381 -11.21321 -11.21319 -11.21093 -11.21062
 Alpha  occ. eigenvalues --  -11.21057 -11.20991  -1.08439  -1.08386  -1.03547
 Alpha  occ. eigenvalues --   -1.03484  -0.95987  -0.95945  -0.87032  -0.86935
 Alpha  occ. eigenvalues --   -0.79596  -0.79565  -0.78341  -0.78105  -0.65090
 Alpha  occ. eigenvalues --   -0.65006  -0.60955  -0.60893  -0.59484  -0.59204
 Alpha  occ. eigenvalues --   -0.57635  -0.57525  -0.55284  -0.55235  -0.52773
 Alpha  occ. eigenvalues --   -0.52670  -0.52432  -0.52251  -0.49938  -0.49879
 Alpha  occ. eigenvalues --   -0.47971  -0.47786  -0.46626  -0.46597  -0.45977
 Alpha  occ. eigenvalues --   -0.45794  -0.45606  -0.45460  -0.43778  -0.43732
 Alpha virt. eigenvalues --    0.21052   0.23088   0.23375   0.24583   0.25451
 Alpha virt. eigenvalues --    0.26128   0.26791   0.27366   0.28288   0.29493
 Alpha virt. eigenvalues --    0.30486   0.31316   0.31692   0.31786   0.32588

 Mulliken charges:
               1
     1  C   -0.298095
     2  C   -0.299605
     3  C   -0.475659
     4  H    0.149217
     5  H    0.149761
     6  H    0.151851
     7  H    0.151922
     8  H    0.155175
     9  H    0.155102
    10  H    0.160193
    11  C   -0.298606
    12  C   -0.299743
    13  C   -0.484483
    14  H    0.149232
    15  H    0.149605
    16  H    0.150661
    17  H    0.154264
    18  H    0.155221
    19  H    0.154371
    20  H    0.168302
    21  C   -0.298273
    22  C   -0.299873
    23  C   -0.475747
    24  H    0.149339
    25  H    0.149380
    26  H    0.152803
    27  H    0.151607
    28  H    0.155083
    29  H    0.155012
    30  H    0.160331
    31  C   -0.303408
    32  C   -0.299636
    33  C   -0.480318
    34  H    0.156659
    35  H    0.149280
    36  H    0.151731
    37  H    0.151940
    38  H    0.155518
    39  H    0.159113
    40  H    0.160775
 Sum of Mulliken charges =  -0.00000

 Dipole moment (field-independent basis, Debye):
    X=             -0.0210    Y=             -0.0016    Z=              0.0101  Tot=              0.0234
 Quadrupole moment (field-independent basis, Debye-Ang):
   XX=            -85.0835   YY=            -87.0159   ZZ=            -82.7693
   XY=             -0.3577   XZ=             -0.3016   YZ=              0.1427

 Normal termination of Gaussian 16 at Wed May  5 16:43:45 2021.
