 Gaussian 16, Revision A.03,
 Gaussian 16:  EM64L-G16RevA.03 25-Dec-2016

 -------------
 #p 6-31g* mp2
 -------------

 ------------------------------------------------------
 Input file generated by CHIRIPA (05-May-2021 14:51:09)
 ------------------------------------------------------
 Symbolic Z-matrix:
 Charge =  0 Multiplicity = 1

                         Standard orientation:
 ---------------------------------------------------------------------
 Center     Atomic      Atomic             Coordinates (Angstroms)
 Number     Number       Type             X           Y           Z
 ---------------------------------------------------------------------
      1          6           0        1.858298   -0.229957    0.700393
      2          6           0        1.526534   -1.171641    1.858473
      3          6           0        0.151138   -0.897797    2.467642
      4          1           0        1.813440    0.808477    1.056184
      5          1           0        1.086461   -0.328139   -0.075509
      6          1           0        2.299512   -1.072726    2.631348
      7          1           0        1.572374   -2.207963    1.499930
      8          1           0       -0.634328   -1.015806    1.714172
      9          1           0        0.096941    0.125882    2.852018
     10          1           0       -0.065572   -1.582278    3.293708
     11          6           0        3.230078   -0.491296    0.080999
     12          6           0        3.561842    0.450388   -1.077081
     13          6           0        4.937238    0.176544   -1.686250
     14          1           0        4.001915   -0.393115    0.856901
     15          1           0        3.274936   -1.529730   -0.274792
     16          1           0        3.516002    1.486710   -0.718538
     17          1           0        2.788864    0.351472   -1.849956
     18          1           0        4.991435   -0.847135   -2.070626
     19          1           0        5.722705    0.294552   -0.932780
     20          1           0        5.153948    0.861025   -2.512316
     21          6           0       -2.953145   -0.137403   -0.800760
     22          6           0       -2.654475   -1.596756   -0.455695
     23          6           0       -3.480383   -2.581112   -1.284375
     24          1           0       -4.023061    0.057869   -0.645534
     25          1           0       -2.757248    0.026907   -1.869414
     26          1           0       -2.849554   -1.757922    0.612287
     27          1           0       -1.585109   -1.788525   -0.611577
     28          1           0       -3.279105   -2.449247   -2.352410
     29          1           0       -4.550733   -2.418470   -1.121592
     30          1           0       -3.251017   -3.618479   -1.021464
     31          6           0       -2.135231    0.858656    0.019368
     32          6           0       -2.433902    2.318009   -0.325697
     33          6           0       -1.607993    3.302365    0.502982
     34          1           0       -2.331128    0.694346    1.088022
     35          1           0       -1.065316    0.663384   -0.135858
     36          1           0       -3.503266    2.509778   -0.169815
     37          1           0       -2.238822    2.479175   -1.393679
     38          1           0       -0.537642    3.139723    0.340200
     39          1           0       -1.809271    3.170500    1.571018
     40          1           0       -1.837359    4.339732    0.240072
 ---------------------------------------------------------------------

 SCF Done:  E(RHF) =  -470.731209005     A.U. after   11 cycles
 E2 =    -0.1585701159D+01 EUMP2 =    -0.47231691016450D+03

 The electronic state is 1-A.
 Alpha  occ. eigenvalues --  -11.21681 -11.21636 -11.21553 -11.21547 -11.21419
 Alpha  occ. eigenvalues --  -11.21395 -11.21360 -11.21245 -11.21124 -11.21094
 Alpha  occ. eigenvalues --  -11.21040 -11.20825  -1.08501  -1.08377  -1.03542
 Alpha  occ. eigenvalues --   -1.03501  -0.96007  -0.95927  -0.87004  -0.86971
 Alpha  occ. eigenvalues --   -0.79648  -0.79620  -0.78547  -0.77941  -0.65195
 Alpha  occ. eigenvalues --   -0.64954  -0.60942  -0.60915  -0.59371  -0.59314
 Alpha  occ. eigenvalues --   -0.57714  -0.57464  -0.55332  -0.55190  -0.52732
 Alpha  occ. eigenvalues --   -0.52635  -0.52454  -0.52330  -0.49970  -0.49877
 Alpha  occ. eigenvalues --   -0.48055  -0.47917  -0.46818  -0.46642  -0.46308
 Alpha  occ. eigenvalues --   -0.45756  -0.45584  -0.44792  -0.43776  -0.43756
 Alpha virt. eigenvalues --    0.20948   0.23296   0.23421   0.24027   0.25173
 Alpha virt. eigenvalues --    0.25847   0.26630   0.28234   0.28627   0.30209
 Alpha virt. eigenvalues --    0.30649   0.30841   0.31757   0.31906   0.32072

 Mulliken charges:
               1
     1  C   -0.304341
     2  C   -0.298968
     3  C   -0.485396
     4  H    0.150272
     5  H    0.152601
     6  H    0.151438
     7  H    0.151099
     8  H    0.170353
     9  H    0.153961
    10  H    0.158050
    11  C   -0.297361
    12  C   -0.299659
    13  C   -0.475681
    14  H    0.149903
    15  H    0.149569
    16  H    0.151884
    17  H    0.151143
    18  H    0.155229
    19  H    0.155398
    20  H    0.160292
    21  C   -0.296673
    22  C   -0.305072
    23  C   -0.474965
    24  H    0.149629
    25  H    0.148934
    26  H    0.154100
    27  H    0.152010
    28  H    0.155249
    29  H    0.155669
    30  H    0.160430
    31  C   -0.309942
    32  C   -0.298479
    33  C   -0.476432
    34  H    0.152462
    35  H    0.159702
    36  H    0.151450
    37  H    0.151296
    38  H    0.155851
    39  H    0.154981
    40  H    0.160014
 Sum of Mulliken charges =  -0.00000

 Dipole moment (field-independent basis, Debye):
    X=             -0.0301    Y=             -0.0069    Z=             -0.0133  Tot=              0.0336
 Quadrupole moment (field-independent basis, Debye-Ang):
   XX=            -85.2502   YY=            -85.1246   ZZ=            -84.5689
   XY=              0.0005   XZ=             -0.0651   YZ=              0.0376

 Normal termination of Gaussian 16 at Wed May  5 23:00:32 2021.
