 Gaussian 16, Revision A.03,
 Gaussian 16:  EM64L-G16RevA.03 25-Dec-2016

 -------------
 #p 6-31g* mp2
 -------------

 ------------------------------------------------------
 Input file generated by CHIRIPA (05-May-2021 14:53:12)
 ------------------------------------------------------
 Symbolic Z-matrix:
 Charge =  0 Multiplicity = 1

                         Standard orientation:
 ---------------------------------------------------------------------
 Center     Atomic      Atomic             Coordinates (Angstroms)
 Number     Number       Type             X           Y           Z
 ---------------------------------------------------------------------
      1          6           0       -3.935439    0.177899    0.203344
      2          6           0       -3.723930   -1.336222    0.177089
      3          6           0       -4.927388   -2.110647    0.715372
      4          1           0       -4.145806    0.494520    1.234093
      5          1           0       -4.827284    0.426845   -0.388291
      6          1           0       -2.831954   -1.582106    0.767457
      7          1           0       -3.513853   -1.649249   -0.853686
      8          1           0       -5.821487   -1.894454    0.121698
      9          1           0       -5.135713   -1.826929    1.752052
     10          1           0       -4.754688   -3.191043    0.687477
     11          6           0       -2.741014    0.965811   -0.331698
     12          6           0       -2.952522    2.479932   -0.305442
     13          6           0       -1.749064    3.254357   -0.843726
     14          1           0       -1.849169    0.716865    0.259938
     15          1           0       -2.530647    0.649190   -1.362446
     16          1           0       -3.162599    2.792959    0.725333
     17          1           0       -3.844499    2.725816   -0.895810
     18          1           0       -1.540739    2.970639   -1.880406
     19          1           0       -0.854965    3.038164   -0.250052
     20          1           0       -1.921764    4.334754   -0.815830
     21          6           0        4.585707    1.019577    0.601866
     22          6           0        3.376834    1.188559    1.284940
     23          6           0        2.274468    0.381788    0.987522
     24          6           0        2.416791   -0.588522   -0.003201
     25          6           0        3.607907   -0.781226   -0.701340
     26          6           0        4.697189    0.036957   -0.387350
     27          1           0        5.436970    1.650729    0.839344
     28          1           0        3.287366    1.950871    2.053655
     29          1           0        1.326850    0.491129    1.500828
     30          1           0        3.666637   -1.549614   -1.462621
     31          1           0        5.634785   -0.096529   -0.919461
     32          7           0        1.256691   -1.448655   -0.326836
     33          8           0        1.407790   -2.296342   -1.203895
     34          8           0        0.218272   -1.258853    0.302685
 ---------------------------------------------------------------------

 SCF Done:  E(RHF) =  -669.536044445     A.U. after   15 cycles
 E2 =    -0.2091873098D+01 EUMP2 =    -0.67162791754348D+03

 The electronic state is 1-A.
 Alpha  occ. eigenvalues --  -20.60968 -20.60956 -15.85991 -11.31307 -11.27876
 Alpha  occ. eigenvalues --  -11.27862 -11.27600 -11.26876 -11.26865 -11.20984
 Alpha  occ. eigenvalues --  -11.20732 -11.20380 -11.20292 -11.20200 -11.20029
 Alpha  occ. eigenvalues --   -1.60018  -1.39577  -1.19473  -1.08877  -1.07459
 Alpha  occ. eigenvalues --   -1.04870  -1.02649  -0.95722  -0.95139  -0.86270
 Alpha  occ. eigenvalues --   -0.86170  -0.82562  -0.78699  -0.77641  -0.77160
 Alpha  occ. eigenvalues --   -0.72216  -0.71326  -0.70583  -0.65134  -0.64873
 Alpha  occ. eigenvalues --   -0.64097  -0.62220  -0.60062  -0.58528  -0.56713
 Alpha  occ. eigenvalues --   -0.55372  -0.54454  -0.53198  -0.52963  -0.51876
 Alpha  occ. eigenvalues --   -0.51562  -0.49156  -0.48972  -0.48954  -0.47016
 Alpha  occ. eigenvalues --   -0.45743  -0.45153  -0.44724  -0.44408  -0.42868
 Alpha  occ. eigenvalues --   -0.37447  -0.36469
 Alpha virt. eigenvalues --    0.04892   0.11169   0.16376   0.21023   0.23509
 Alpha virt. eigenvalues --    0.24959   0.26427   0.27490   0.27972   0.28691
 Alpha virt. eigenvalues --    0.29215   0.31049   0.31791   0.32400   0.32675

 Mulliken charges:
               1
     1  C   -0.298252
     2  C   -0.302352
     3  C   -0.475712
     4  H    0.144167
     5  H    0.144524
     6  H    0.170328
     7  H    0.153838
     8  H    0.150584
     9  H    0.150690
    10  H    0.159967
    11  C   -0.302317
    12  C   -0.299227
    13  C   -0.473207
    14  H    0.163152
    15  H    0.150175
    16  H    0.147903
    17  H    0.150166
    18  H    0.155815
    19  H    0.148239
    20  H    0.156934
    21  C   -0.170511
    22  C   -0.218388
    23  C   -0.170970
    24  C    0.158303
    25  C   -0.170639
    26  C   -0.218462
    27  H    0.226114
    28  H    0.223971
    29  H    0.275192
    30  H    0.275875
    31  H    0.223903
    32  N    0.492319
    33  O   -0.458771
    34  O   -0.463351
 Sum of Mulliken charges =  -0.00000

 Dipole moment (field-independent basis, Debye):
    X=              4.3831    Y=              2.8348    Z=              1.1159  Tot=              5.3379
 Quadrupole moment (field-independent basis, Debye-Ang):
   XX=            -75.5350   YY=            -98.8311   ZZ=            -92.1111
   XY=              3.3272   XZ=              1.3851   YZ=              1.6865

 Normal termination of Gaussian 16 at Thu May  6 05:43:03 2021.
