 Gaussian 16, Revision A.03,
 Gaussian 16:  EM64L-G16RevA.03 25-Dec-2016

 -------------
 #p 6-31g* mp2
 -------------

 ------------------------------------------------------
 Input file generated by CHIRIPA (05-May-2021 14:55:24)
 ------------------------------------------------------
 Symbolic Z-matrix:
 Charge =  0 Multiplicity = 1

                         Standard orientation:
 ---------------------------------------------------------------------
 Center     Atomic      Atomic             Coordinates (Angstroms)
 Number     Number       Type             X           Y           Z
 ---------------------------------------------------------------------
      1          6           0       -0.408632   -1.335212   -0.172012
      2          6           0       -0.696659   -0.390195    0.818192
      3          6           0       -1.986524    0.133705    0.945966
      4          6           0       -2.968658   -0.311738    0.062630
      5          6           0       -2.712876   -1.252087   -0.934169
      6          6           0       -1.415884   -1.762389   -1.043496
      7          1           0        0.596134   -1.736908   -0.264105
      8          1           0        0.083606   -0.056609    1.496390
      9          1           0       -2.237022    0.866360    1.703518
     10          1           0       -3.511554   -1.565292   -1.595558
     11          1           0       -1.195084   -2.496192   -1.813447
     12          7           0       -4.337953    0.235694    0.188134
     13          8           0       -5.185593   -0.173062   -0.602474
     14          8           0       -4.537637    1.063160    1.074736
     15          6           0        3.509969    1.244531   -0.278412
     16          6           0        2.136640    1.908817   -0.175068
     17          6           0        2.150683    3.369049   -0.628189
     18          1           0        4.230693    1.810929    0.327143
     19          1           0        3.860741    1.303443   -1.318067
     20          1           0        1.787951    1.847444    0.863809
     21          1           0        1.419061    1.340662   -0.780786
     22          1           0        2.473920    3.445603   -1.671385
     23          1           0        2.844906    3.955265   -0.017447
     24          1           0        1.158853    3.824444   -0.546047
     25          6           0        3.512064   -0.215511    0.171032
     26          6           0        4.885392   -0.879797    0.067688
     27          6           0        4.871350   -2.340029    0.520809
     28          1           0        3.161293   -0.274423    1.210687
     29          1           0        2.791341   -0.781909   -0.434523
     30          1           0        5.602972   -0.311641    0.673405
     31          1           0        5.234083   -0.818424   -0.971189
     32          1           0        4.177128   -2.926245   -0.089934
     33          1           0        4.548113   -2.416583    1.564005
     34          1           0        5.863181   -2.795424    0.438667
 ---------------------------------------------------------------------

 SCF Done:  E(RHF) =  -669.534801017     A.U. after   15 cycles
 E2 =    -0.2093192799D+01 EUMP2 =    -0.67162799381617D+03

 The electronic state is 1-A.
 Alpha  occ. eigenvalues --  -20.60722 -20.60717 -15.85774 -11.31130 -11.27687
 Alpha  occ. eigenvalues --  -11.27668 -11.27375 -11.26710 -11.26657 -11.22618
 Alpha  occ. eigenvalues --  -11.22534 -11.22390 -11.22257 -11.21999 -11.21642
 Alpha  occ. eigenvalues --   -1.59798  -1.39352  -1.19294  -1.09410  -1.08684
 Alpha  occ. eigenvalues --   -1.04696  -1.04379  -0.96841  -0.95527  -0.87849
 Alpha  occ. eigenvalues --   -0.86091  -0.82363  -0.80470  -0.79283  -0.77401
 Alpha  occ. eigenvalues --   -0.71992  -0.71121  -0.70406  -0.66031  -0.64938
 Alpha  occ. eigenvalues --   -0.64696  -0.62054  -0.61765  -0.60207  -0.58468
 Alpha  occ. eigenvalues --   -0.56159  -0.55189  -0.53500  -0.53261  -0.53017
 Alpha  occ. eigenvalues --   -0.52781  -0.50774  -0.48820  -0.48749  -0.48695
 Alpha  occ. eigenvalues --   -0.47508  -0.46738  -0.46682  -0.44760  -0.44672
 Alpha  occ. eigenvalues --   -0.37233  -0.36272
 Alpha virt. eigenvalues --    0.05088   0.11309   0.16494   0.19591   0.22702
 Alpha virt. eigenvalues --    0.22785   0.24275   0.25485   0.27070   0.28333
 Alpha virt. eigenvalues --    0.29747   0.30233   0.31051   0.31493   0.31656

 Mulliken charges:
               1
     1  C   -0.176183
     2  C   -0.217241
     3  C   -0.173106
     4  C    0.158661
     5  C   -0.171254
     6  C   -0.219579
     7  H    0.231715
     8  H    0.227109
     9  H    0.275153
    10  H    0.275196
    11  H    0.223071
    12  N    0.488031
    13  O   -0.460628
    14  O   -0.460601
    15  C   -0.297817
    16  C   -0.304519
    17  C   -0.476277
    18  H    0.153005
    19  H    0.152682
    20  H    0.144907
    21  H    0.157607
    22  H    0.157207
    23  H    0.156393
    24  H    0.164143
    25  C   -0.303932
    26  C   -0.299572
    27  C   -0.476462
    28  H    0.145901
    29  H    0.143620
    30  H    0.156065
    31  H    0.154945
    32  H    0.151038
    33  H    0.155812
    34  H    0.164910
 Sum of Mulliken charges =  -0.00000

 Dipole moment (field-independent basis, Debye):
    X=              5.0321    Y=             -1.8316    Z=             -0.4833  Tot=              5.3768
 Quadrupole moment (field-independent basis, Debye-Ang):
   XX=           -122.7935   YY=            -93.2544   ZZ=            -91.3681
   XY=              5.5121   XZ=              3.0141   YZ=              3.0276

 Normal termination of Gaussian 16 at Thu May  6 16:01:41 2021.
