 Gaussian 16, Revision A.03,
 Gaussian 16:  EM64L-G16RevA.03 25-Dec-2016

 -------------
 #p 6-31g* mp2
 -------------

 ------------------------------------------------------
 Input file generated by CHIRIPA (05-May-2021 14:57:23)
 ------------------------------------------------------
 Symbolic Z-matrix:
 Charge =  0 Multiplicity = 1

                         Standard orientation:
 ---------------------------------------------------------------------
 Center     Atomic      Atomic             Coordinates (Angstroms)
 Number     Number       Type             X           Y           Z
 ---------------------------------------------------------------------
      1          6           0        3.711498    2.466750    0.399060
      2          6           0        2.485876    1.792874    0.415292
      3          6           0        2.420210    0.431089    0.105811
      4          6           0        3.605038   -0.228728   -0.216857
      5          6           0        4.841345    0.414869   -0.241695
      6          6           0        4.883255    1.776813    0.071196
      7          1           0        3.753282    3.524678    0.640797
      8          1           0        1.574267    2.326136    0.669546
      9          1           0        1.484778   -0.115134    0.110731
     10          1           0        5.733147   -0.143595   -0.499037
     11          1           0        5.836494    2.297583    0.057789
     12          7           0        3.548095   -1.670473   -0.546296
     13          8           0        4.606227   -2.229077   -0.827283
     14          8           0        2.446409   -2.214608   -0.517285
     15          6           0       -1.609710   -0.606202    1.573329
     16          6           0       -1.618287    0.583130    0.837166
     17          6           0       -2.723642    0.924235    0.052064
     18          6           0       -3.808231    0.048858    0.026174
     19          6           0       -3.829711   -1.143279    0.748420
     20          6           0       -2.713503   -1.464098    1.526689
     21          1           0       -0.746828   -0.863302    2.180561
     22          1           0       -0.762467    1.251292    0.871484
     23          1           0       -2.756777    1.838645   -0.527742
     24          1           0       -4.697597   -1.789225    0.694155
     25          1           0       -2.709619   -2.388413    2.097366
     26          7           0       -4.984166    0.399233   -0.801361
     27          8           0       -5.927226   -0.388955   -0.807239
     28          8           0       -4.940537    1.455410   -1.428436
 ---------------------------------------------------------------------

 SCF Done:  E(RHF) =  -868.336794769     A.U. after   16 cycles
 E2 =    -0.2600480695D+01 EUMP2 =    -0.87093727546394D+03

 The electronic state is 1-A.
 Alpha  occ. eigenvalues --  -20.61397 -20.61380 -20.60957 -20.60944 -15.86450
 Alpha  occ. eigenvalues --  -15.86013 -11.31902 -11.31459 -11.28548 -11.28444
 Alpha  occ. eigenvalues --  -11.28236 -11.28138 -11.28012 -11.27843 -11.27630
 Alpha  occ. eigenvalues --  -11.27451 -11.27263 -11.26988  -1.60465  -1.60027
 Alpha  occ. eigenvalues --   -1.40017  -1.39578  -1.20091  -1.19661  -1.09460
 Alpha  occ. eigenvalues --   -1.09042  -1.05535  -1.05092  -0.96281  -0.95853
 Alpha  occ. eigenvalues --   -0.86913  -0.86505  -0.83136  -0.82693  -0.78190
 Alpha  occ. eigenvalues --   -0.77716  -0.72665  -0.72232  -0.71791  -0.71349
 Alpha  occ. eigenvalues --   -0.71197  -0.70748  -0.65771  -0.65572  -0.65327
 Alpha  occ. eigenvalues --   -0.65158  -0.62953  -0.62339  -0.55989  -0.55580
 Alpha  occ. eigenvalues --   -0.53824  -0.53684  -0.53351  -0.53184  -0.49431
 Alpha  occ. eigenvalues --   -0.49414  -0.48997  -0.48978  -0.45404  -0.44966
 Alpha  occ. eigenvalues --   -0.38050  -0.37627  -0.37134  -0.36683
 Alpha virt. eigenvalues --    0.04389   0.04836   0.10522   0.10803   0.15864
 Alpha virt. eigenvalues --    0.16296   0.18054   0.22190   0.24587   0.26638
 Alpha virt. eigenvalues --    0.27841   0.29025   0.29808   0.31447   0.32732

 Mulliken charges:
               1
     1  C   -0.169628
     2  C   -0.222887
     3  C   -0.176400
     4  C    0.159032
     5  C   -0.169173
     6  C   -0.218428
     7  H    0.228337
     8  H    0.218293
     9  H    0.274541
    10  H    0.278012
    11  H    0.226451
    12  N    0.488014
    13  O   -0.457614
    14  O   -0.461302
    15  C   -0.170150
    16  C   -0.224541
    17  C   -0.170547
    18  C    0.159003
    19  C   -0.168850
    20  C   -0.216877
    21  H    0.228926
    22  H    0.215775
    23  H    0.275372
    24  H    0.277885
    25  H    0.227779
    26  N    0.488225
    27  O   -0.458580
    28  O   -0.460669
 Sum of Mulliken charges =  -0.00000

 Dipole moment (field-independent basis, Debye):
    X=              4.3672    Y=              3.6800    Z=              4.0609  Tot=              7.0076
 Quadrupole moment (field-independent basis, Debye-Ang):
   XX=           -127.5863   YY=           -104.2620   ZZ=           -106.1566
   XY=             26.0911   XZ=             -8.6703   YZ=             -2.8713

 Normal termination of Gaussian 16 at Wed May  5 21:02:21 2021.
