 Gaussian 16, Revision A.03,
 Gaussian 16:  EM64L-G16RevA.03 25-Dec-2016

 -------------
 #p 6-31g* mp2
 -------------

 ------------------------------------------------------
 Input file generated by CHIRIPA (05-May-2021 14:55:25)
 ------------------------------------------------------
 Symbolic Z-matrix:
 Charge =  0 Multiplicity = 1

                         Standard orientation:
 ---------------------------------------------------------------------
 Center     Atomic      Atomic             Coordinates (Angstroms)
 Number     Number       Type             X           Y           Z
 ---------------------------------------------------------------------
      1          6           0        3.588377    2.331833   -0.251620
      2          6           0        3.485518    1.394702   -1.284929
      3          6           0        3.051801    0.092010   -1.021432
      4          6           0        2.727688   -0.240914    0.292875
      5          6           0        2.819767    0.670230    1.343888
      6          6           0        3.255760    1.967249    1.057183
      7          1           0        3.926183    3.341593   -0.465325
      8          1           0        3.743159    1.675039   -2.302316
      9          1           0        2.962992   -0.653377   -1.802412
     10          1           0        2.555840    0.361227    2.348018
     11          1           0        3.334680    2.692953    1.861652
     12          7           0        2.267327   -1.617013    0.584112
     13          8           0        1.987774   -1.885372    1.750504
     14          8           0        2.194765   -2.401184   -0.359524
     15          6           0       -3.089285   -0.503636   -0.562403
     16          6           0       -1.736666    0.090892   -0.956030
     17          6           0       -0.748552   -0.965226   -1.452055
     18          1           0       -2.936500   -1.260593    0.219016
     19          1           0       -3.516628   -1.029320   -1.427521
     20          1           0       -1.312636    0.616477   -0.090828
     21          1           0       -1.892709    0.846659   -1.736468
     22          1           0       -1.146903   -1.483039   -2.330570
     23          1           0       -0.563533   -1.714529   -0.675580
     24          1           0        0.211687   -0.518418   -1.728034
     25          6           0       -4.087833    0.539773   -0.064478
     26          6           0       -5.440452   -0.054755    0.329149
     27          6           0       -6.428565    1.001363    0.825174
     28          1           0       -3.660488    1.065457    0.800640
     29          1           0       -4.240618    1.296731   -0.845898
     30          1           0       -5.284408   -0.810521    1.109587
     31          1           0       -5.864482   -0.580340   -0.536053
     32          1           0       -6.613583    1.750666    0.048698
     33          1           0       -6.030214    1.519176    1.703688
     34          1           0       -7.388803    0.554554    1.101153
 ---------------------------------------------------------------------

 SCF Done:  E(RHF) =  -669.535080001     A.U. after   15 cycles
 E2 =    -0.2093087436D+01 EUMP2 =    -0.67162816743711D+03

 The electronic state is 1-A.
 Alpha  occ. eigenvalues --  -20.60843 -20.60827 -15.85858 -11.31241 -11.27812
 Alpha  occ. eigenvalues --  -11.27801 -11.27551 -11.26830 -11.26820 -11.21349
 Alpha  occ. eigenvalues --  -11.21204 -11.21113 -11.20976 -11.20889 -11.20399
 Alpha  occ. eigenvalues --   -1.59901  -1.39456  -1.19418  -1.08807  -1.08097
 Alpha  occ. eigenvalues --   -1.04824  -1.03182  -0.95672  -0.95592  -0.86642
 Alpha  occ. eigenvalues --   -0.86212  -0.82478  -0.79254  -0.77911  -0.77520
 Alpha  occ. eigenvalues --   -0.72096  -0.71238  -0.70526  -0.65072  -0.64825
 Alpha  occ. eigenvalues --   -0.64726  -0.62178  -0.60573  -0.59020  -0.57257
 Alpha  occ. eigenvalues --   -0.55321  -0.54890  -0.53215  -0.52920  -0.52277
 Alpha  occ. eigenvalues --   -0.51994  -0.49558  -0.48856  -0.48851  -0.47553
 Alpha  occ. eigenvalues --   -0.46316  -0.45459  -0.45399  -0.44768  -0.43395
 Alpha  occ. eigenvalues --   -0.37373  -0.36403
 Alpha virt. eigenvalues --    0.04964   0.11140   0.16481   0.21322   0.23164
 Alpha virt. eigenvalues --    0.24581   0.26976   0.27062   0.27827   0.27905
 Alpha virt. eigenvalues --    0.28685   0.30723   0.31521   0.31827   0.32166

 Mulliken charges:
               1
     1  C   -0.170495
     2  C   -0.219252
     3  C   -0.172643
     4  C    0.162004
     5  C   -0.171418
     6  C   -0.218300
     7  H    0.225905
     8  H    0.223894
     9  H    0.276508
    10  H    0.275621
    11  H    0.223683
    12  N    0.488392
    13  O   -0.460765
    14  O   -0.457306
    15  C   -0.298798
    16  C   -0.299214
    17  C   -0.482073
    18  H    0.153994
    19  H    0.149208
    20  H    0.148377
    21  H    0.147178
    22  H    0.154216
    23  H    0.171683
    24  H    0.152891
    25  C   -0.297628
    26  C   -0.299632
    27  C   -0.475454
    28  H    0.148197
    29  H    0.147566
    30  H    0.153398
    31  H    0.151834
    32  H    0.154032
    33  H    0.154422
    34  H    0.159976
 Sum of Mulliken charges =  -0.00000

 Dipole moment (field-independent basis, Debye):
    X=              1.7505    Y=              4.7320    Z=             -0.9799  Tot=              5.1396
 Quadrupole moment (field-independent basis, Debye-Ang):
   XX=            -87.4446   YY=            -97.6569   ZZ=            -90.0659
   XY=             13.6771   XZ=             -2.3630   YZ=              2.6904

 Normal termination of Gaussian 16 at Thu May  6 07:58:36 2021.
