 Gaussian 16, Revision A.03,
 Gaussian 16:  EM64L-G16RevA.03 25-Dec-2016

 -------------
 #p 6-31g* mp2
 -------------

 ------------------------------------------------------
 Input file generated by CHIRIPA (05-May-2021 14:57:22)
 ------------------------------------------------------
 Symbolic Z-matrix:
 Charge =  0 Multiplicity = 1

                         Standard orientation:
 ---------------------------------------------------------------------
 Center     Atomic      Atomic             Coordinates (Angstroms)
 Number     Number       Type             X           Y           Z
 ---------------------------------------------------------------------
      1          6           0        5.094747    1.498235    0.229691
      2          6           0        5.041439    0.358234    1.038441
      3          6           0        3.982390   -0.546829    0.920857
      4          6           0        2.989217   -0.279578   -0.020140
      5          6           0        3.014187    0.847345   -0.840330
      6          6           0        4.082735    1.738728   -0.705464
      7          1           0        5.921131    2.195996    0.327746
      8          1           0        5.825982    0.168907    1.765554
      9          1           0        3.916288   -1.437222    1.534248
     10          1           0        2.217380    1.009137   -1.556109
     11          1           0        4.121532    2.623246   -1.334884
     12          7           0        1.863022   -1.230486   -0.153768
     13          8           0        1.000476   -0.972295   -0.990422
     14          8           0        1.864180   -2.215994    0.580678
     15          6           0       -3.730903    2.547533    0.419602
     16          6           0       -4.124427    1.569137    1.338516
     17          6           0       -3.821743    0.222631    1.115241
     18          6           0       -3.121069   -0.111552   -0.042632
     19          6           0       -2.715285    0.840082   -0.976988
     20          6           0       -3.028826    2.180530   -0.733184
     21          1           0       -3.970254    3.591178    0.601020
     22          1           0       -4.669779    1.851246    2.234647
     23          1           0       -4.114301   -0.555251    1.810027
     24          1           0       -2.172798    0.528191   -1.861210
     25          1           0       -2.721942    2.938222   -1.448566
     26          7           0       -2.794883   -1.533830   -0.289868
     27          8           0       -2.176621   -1.802352   -1.317626
     28          8           0       -3.163658   -2.353160    0.548786
 ---------------------------------------------------------------------

 SCF Done:  E(RHF) =  -868.335452159     A.U. after   16 cycles
 E2 =    -0.2600848901D+01 EUMP2 =    -0.87093630106002D+03

 The electronic state is 1-A.
 Alpha  occ. eigenvalues --  -20.60319 -20.60309 -20.59518 -20.59369 -15.85384
 Alpha  occ. eigenvalues --  -15.84500 -11.31007 -11.30294 -11.27637 -11.27584
 Alpha  occ. eigenvalues --  -11.27391 -11.26948 -11.26897 -11.26804 -11.26696
 Alpha  occ. eigenvalues --  -11.26657 -11.26071 -11.26061  -1.59390  -1.58497
 Alpha  occ. eigenvalues --   -1.38940  -1.38039  -1.19204  -1.18524  -1.08547
 Alpha  occ. eigenvalues --   -1.07847  -1.04648  -1.03999  -0.95337  -0.94606
 Alpha  occ. eigenvalues --   -0.86033  -0.85374  -0.82171  -0.81444  -0.77185
 Alpha  occ. eigenvalues --   -0.76399  -0.71597  -0.70749  -0.70719  -0.70312
 Alpha  occ. eigenvalues --   -0.69794  -0.69644  -0.64850  -0.64652  -0.64173
 Alpha  occ. eigenvalues --   -0.64022  -0.61997  -0.61336  -0.55135  -0.54513
 Alpha  occ. eigenvalues --   -0.52961  -0.52745  -0.52304  -0.52105  -0.48350
 Alpha  occ. eigenvalues --   -0.48330  -0.47525  -0.47447  -0.44313  -0.43282
 Alpha  occ. eigenvalues --   -0.37196  -0.36540  -0.36264  -0.35623
 Alpha virt. eigenvalues --    0.05354   0.06163   0.11387   0.12028   0.16805
 Alpha virt. eigenvalues --    0.17552   0.21467   0.22059   0.27341   0.27867
 Alpha virt. eigenvalues --    0.28370   0.29052   0.30974   0.31570   0.32554

 Mulliken charges:
               1
     1  C   -0.171633
     2  C   -0.218408
     3  C   -0.171140
     4  C    0.159263
     5  C   -0.171328
     6  C   -0.218411
     7  H    0.224458
     8  H    0.223069
     9  H    0.276705
    10  H    0.272106
    11  H    0.221195
    12  N    0.486903
    13  O   -0.456365
    14  O   -0.456299
    15  C   -0.172448
    16  C   -0.219194
    17  C   -0.171646
    18  C    0.160268
    19  C   -0.167936
    20  C   -0.220385
    21  H    0.221151
    22  H    0.220054
    23  H    0.274710
    24  H    0.279516
    25  H    0.218120
    26  N    0.488794
    27  O   -0.445205
    28  O   -0.465916
 Sum of Mulliken charges =  -0.00000

 Dipole moment (field-independent basis, Debye):
    X=              2.9593    Y=              8.0277    Z=              1.2169  Tot=              8.6419
 Quadrupole moment (field-independent basis, Debye-Ang):
   XX=            -74.6870   YY=           -107.3464   ZZ=            -99.2926
   XY=             -6.9066   XZ=             -1.5268   YZ=             -3.9817

 Normal termination of Gaussian 16 at Thu May  6 06:33:51 2021.
