 Gaussian 16, Revision A.03,
 Gaussian 16:  EM64L-G16RevA.03 25-Dec-2016

 -------------
 #p 6-31g* mp2
 -------------

 ------------------------------------------------------
 Input file generated by CHIRIPA (05-May-2021 14:57:25)
 ------------------------------------------------------
 Symbolic Z-matrix:
 Charge =  0 Multiplicity = 1

                         Standard orientation:
 ---------------------------------------------------------------------
 Center     Atomic      Atomic             Coordinates (Angstroms)
 Number     Number       Type             X           Y           Z
 ---------------------------------------------------------------------
      1          6           0        1.998045    0.860079   -0.038969
      2          6           0        3.050171    1.620226    0.482308
      3          6           0        4.356505    1.122219    0.477059
      4          6           0        4.575770   -0.145503   -0.059685
      5          6           0        3.548560   -0.926970   -0.586411
      6          6           0        2.250154   -0.408856   -0.570727
      7          1           0        0.986333    1.254752   -0.030838
      8          1           0        2.857332    2.606017    0.895920
      9          1           0        5.189598    1.689423    0.874115
     10          1           0        3.771896   -1.906292   -0.991957
     11          1           0        1.435006   -1.001427   -0.976239
     12          7           0        5.954531   -0.683365   -0.070766
     13          8           0        6.121443   -1.803069   -0.549347
     14          8           0        6.842185    0.024948    0.399341
     15          6           0       -6.273804   -1.573863    0.060136
     16          6           0       -5.142071   -1.825873    0.842563
     17          6           0       -4.069385   -0.929295    0.849061
     18          6           0       -4.162406    0.214510    0.057639
     19          6           0       -5.276405    0.493535   -0.732575
     20          6           0       -6.337248   -0.417003   -0.723554
     21          1           0       -7.102492   -2.275769    0.061116
     22          1           0       -5.090043   -2.723492    1.452168
     23          1           0       -3.181258   -1.099736    1.445380
     24          1           0       -5.299218    1.396906   -1.329918
     25          1           0       -7.214912   -0.218705   -1.332183
     26          7           0       -3.033071    1.171066    0.056303
     27          8           0       -3.139549    2.171516   -0.649672
     28          8           0       -2.062803    0.902253    0.761256
 ---------------------------------------------------------------------

 SCF Done:  E(RHF) =  -868.340573169     A.U. after   16 cycles
 E2 =    -0.2598010035D+01 EUMP2 =    -0.87093858320316D+03

 The electronic state is 1-A.
 Alpha  occ. eigenvalues --  -20.61920 -20.61893 -20.60123 -20.60117 -15.86920
 Alpha  occ. eigenvalues --  -15.85173 -11.31989 -11.30332 -11.28525 -11.28507
 Alpha  occ. eigenvalues --  -11.28195 -11.27460 -11.27448 -11.26926 -11.26902
 Alpha  occ. eigenvalues --  -11.26350 -11.25804 -11.25764  -1.60968  -1.59205
 Alpha  occ. eigenvalues --   -1.40528  -1.38764  -1.20131  -1.18476  -1.09580
 Alpha  occ. eigenvalues --   -1.07856  -1.05485  -1.03869  -0.96464  -0.94729
 Alpha  occ. eigenvalues --   -0.86896  -0.85246  -0.83305  -0.81591  -0.78387
 Alpha  occ. eigenvalues --   -0.76714  -0.73153  -0.72268  -0.71393  -0.71228
 Alpha  occ. eigenvalues --   -0.70528  -0.69431  -0.65783  -0.65479  -0.64105
 Alpha  occ. eigenvalues --   -0.63852  -0.62834  -0.61238  -0.55991  -0.54168
 Alpha  occ. eigenvalues --   -0.53831  -0.53568  -0.52193  -0.51943  -0.49920
 Alpha  occ. eigenvalues --   -0.49882  -0.48161  -0.48130  -0.45994  -0.44218
 Alpha  occ. eigenvalues --   -0.38090  -0.37076  -0.36366  -0.35503
 Alpha virt. eigenvalues --    0.04105   0.05843   0.10584   0.12174   0.15658
 Alpha virt. eigenvalues --    0.17410   0.20769   0.22543   0.26705   0.27625
 Alpha virt. eigenvalues --    0.28183   0.29582   0.30402   0.31811   0.32324

 Mulliken charges:
               1
     1  C   -0.176741
     2  C   -0.220837
     3  C   -0.171740
     4  C    0.156718
     5  C   -0.172204
     6  C   -0.221026
     7  H    0.250585
     8  H    0.224289
     9  H    0.272785
    10  H    0.271613
    11  H    0.220957
    12  N    0.488359
    13  O   -0.463530
    14  O   -0.462634
    15  C   -0.169654
    16  C   -0.218520
    17  C   -0.171382
    18  C    0.157124
    19  C   -0.170376
    20  C   -0.218529
    21  H    0.228449
    22  H    0.225923
    23  H    0.275256
    24  H    0.276625
    25  H    0.225967
    26  N    0.489176
    27  O   -0.457307
    28  O   -0.469345
 Sum of Mulliken charges =  -0.00000

 Dipole moment (field-independent basis, Debye):
    X=             -9.4741    Y=             -1.4043    Z=              0.0420  Tot=              9.5777
 Quadrupole moment (field-independent basis, Debye-Ang):
   XX=           -115.5697   YY=           -102.1167   ZZ=           -103.0213
   XY=             23.3250   XZ=              3.1197   YZ=             -0.5353

 Normal termination of Gaussian 16 at Wed May  5 21:06:18 2021.
