 Gaussian 16, Revision A.03,
 Gaussian 16:  EM64L-G16RevA.03 25-Dec-2016

 -------------
 #p 6-31g* mp2
 -------------

 ------------------------------------------------------
 Input file generated by CHIRIPA (05-May-2021 14:55:24)
 ------------------------------------------------------
 Symbolic Z-matrix:
 Charge =  0 Multiplicity = 1

                         Standard orientation:
 ---------------------------------------------------------------------
 Center     Atomic      Atomic             Coordinates (Angstroms)
 Number     Number       Type             X           Y           Z
 ---------------------------------------------------------------------
      1          6           0        2.053240    0.614698    2.213359
      2          6           0        1.795614    1.195252    0.967122
      3          6           0        2.507231    0.789631   -0.165848
      4          6           0        3.473815   -0.203576   -0.015696
      5          6           0        3.753471   -0.801101    1.212329
      6          6           0        3.029625   -0.379872    2.331776
      7          1           0        1.495689    0.935856    3.088224
      8          1           0        1.037915    1.967860    0.872182
      9          1           0        2.328059    1.222219   -1.142671
     10          1           0        4.514838   -1.569042    1.275619
     11          1           0        3.231827   -0.832505    3.298360
     12          7           0        4.233646   -0.641250   -1.207962
     13          8           0        5.080096   -1.518152   -1.049209
     14          8           0        3.968364   -0.099110   -2.278637
     15          6           0       -5.001484   -0.039888   -0.062708
     16          6           0       -5.227606   -1.550180   -0.139332
     17          6           0       -6.663374   -1.950969    0.200861
     18          1           0       -5.252062    0.311170    0.947695
     19          1           0       -5.696116    0.463151   -0.749609
     20          1           0       -4.531805   -2.050311    0.546487
     21          1           0       -4.976278   -1.897714   -1.149614
     22          1           0       -7.369177   -1.478610   -0.490023
     23          1           0       -6.922178   -1.632074    1.215714
     24          1           0       -6.802803   -3.034805    0.139887
     25          6           0       -3.570897    0.376379   -0.400150
     26          6           0       -3.344775    1.886672   -0.323528
     27          6           0       -1.909006    2.287460   -0.663720
     28          1           0       -2.876264   -0.126660    0.286749
     29          1           0       -3.320319    0.025321   -1.410553
     30          1           0       -3.596102    2.234204    0.686755
     31          1           0       -4.040576    2.386802   -1.009345
     32          1           0       -1.650202    1.968566   -1.678574
     33          1           0       -1.203203    1.815102    0.027164
     34          1           0       -1.769577    3.371297   -0.602746
 ---------------------------------------------------------------------

 SCF Done:  E(RHF) =  -669.535538851     A.U. after   15 cycles
 E2 =    -0.2090907975D+01 EUMP2 =    -0.67162644682506D+03

 The electronic state is 1-A.
 Alpha  occ. eigenvalues --  -20.60739 -20.60734 -15.85793 -11.31158 -11.27738
 Alpha  occ. eigenvalues --  -11.27720 -11.27480 -11.26751 -11.26705 -11.22221
 Alpha  occ. eigenvalues --  -11.21912 -11.21901 -11.21854 -11.21745 -11.21323
 Alpha  occ. eigenvalues --   -1.59815  -1.39368  -1.19334  -1.08884  -1.08731
 Alpha  occ. eigenvalues --   -1.04736  -1.04016  -0.96484  -0.95564  -0.87512
 Alpha  occ. eigenvalues --   -0.86134  -0.82395  -0.80088  -0.78670  -0.77439
 Alpha  occ. eigenvalues --   -0.72011  -0.71138  -0.70445  -0.65527  -0.64985
 Alpha  occ. eigenvalues --   -0.64752  -0.62123  -0.61389  -0.59852  -0.58072
 Alpha  occ. eigenvalues --   -0.55801  -0.55234  -0.53215  -0.53099  -0.52981
 Alpha  occ. eigenvalues --   -0.52692  -0.50408  -0.48772  -0.48766  -0.48388
 Alpha  occ. eigenvalues --   -0.47101  -0.46218  -0.46126  -0.44774  -0.44258
 Alpha  occ. eigenvalues --   -0.37319  -0.36329
 Alpha virt. eigenvalues --    0.05089   0.11240   0.16516   0.20710   0.22534
 Alpha virt. eigenvalues --    0.23895   0.25690   0.26353   0.27212   0.28284
 Alpha virt. eigenvalues --    0.28739   0.30170   0.31259   0.31407   0.32024

 Mulliken charges:
               1
     1  C   -0.171911
     2  C   -0.222016
     3  C   -0.171684
     4  C    0.158462
     5  C   -0.170862
     6  C   -0.218560
     7  H    0.225346
     8  H    0.229614
     9  H    0.276204
    10  H    0.275537
    11  H    0.223219
    12  N    0.488116
    13  O   -0.460617
    14  O   -0.460345
    15  C   -0.298672
    16  C   -0.299991
    17  C   -0.475948
    18  H    0.148962
    19  H    0.150754
    20  H    0.151686
    21  H    0.153638
    22  H    0.155894
    23  H    0.154786
    24  H    0.161440
    25  C   -0.298936
    26  C   -0.299159
    27  C   -0.482147
    28  H    0.148733
    29  H    0.152494
    30  H    0.151152
    31  H    0.155289
    32  H    0.160388
    33  H    0.148666
    34  H    0.160469
 Sum of Mulliken charges =  -0.00000

 Dipole moment (field-independent basis, Debye):
    X=             -2.8083    Y=              1.5143    Z=              4.1503  Tot=              5.2349
 Quadrupole moment (field-independent basis, Debye-Ang):
   XX=           -113.1465   YY=            -93.9894   ZZ=            -92.7381
   XY=              3.5740   XZ=             17.0411   YZ=             -3.0566

 Normal termination of Gaussian 16 at Thu May  6 14:21:52 2021.
