 Gaussian 16, Revision A.03,
 Gaussian 16:  EM64L-G16RevA.03 25-Dec-2016

 -------------
 #p 6-31g* mp2
 -------------

 ------------------------------------------------------
 Input file generated by CHIRIPA (05-May-2021 14:51:14)
 ------------------------------------------------------
 Symbolic Z-matrix:
 Charge =  0 Multiplicity = 1

                         Standard orientation:
 ---------------------------------------------------------------------
 Center     Atomic      Atomic             Coordinates (Angstroms)
 Number     Number       Type             X           Y           Z
 ---------------------------------------------------------------------
      1          6           0        3.883583    0.166066    0.470208
      2          6           0        3.240262    1.508552    0.121133
      3          6           0        1.865908    1.690908    0.765875
      4          1           0        3.216727   -0.646761    0.151523
      5          1           0        3.976049    0.084576    1.562090
      6          1           0        3.150303    1.588074   -0.969829
      7          1           0        3.908814    2.318274    0.440514
      8          1           0        1.942056    1.637961    1.856746
      9          1           0        1.179235    0.903613    0.438389
     10          1           0        1.424224    2.657209    0.503123
     11          6           0        5.257971   -0.030997   -0.166937
     12          6           0        5.901292   -1.373484    0.182138
     13          6           0        7.275646   -1.555840   -0.462603
     14          1           0        5.165505    0.050493   -1.258818
     15          1           0        5.924827    0.781829    0.151749
     16          1           0        5.232739   -2.183205   -0.137243
     17          1           0        5.991251   -1.453006    1.273101
     18          1           0        7.962319   -0.768545   -0.135117
     19          1           0        7.199498   -1.502893   -1.553474
     20          1           0        7.717330   -2.522140   -0.199852
     21          6           0       -3.812463   -0.117862   -0.075095
     22          6           0       -3.059211    1.044851   -0.722162
     23          6           0       -1.543129    0.929972   -0.560632
     24          1           0       -3.558366   -0.162025    0.992814
     25          1           0       -3.466074   -1.061869   -0.518108
     26          1           0       -3.407910    1.986482   -0.279040
     27          1           0       -3.315278    1.086369   -1.788616
     28          1           0       -1.175779    0.006109   -1.019033
     29          1           0       -1.268937    0.911336    0.499118
     30          1           0       -1.024424    1.771405   -1.030523
     31          6           0       -5.329091   -0.017206   -0.228177
     32          6           0       -6.082343   -1.179920    0.418890
     33          6           0       -7.598425   -1.065041    0.257361
     34          1           0       -5.675480    0.926801    0.214836
     35          1           0       -5.583186    0.026956   -1.296086
     36          1           0       -5.826276   -1.221437    1.485343
     37          1           0       -5.733644   -2.121550   -0.024232
     38          1           0       -7.872617   -1.046404   -0.802391
     39          1           0       -7.965775   -0.141177    0.715762
     40          1           0       -8.117129   -1.906473    0.727251
 ---------------------------------------------------------------------

 SCF Done:  E(RHF) =  -470.732645654     A.U. after   11 cycles
 E2 =    -0.1582542765D+01 EUMP2 =    -0.47231518841858D+03

 The electronic state is 1-A.
 Alpha  occ. eigenvalues --  -11.21593 -11.21571 -11.21563 -11.21509 -11.21390
 Alpha  occ. eigenvalues --  -11.21355 -11.21331 -11.21294 -11.21064 -11.21048
 Alpha  occ. eigenvalues --  -11.21018 -11.20885  -1.08416  -1.08371  -1.03532
 Alpha  occ. eigenvalues --   -1.03444  -0.96031  -0.95851  -0.87107  -0.86816
 Alpha  occ. eigenvalues --   -0.79685  -0.79431  -0.78239  -0.78174  -0.65048
 Alpha  occ. eigenvalues --   -0.65002  -0.60949  -0.60837  -0.59389  -0.59225
 Alpha  occ. eigenvalues --   -0.57645  -0.57461  -0.55355  -0.55139  -0.52829
 Alpha  occ. eigenvalues --   -0.52536  -0.52457  -0.52180  -0.49995  -0.49731
 Alpha  occ. eigenvalues --   -0.48009  -0.47724  -0.46659  -0.46499  -0.45810
 Alpha  occ. eigenvalues --   -0.45706  -0.45681  -0.45605  -0.43819  -0.43637
 Alpha virt. eigenvalues --    0.22610   0.22929   0.23699   0.24699   0.26364
 Alpha virt. eigenvalues --    0.26622   0.27009   0.27434   0.27668   0.29122
 Alpha virt. eigenvalues --    0.30308   0.31141   0.31395   0.31965   0.32296

 Mulliken charges:
               1
     1  C   -0.298366
     2  C   -0.299709
     3  C   -0.480808
     4  H    0.149609
     5  H    0.149282
     6  H    0.151472
     7  H    0.151145
     8  H    0.153308
     9  H    0.165601
    10  H    0.159291
    11  C   -0.298200
    12  C   -0.299594
    13  C   -0.475666
    14  H    0.149397
    15  H    0.149551
    16  H    0.151833
    17  H    0.151846
    18  H    0.155133
    19  H    0.155114
    20  H    0.160127
    21  C   -0.298406
    22  C   -0.300839
    23  C   -0.476934
    24  H    0.149733
    25  H    0.149226
    26  H    0.151942
    27  H    0.151459
    28  H    0.153357
    29  H    0.158055
    30  H    0.162116
    31  C   -0.298230
    32  C   -0.299614
    33  C   -0.475694
    34  H    0.149538
    35  H    0.149583
    36  H    0.151951
    37  H    0.151843
    38  H    0.155143
    39  H    0.155187
    40  H    0.160217
 Sum of Mulliken charges =  -0.00000

 Dipole moment (field-independent basis, Debye):
    X=             -0.0267    Y=             -0.0008    Z=              0.0021  Tot=              0.0268
 Quadrupole moment (field-independent basis, Debye-Ang):
   XX=            -87.1336   YY=            -84.4717   ZZ=            -83.5155
   XY=              0.3176   XZ=              0.6270   YZ=              0.6986

 Normal termination of Gaussian 16 at Thu May  6 07:11:02 2021.
