 Gaussian 16, Revision A.03,
 Gaussian 16:  EM64L-G16RevA.03 25-Dec-2016

 -------------
 #p 6-31g* mp2
 -------------

 ------------------------------------------------------
 Input file generated by CHIRIPA (05-May-2021 14:51:12)
 ------------------------------------------------------
 Symbolic Z-matrix:
 Charge =  0 Multiplicity = 1

                         Standard orientation:
 ---------------------------------------------------------------------
 Center     Atomic      Atomic             Coordinates (Angstroms)
 Number     Number       Type             X           Y           Z
 ---------------------------------------------------------------------
      1          6           0       -3.334888   -0.415674    0.907974
      2          6           0       -1.815022   -0.359413    0.750408
      3          6           0       -1.077461   -0.483218    2.084001
      4          1           0       -3.657203    0.388974    1.582955
      5          1           0       -3.611337   -1.361315    1.394526
      6          1           0       -1.541630    0.585231    0.263046
      7          1           0       -1.496307   -1.164169    0.075572
      8          1           0       -1.321243   -1.432236    2.572403
      9          1           0       -1.366823    0.327103    2.760942
     10          1           0        0.007696   -0.440540    1.948089
     11          6           0       -4.086204   -0.293201   -0.416508
     12          6           0       -5.606070   -0.349462   -0.258942
     13          6           0       -6.343630   -0.225656   -1.592535
     14          1           0       -3.809755    0.652441   -0.903060
     15          1           0       -3.763888   -1.097848   -1.091489
     16          1           0       -5.924785    0.455294    0.415894
     17          1           0       -5.879462   -1.294105    0.228420
     18          1           0       -6.054269   -1.035978   -2.269477
     19          1           0       -6.099849    0.723362   -2.080938
     20          1           0       -7.428788   -0.268335   -1.456623
     21          6           0        3.324312    0.942978   -0.542170
     22          6           0        2.353892    1.590834    0.446038
     23          6           0        1.588602    2.766749   -0.161706
     24          1           0        4.035768    1.700778   -0.897858
     25          1           0        2.764909    0.601129   -1.423988
     26          1           0        2.914755    1.930119    1.326341
     27          1           0        1.644783    0.831360    0.799561
     28          1           0        1.004341    2.439737   -1.027906
     29          1           0        2.281530    3.544738   -0.498133
     30          1           0        0.900627    3.215001    0.561911
     31          6           0        4.096780   -0.234104    0.050704
     32          6           0        5.067199   -0.881960   -0.937504
     33          6           0        5.832490   -2.057873   -0.329760
     34          1           0        4.656182    0.107745    0.932522
     35          1           0        3.385324   -0.991903    0.406392
     36          1           0        5.776309   -0.122486   -1.291026
     37          1           0        4.506336   -1.221244   -1.817807
     38          1           0        5.139562   -2.835864    0.006666
     39          1           0        6.416750   -1.730862    0.536441
     40          1           0        6.520464   -2.506127   -1.053376
 ---------------------------------------------------------------------

 SCF Done:  E(RHF) =  -470.733310457     A.U. after   11 cycles
 E2 =    -0.1582751092D+01 EUMP2 =    -0.47231606154858D+03

 The electronic state is 1-A.
 Alpha  occ. eigenvalues --  -11.21627 -11.21612 -11.21601 -11.21578 -11.21422
 Alpha  occ. eigenvalues --  -11.21403 -11.21363 -11.21343 -11.21085 -11.21079
 Alpha  occ. eigenvalues --  -11.21078 -11.21069  -1.08453  -1.08423  -1.03568
 Alpha  occ. eigenvalues --   -1.03508  -0.96010  -0.95966  -0.87029  -0.86981
 Alpha  occ. eigenvalues --   -0.79634  -0.79569  -0.78261  -0.78242  -0.65105
 Alpha  occ. eigenvalues --   -0.65042  -0.61030  -0.60881  -0.59465  -0.59247
 Alpha  occ. eigenvalues --   -0.57677  -0.57516  -0.55309  -0.55230  -0.52742
 Alpha  occ. eigenvalues --   -0.52652  -0.52450  -0.52379  -0.49956  -0.49896
 Alpha  occ. eigenvalues --   -0.48010  -0.47836  -0.46646  -0.46594  -0.45804
 Alpha  occ. eigenvalues --   -0.45776  -0.45722  -0.45694  -0.43807  -0.43750
 Alpha virt. eigenvalues --    0.20825   0.23101   0.23589   0.24786   0.26016
 Alpha virt. eigenvalues --    0.26512   0.26982   0.27436   0.28104   0.28908
 Alpha virt. eigenvalues --    0.30687   0.31361   0.31634   0.31836   0.32168

 Mulliken charges:
               1
     1  C   -0.298201
     2  C   -0.301354
     3  C   -0.480800
     4  H    0.149825
     5  H    0.149631
     6  H    0.153859
     7  H    0.151322
     8  H    0.155358
     9  H    0.155497
    10  H    0.164587
    11  C   -0.298351
    12  C   -0.299678
    13  C   -0.475730
    14  H    0.149682
    15  H    0.149519
    16  H    0.152022
    17  H    0.151935
    18  H    0.155141
    19  H    0.155253
    20  H    0.160304
    21  C   -0.297717
    22  C   -0.308339
    23  C   -0.475542
    24  H    0.149611
    25  H    0.149605
    26  H    0.151879
    27  H    0.160533
    28  H    0.155284
    29  H    0.155170
    30  H    0.160097
    31  C   -0.298391
    32  C   -0.299642
    33  C   -0.475726
    34  H    0.149620
    35  H    0.149117
    36  H    0.152009
    37  H    0.151958
    38  H    0.155200
    39  H    0.155210
    40  H    0.160244
 Sum of Mulliken charges =  -0.00000

 Dipole moment (field-independent basis, Debye):
    X=             -0.0070    Y=              0.0041    Z=              0.0035  Tot=              0.0088
 Quadrupole moment (field-independent basis, Debye-Ang):
   XX=            -85.0880   YY=            -84.1023   ZZ=            -85.5602
   XY=              1.0371   XZ=             -0.5561   YZ=              0.6484

 Normal termination of Gaussian 16 at Thu May  6 05:29:28 2021.
