 Gaussian 16, Revision A.03,
 Gaussian 16:  EM64L-G16RevA.03 25-Dec-2016

 -------------
 #p 6-31g* mp2
 -------------

 ------------------------------------------------------
 Input file generated by CHIRIPA (05-May-2021 14:51:12)
 ------------------------------------------------------
 Symbolic Z-matrix:
 Charge =  0 Multiplicity = 1

                         Standard orientation:
 ---------------------------------------------------------------------
 Center     Atomic      Atomic             Coordinates (Angstroms)
 Number     Number       Type             X           Y           Z
 ---------------------------------------------------------------------
      1          6           0        2.761857    0.867343   -0.432207
      2          6           0        1.641077    1.620303   -1.149764
      3          6           0        1.772902    3.138268   -1.022498
      4          1           0        2.762804    1.148994    0.629686
      5          1           0        3.729944    1.187841   -0.841454
      6          1           0        0.675322    1.297463   -0.740242
      7          1           0        1.642675    1.336682   -2.210034
      8          1           0        2.721883    3.479609   -1.448554
      9          1           0        1.749033    3.440167    0.029589
     10          1           0        0.961465    3.656731   -1.542717
     11          6           0        2.643858   -0.651155   -0.550387
     12          6           0        3.764638   -1.404115    0.167170
     13          6           0        3.632813   -2.922080    0.039904
     14          1           0        1.675771   -0.971653   -0.141140
     15          1           0        2.642911   -0.932805   -1.612280
     16          1           0        3.763040   -1.120494    1.227440
     17          1           0        4.730393   -1.081275   -0.242352
     18          1           0        3.656682   -3.223979   -1.012183
     19          1           0        2.683832   -3.263421    0.465960
     20          1           0        4.444250   -3.440543    0.560123
     21          6           0       -3.256672   -0.559757    0.221628
     22          6           0       -3.627132   -0.263119   -1.231903
     23          6           0       -4.736474   -1.174884   -1.757104
     24          1           0       -2.941836   -1.608876    0.306329
     25          1           0       -4.151118   -0.450100    0.850385
     26          1           0       -2.731947   -0.371954   -1.857534
     27          1           0       -3.940940    0.785467   -1.313190
     28          1           0       -5.645332   -1.060472   -1.157531
     29          1           0       -4.429469   -2.224470   -1.704967
     30          1           0       -4.985541   -0.945560   -2.797891
     31          6           0       -2.149043    0.343569    0.760966
     32          6           0       -1.778583    0.046931    2.214497
     33          6           0       -0.669240    0.958696    2.739699
     34          1           0       -1.254597    0.233911    0.132209
     35          1           0       -2.463879    1.392688    0.676264
     36          1           0       -1.464775   -1.001655    2.295784
     37          1           0       -2.673768    0.155766    2.840127
     38          1           0       -0.976245    2.008282    2.687561
     39          1           0        0.239617    0.844284    2.140125
     40          1           0       -0.420173    0.729372    3.780485
 ---------------------------------------------------------------------

 SCF Done:  E(RHF) =  -470.733241584     A.U. after   11 cycles
 E2 =    -0.1583838041D+01 EUMP2 =    -0.47231707962522D+03

 The electronic state is 1-A.
 Alpha  occ. eigenvalues --  -11.21669 -11.21631 -11.21615 -11.21560 -11.21446
 Alpha  occ. eigenvalues --  -11.21442 -11.21385 -11.21373 -11.21152 -11.21100
 Alpha  occ. eigenvalues --  -11.21080 -11.21037  -1.08494  -1.08436  -1.03581
 Alpha  occ. eigenvalues --   -1.03526  -0.96027  -0.95985  -0.87042  -0.87003
 Alpha  occ. eigenvalues --   -0.79660  -0.79584  -0.78380  -0.78184  -0.65289
 Alpha  occ. eigenvalues --   -0.64929  -0.61045  -0.60861  -0.59401  -0.59341
 Alpha  occ. eigenvalues --   -0.57643  -0.57588  -0.55372  -0.55221  -0.52719
 Alpha  occ. eigenvalues --   -0.52676  -0.52467  -0.52397  -0.49979  -0.49937
 Alpha  occ. eigenvalues --   -0.48056  -0.47861  -0.46822  -0.46601  -0.46141
 Alpha  occ. eigenvalues --   -0.45795  -0.45767  -0.45197  -0.43828  -0.43793
 Alpha virt. eigenvalues --    0.19277   0.23057   0.23957   0.24662   0.25281
 Alpha virt. eigenvalues --    0.26283   0.27026   0.27823   0.28529   0.29528
 Alpha virt. eigenvalues --    0.31046   0.31388   0.31663   0.31846   0.32099

 Mulliken charges:
               1
     1  C   -0.299437
     2  C   -0.309495
     3  C   -0.475238
     4  H    0.150774
     5  H    0.149968
     6  H    0.161468
     7  H    0.151499
     8  H    0.154877
     9  H    0.155736
    10  H    0.160237
    11  C   -0.300056
    12  C   -0.299648
    13  C   -0.475697
    14  H    0.149207
    15  H    0.149896
    16  H    0.152235
    17  H    0.152280
    18  H    0.155191
    19  H    0.154934
    20  H    0.160471
    21  C   -0.297436
    22  C   -0.299924
    23  C   -0.475742
    24  H    0.149572
    25  H    0.149704
    26  H    0.152415
    27  H    0.151956
    28  H    0.155168
    29  H    0.155262
    30  H    0.160373
    31  C   -0.307446
    32  C   -0.299135
    33  C   -0.479842
    34  H    0.157742
    35  H    0.149816
    36  H    0.151559
    37  H    0.152469
    38  H    0.155727
    39  H    0.157890
    40  H    0.160671
 Sum of Mulliken charges =  -0.00000

 Dipole moment (field-independent basis, Debye):
    X=             -0.0160    Y=              0.0045    Z=              0.0027  Tot=              0.0168
 Quadrupole moment (field-independent basis, Debye-Ang):
   XX=            -84.5451   YY=            -85.9065   ZZ=            -84.2183
   XY=             -0.9126   XZ=             -1.1173   YZ=             -0.0871

 Normal termination of Gaussian 16 at Thu May  6 03:55:50 2021.
