 Gaussian 16, Revision A.03,
 Gaussian 16:  EM64L-G16RevA.03 25-Dec-2016

 -------------
 #p 6-31g* mp2
 -------------

 ------------------------------------------------------
 Input file generated by CHIRIPA (05-May-2021 14:53:17)
 ------------------------------------------------------
 Symbolic Z-matrix:
 Charge =  0 Multiplicity = 1

                         Standard orientation:
 ---------------------------------------------------------------------
 Center     Atomic      Atomic             Coordinates (Angstroms)
 Number     Number       Type             X           Y           Z
 ---------------------------------------------------------------------
      1          6           0       -5.239711   -0.287586    0.306490
      2          6           0       -5.969040    0.343298   -0.880122
      3          6           0       -7.480761    0.428474   -0.667433
      4          1           0       -5.643685   -1.293651    0.484206
      5          1           0       -5.451136    0.298509    1.211579
      6          1           0       -5.755186   -0.243013   -1.782963
      7          1           0       -5.563149    1.347904   -1.055154
      8          1           0       -7.712018    1.030817    0.217047
      9          1           0       -7.905145   -0.569139   -0.514897
     10          1           0       -7.982265    0.882584   -1.527746
     11          6           0       -3.727698   -0.379676    0.108838
     12          6           0       -2.998369   -1.010561    1.295450
     13          6           0       -1.486648   -1.095737    1.082761
     14          1           0       -3.516273   -0.965772   -0.796251
     15          1           0       -3.323724    0.626388   -0.068878
     16          1           0       -3.404260   -2.015167    1.470482
     17          1           0       -3.212223   -0.424250    2.198291
     18          1           0       -1.062264   -0.098124    0.930225
     19          1           0       -1.255391   -1.698080    0.198281
     20          1           0       -0.985144   -1.549847    1.943074
     21          6           0        5.416233   -1.376812   -0.316438
     22          6           0        4.164181   -1.711674   -0.842513
     23          6           0        3.096882   -0.812201   -0.762709
     24          6           0        3.317919    0.418954   -0.147330
     25          6           0        4.553610    0.781754    0.386276
     26          6           0        5.606615   -0.133359    0.295199
     27          1           0        6.239785   -2.081619   -0.382810
     28          1           0        4.013427   -2.676642   -1.318071
     29          1           0        2.117208   -1.045701   -1.161627
     30          1           0        4.673331    1.751213    0.854500
     31          1           0        6.577888    0.129397    0.704631
     32          7           0        2.195584    1.379463   -0.056878
     33          8           0        2.416117    2.457752    0.490201
     34          8           0        1.116615    1.035836   -0.534774
 ---------------------------------------------------------------------

 SCF Done:  E(RHF) =  -669.536143918     A.U. after   15 cycles
 E2 =    -0.2090838783D+01 EUMP2 =    -0.67162698270034D+03

 The electronic state is 1-A.
 Alpha  occ. eigenvalues --  -20.60893 -20.60881 -15.85915 -11.31233 -11.27802
 Alpha  occ. eigenvalues --  -11.27790 -11.27542 -11.26810 -11.26798 -11.21059
 Alpha  occ. eigenvalues --  -11.20831 -11.20773 -11.20626 -11.20593 -11.20060
 Alpha  occ. eigenvalues --   -1.59949  -1.39505  -1.19404  -1.08811  -1.07749
 Alpha  occ. eigenvalues --   -1.04800  -1.02843  -0.95656  -0.95281  -0.86300
 Alpha  occ. eigenvalues --   -0.86201  -0.82487  -0.78919  -0.77577  -0.77505
 Alpha  occ. eigenvalues --   -0.72144  -0.71260  -0.70515  -0.65061  -0.64806
 Alpha  occ. eigenvalues --   -0.64381  -0.62147  -0.60239  -0.58678  -0.56892
 Alpha  occ. eigenvalues --   -0.55309  -0.54560  -0.53132  -0.52893  -0.52006
 Alpha  occ. eigenvalues --   -0.51693  -0.49234  -0.48903  -0.48880  -0.47233
 Alpha  occ. eigenvalues --   -0.45971  -0.45158  -0.45043  -0.44732  -0.43112
 Alpha  occ. eigenvalues --   -0.37384  -0.36401
 Alpha virt. eigenvalues --    0.04962   0.11252   0.16435   0.21311   0.23529
 Alpha virt. eigenvalues --    0.24943   0.26937   0.27428   0.27771   0.28259
 Alpha virt. eigenvalues --    0.29037   0.30871   0.31806   0.32330   0.32592

 Mulliken charges:
               1
     1  C   -0.297925
     2  C   -0.299370
     3  C   -0.475352
     4  H    0.146958
     5  H    0.149015
     6  H    0.150695
     7  H    0.153783
     8  H    0.154869
     9  H    0.153668
    10  H    0.159031
    11  C   -0.298495
    12  C   -0.299062
    13  C   -0.482666
    14  H    0.147088
    15  H    0.157154
    16  H    0.146608
    17  H    0.150914
    18  H    0.180268
    19  H    0.147075
    20  H    0.152105
    21  C   -0.170592
    22  C   -0.218667
    23  C   -0.170414
    24  C    0.158252
    25  C   -0.170817
    26  C   -0.218658
    27  H    0.225762
    28  H    0.223693
    29  H    0.276725
    30  H    0.275607
    31  H    0.223555
    32  N    0.488659
    33  O   -0.459699
    34  O   -0.459767
 Sum of Mulliken charges =  -0.00000

 Dipole moment (field-independent basis, Debye):
    X=              4.1661    Y=             -3.2318    Z=             -0.3631  Tot=              5.2851
 Quadrupole moment (field-independent basis, Debye-Ang):
   XX=            -69.0878   YY=            -95.2684   ZZ=            -94.2745
   XY=             -7.6951   XZ=              0.1219   YZ=              2.7877

 Normal termination of Gaussian 16 at Thu May  6 01:12:53 2021.
