 Gaussian 16, Revision A.03,
 Gaussian 16:  EM64L-G16RevA.03 25-Dec-2016

 -------------
 #p 6-31g* mp2
 -------------

 ------------------------------------------------------
 Input file generated by CHIRIPA (05-May-2021 14:53:18)
 ------------------------------------------------------
 Symbolic Z-matrix:
 Charge =  0 Multiplicity = 1

                         Standard orientation:
 ---------------------------------------------------------------------
 Center     Atomic      Atomic             Coordinates (Angstroms)
 Number     Number       Type             X           Y           Z
 ---------------------------------------------------------------------
      1          6           0        3.933464   -0.359456   -0.328809
      2          6           0        3.348984   -1.628433    0.292533
      3          6           0        2.115678   -2.138112   -0.453778
      4          1           0        3.162365    0.422944   -0.342979
      5          1           0        4.194868   -0.559707   -1.377123
      6          1           0        3.090040   -1.426243    1.339759
      7          1           0        4.121621   -2.407844    0.305400
      8          1           0        2.363097   -2.367358   -1.495330
      9          1           0        1.325655   -1.380179   -0.455094
     10          1           0        1.714138   -3.045901    0.007247
     11          6           0        5.166883    0.162286    0.406167
     12          6           0        5.751363    1.431262   -0.215174
     13          6           0        6.984669    1.940941    0.531136
     14          1           0        4.905478    0.362537    1.454481
     15          1           0        5.937982   -0.620115    0.420337
     16          1           0        4.978726    2.210673   -0.228042
     17          1           0        6.010307    1.229072   -1.262401
     18          1           0        7.774692    1.183008    0.532452
     19          1           0        6.737250    2.170187    1.572689
     20          1           0        7.386209    2.848730    0.070111
     21          6           0       -5.242468    1.939407    0.191803
     22          6           0       -4.156381    2.079014   -0.678511
     23          6           0       -3.215159    1.053596   -0.809543
     24          6           0       -3.391668   -0.103029   -0.051683
     25          6           0       -4.463142   -0.272022    0.823917
     26          6           0       -5.392118    0.766403    0.938922
     27          1           0       -5.968875    2.741027    0.287366
     28          1           0       -4.037625    2.988868   -1.259981
     29          1           0       -2.364975    1.135294   -1.475824
     30          1           0       -4.554813   -1.190770    1.390411
     31          1           0       -6.234606    0.655217    1.615603
     32          7           0       -2.401720   -1.195477   -0.181916
     33          8           0       -2.579776   -2.204536    0.496857
     34          8           0       -1.466489   -1.021994   -0.960301
 ---------------------------------------------------------------------

 SCF Done:  E(RHF) =  -669.535932088     A.U. after   15 cycles
 E2 =    -0.2090770419D+01 EUMP2 =    -0.67162670250738D+03

 The electronic state is 1-A.
 Alpha  occ. eigenvalues --  -20.60920 -20.60914 -15.85952 -11.31289 -11.27853
 Alpha  occ. eigenvalues --  -11.27849 -11.27592 -11.26863 -11.26853 -11.21138
 Alpha  occ. eigenvalues --  -11.20763 -11.20704 -11.20558 -11.20469 -11.19381
 Alpha  occ. eigenvalues --   -1.59979  -1.39536  -1.19458  -1.08859  -1.07674
 Alpha  occ. eigenvalues --   -1.04856  -1.02668  -0.95700  -0.95081  -0.86256
 Alpha  occ. eigenvalues --   -0.86087  -0.82532  -0.78766  -0.77585  -0.77442
 Alpha  occ. eigenvalues --   -0.72172  -0.71296  -0.70566  -0.65113  -0.64859
 Alpha  occ. eigenvalues --   -0.64317  -0.62203  -0.60071  -0.58536  -0.56689
 Alpha  occ. eigenvalues --   -0.55360  -0.54372  -0.53187  -0.52948  -0.51750
 Alpha  occ. eigenvalues --   -0.51506  -0.49184  -0.48928  -0.48772  -0.47045
 Alpha  occ. eigenvalues --   -0.45835  -0.45058  -0.44948  -0.44755  -0.42925
 Alpha  occ. eigenvalues --   -0.37437  -0.36458
 Alpha virt. eigenvalues --    0.04923   0.11196   0.16404   0.21331   0.23554
 Alpha virt. eigenvalues --    0.25244   0.27249   0.27367   0.28133   0.28245
 Alpha virt. eigenvalues --    0.29048   0.30889   0.32244   0.32401   0.32570

 Mulliken charges:
               1
     1  C   -0.296910
     2  C   -0.300486
     3  C   -0.478802
     4  H    0.148149
     5  H    0.148128
     6  H    0.148662
     7  H    0.147222
     8  H    0.149383
     9  H    0.174608
    10  H    0.161934
    11  C   -0.297422
    12  C   -0.298810
    13  C   -0.475198
    14  H    0.148011
    15  H    0.148676
    16  H    0.150124
    17  H    0.151268
    18  H    0.154868
    19  H    0.154262
    20  H    0.158280
    21  C   -0.170643
    22  C   -0.218540
    23  C   -0.170963
    24  C    0.157911
    25  C   -0.170708
    26  C   -0.218568
    27  H    0.225966
    28  H    0.223811
    29  H    0.275720
    30  H    0.275876
    31  H    0.223798
    32  N    0.489300
    33  O   -0.458771
    34  O   -0.460137
 Sum of Mulliken charges =  -0.00000

 Dipole moment (field-independent basis, Debye):
    X=             -3.8286    Y=              3.8195    Z=              0.4347  Tot=              5.4255
 Quadrupole moment (field-independent basis, Debye-Ang):
   XX=            -71.8960   YY=            -94.5725   ZZ=            -92.9861
   XY=            -12.1760   XZ=             -4.2976   YZ=             -2.2468

 Normal termination of Gaussian 16 at Thu May  6 07:35:31 2021.
