 Gaussian 16, Revision A.03,
 Gaussian 16:  EM64L-G16RevA.03 25-Dec-2016

 -------------
 #p 6-31g* mp2
 -------------

 ------------------------------------------------------
 Input file generated by CHIRIPA (05-May-2021 14:55:21)
 ------------------------------------------------------
 Symbolic Z-matrix:
 Charge =  0 Multiplicity = 1

                         Standard orientation:
 ---------------------------------------------------------------------
 Center     Atomic      Atomic             Coordinates (Angstroms)
 Number     Number       Type             X           Y           Z
 ---------------------------------------------------------------------
      1          6           0       -4.790400    0.809099    0.357463
      2          6           0       -4.757693   -0.416508   -0.315841
      3          6           0       -3.547660   -1.090864   -0.504552
      4          6           0       -2.384138   -0.508123   -0.004634
      5          6           0       -2.384178    0.711569    0.670378
      6          6           0       -3.605627    1.368240    0.847560
      7          1           0       -5.734817    1.326086    0.499581
      8          1           0       -5.676241   -0.853117   -0.697531
      9          1           0       -3.493622   -2.040932   -1.022111
     10          1           0       -1.452057    1.121800    1.039539
     11          1           0       -3.628017    2.319932    1.370844
     12          7           0       -1.097087   -1.212672   -0.198312
     13          8           0       -0.085924   -0.678168    0.251679
     14          8           0       -1.123830   -2.286062   -0.796439
     15          6           0        3.032965    1.023138   -0.511749
     16          6           0        2.662491    2.336352    0.178327
     17          6           0        2.083173    3.369367   -0.788661
     18          1           0        3.759358    1.228020   -1.310074
     19          1           0        2.140053    0.609128   -1.000318
     20          1           0        3.555525    2.747060    0.666616
     21          1           0        1.937041    2.128294    0.975227
     22          1           0        1.177044    2.983674   -1.266960
     23          1           0        2.804723    3.605955   -1.577325
     24          1           0        1.825296    4.300408   -0.274342
     25          6           0        3.613458   -0.019606    0.441897
     26          6           0        3.983932   -1.332820   -0.248179
     27          6           0        4.563250   -2.365836    0.718808
     28          1           0        4.506370    0.394405    0.930465
     29          1           0        2.887066   -0.224488    1.240221
     30          1           0        4.709383   -1.124763   -1.045079
     31          1           0        3.090898   -1.743527   -0.736467
     32          1           0        3.841699   -2.602423    1.507473
     33          1           0        5.469380   -1.980143    1.197108
     34          1           0        4.821128   -3.296876    0.204490
 ---------------------------------------------------------------------

 SCF Done:  E(RHF) =  -669.536581226     A.U. after   15 cycles
 E2 =    -0.2091938222D+01 EUMP2 =    -0.67162851944818D+03

 The electronic state is 1-A.
 Alpha  occ. eigenvalues --  -20.61108 -20.61102 -15.86124 -11.31382 -11.27936
 Alpha  occ. eigenvalues --  -11.27932 -11.27661 -11.26929 -11.26918 -11.20752
 Alpha  occ. eigenvalues --  -11.20527 -11.20148 -11.20039 -11.19943 -11.19860
 Alpha  occ. eigenvalues --   -1.60159  -1.39717  -1.19543  -1.08960  -1.07175
 Alpha  occ. eigenvalues --   -1.04929  -1.02443  -0.95814  -0.94901  -0.86333
 Alpha  occ. eigenvalues --   -0.85938  -0.82649  -0.78518  -0.77710  -0.76957
 Alpha  occ. eigenvalues --   -0.72364  -0.71466  -0.70652  -0.65210  -0.64932
 Alpha  occ. eigenvalues --   -0.63731  -0.62277  -0.59830  -0.58319  -0.56518
 Alpha  occ. eigenvalues --   -0.55436  -0.54174  -0.53264  -0.53018  -0.51681
 Alpha  occ. eigenvalues --   -0.51354  -0.49138  -0.49093  -0.48830  -0.46855
 Alpha  occ. eigenvalues --   -0.45561  -0.45176  -0.44521  -0.44229  -0.42636
 Alpha  occ. eigenvalues --   -0.37518  -0.36527
 Alpha virt. eigenvalues --    0.04786   0.11125   0.16276   0.20867   0.23528
 Alpha virt. eigenvalues --    0.25128   0.26864   0.27470   0.28539   0.28947
 Alpha virt. eigenvalues --    0.29124   0.30866   0.31709   0.32483   0.32782

 Mulliken charges:
               1
     1  C   -0.170333
     2  C   -0.218610
     3  C   -0.170443
     4  C    0.157551
     5  C   -0.171235
     6  C   -0.218597
     7  H    0.226404
     8  H    0.224140
     9  H    0.275991
    10  H    0.276404
    11  H    0.224469
    12  N    0.491503
    13  O   -0.464072
    14  O   -0.458094
    15  C   -0.300580
    16  C   -0.298414
    17  C   -0.475423
    18  H    0.142111
    19  H    0.166520
    20  H    0.148031
    21  H    0.149808
    22  H    0.152803
    23  H    0.154787
    24  H    0.153818
    25  C   -0.296131
    26  C   -0.302225
    27  C   -0.475219
    28  H    0.140301
    29  H    0.159240
    30  H    0.144655
    31  H    0.167432
    32  H    0.157164
    33  H    0.149308
    34  H    0.156938
 Sum of Mulliken charges =  -0.00000

 Dipole moment (field-independent basis, Debye):
    X=             -4.9191    Y=              2.2756    Z=              0.6604  Tot=              5.4600
 Quadrupole moment (field-independent basis, Debye-Ang):
   XX=            -73.0504   YY=            -96.2086   ZZ=            -94.6951
   XY=             -1.3051   XZ=             -0.8279   YZ=              2.3136

 Normal termination of Gaussian 16 at Thu May  6 15:48:56 2021.
