 Gaussian 16, Revision A.03,
 Gaussian 16:  EM64L-G16RevA.03 25-Dec-2016

 -------------
 #p 6-31g* mp2
 -------------

 ------------------------------------------------------
 Input file generated by CHIRIPA (05-May-2021 14:51:07)
 ------------------------------------------------------
 Symbolic Z-matrix:
 Charge =  0 Multiplicity = 1

                         Standard orientation:
 ---------------------------------------------------------------------
 Center     Atomic      Atomic             Coordinates (Angstroms)
 Number     Number       Type             X           Y           Z
 ---------------------------------------------------------------------
      1          6           0       -3.197263    0.472284   -0.249717
      2          6           0       -3.022698   -1.046674   -0.232984
      3          6           0       -4.289558   -1.791984   -0.654143
      4          1           0       -4.025230    0.747209    0.417990
      5          1           0       -3.491723    0.789429   -1.259720
      6          1           0       -2.727308   -1.360708    0.776344
      7          1           0       -2.194926   -1.317998   -0.900661
      8          1           0       -4.584486   -1.507319   -1.669320
      9          1           0       -5.119893   -1.550271    0.017214
     10          1           0       -4.142480   -2.876356   -0.635068
     11          6           0       -1.939350    1.231297    0.168950
     12          6           0       -2.113914    2.750254    0.152218
     13          6           0       -0.847054    3.495564    0.573376
     14          1           0       -1.644889    0.914151    1.178954
     15          1           0       -1.111383    0.956372   -0.498756
     16          1           0       -2.941686    3.021579    0.819894
     17          1           0       -2.409304    3.064288   -0.857110
     18          1           0       -0.016719    3.253852   -0.097980
     19          1           0       -0.552126    3.210900    1.588553
     20          1           0       -0.994132    4.579937    0.554301
     21          6           0        2.239050   -1.384166    0.478103
     22          6           0        0.877609   -1.842694   -0.045553
     23          6           0        0.231496   -2.907888    0.840841
     24          1           0        2.906702   -2.253196    0.555379
     25          1           0        2.118684   -0.990891    1.497045
     26          1           0        1.000277   -2.233711   -1.063725
     27          1           0        0.213180   -0.972441   -0.121772
     28          1           0        0.080230   -2.524948    1.855276
     29          1           0        0.871801   -3.793384    0.907972
     30          1           0       -0.740790   -3.221277    0.448023
     31          6           0        2.897563   -0.319415   -0.397337
     32          6           0        4.259004    0.139113    0.126320
     33          6           0        4.905116    1.204306   -0.760075
     34          1           0        3.017927   -0.712690   -1.416278
     35          1           0        2.229911    0.549615   -0.474612
     36          1           0        4.923433   -0.731140    0.202539
     37          1           0        4.136335    0.530130    1.144492
     38          1           0        4.264811    2.089804   -0.827204
     39          1           0        5.056382    0.821367   -1.774510
     40          1           0        5.877402    1.517696   -0.367257
 ---------------------------------------------------------------------

 SCF Done:  E(RHF) =  -470.732245127     A.U. after   11 cycles
 E2 =    -0.1584870941D+01 EUMP2 =    -0.47231711606800D+03

 The electronic state is 1-A.
 Alpha  occ. eigenvalues --  -11.21668 -11.21578 -11.21571 -11.21468 -11.21441
 Alpha  occ. eigenvalues --  -11.21398 -11.21359 -11.21286 -11.21151 -11.21087
 Alpha  occ. eigenvalues --  -11.21049 -11.20956  -1.08511  -1.08352  -1.03596
 Alpha  occ. eigenvalues --   -1.03446  -0.96037  -0.95918  -0.87058  -0.86926
 Alpha  occ. eigenvalues --   -0.79648  -0.79556  -0.78461  -0.78054  -0.65166
 Alpha  occ. eigenvalues --   -0.64961  -0.60973  -0.60878  -0.59554  -0.59166
 Alpha  occ. eigenvalues --   -0.57709  -0.57467  -0.55328  -0.55206  -0.52734
 Alpha  occ. eigenvalues --   -0.52598  -0.52495  -0.52314  -0.49973  -0.49870
 Alpha  occ. eigenvalues --   -0.47994  -0.47832  -0.46809  -0.46662  -0.46143
 Alpha  occ. eigenvalues --   -0.45778  -0.45690  -0.45013  -0.43832  -0.43707
 Alpha virt. eigenvalues --    0.21124   0.22431   0.23548   0.24451   0.25071
 Alpha virt. eigenvalues --    0.26570   0.26653   0.27353   0.28181   0.29822
 Alpha virt. eigenvalues --    0.30779   0.31057   0.31485   0.31769   0.32454

 Mulliken charges:
               1
     1  C   -0.297892
     2  C   -0.305170
     3  C   -0.476143
     4  H    0.149680
     5  H    0.149400
     6  H    0.154835
     7  H    0.156893
     8  H    0.155197
     9  H    0.155216
    10  H    0.160091
    11  C   -0.303607
    12  C   -0.298855
    13  C   -0.476206
    14  H    0.149438
    15  H    0.153482
    16  H    0.152323
    17  H    0.152284
    18  H    0.154865
    19  H    0.155097
    20  H    0.160843
    21  C   -0.297251
    22  C   -0.310419
    23  C   -0.476814
    24  H    0.149203
    25  H    0.149166
    26  H    0.149878
    27  H    0.164596
    28  H    0.153596
    29  H    0.154103
    30  H    0.163579
    31  C   -0.299194
    32  C   -0.299525
    33  C   -0.475696
    34  H    0.149125
    35  H    0.149513
    36  H    0.151957
    37  H    0.152105
    38  H    0.155108
    39  H    0.154971
    40  H    0.160228
 Sum of Mulliken charges =  -0.00000

 Dipole moment (field-independent basis, Debye):
    X=             -0.0586    Y=              0.0299    Z=             -0.0029  Tot=              0.0659
 Quadrupole moment (field-independent basis, Debye-Ang):
   XX=            -85.6082   YY=            -85.3914   ZZ=            -83.9121
   XY=             -1.3213   XZ=             -0.4713   YZ=              0.6294

 Normal termination of Gaussian 16 at Thu May  6 08:24:14 2021.
