 Gaussian 16, Revision A.03,
 Gaussian 16:  EM64L-G16RevA.03 25-Dec-2016

 -------------
 #p 6-31g* mp2
 -------------

 ------------------------------------------------------
 Input file generated by CHIRIPA (05-May-2021 14:57:24)
 ------------------------------------------------------
 Symbolic Z-matrix:
 Charge =  0 Multiplicity = 1

                         Standard orientation:
 ---------------------------------------------------------------------
 Center     Atomic      Atomic             Coordinates (Angstroms)
 Number     Number       Type             X           Y           Z
 ---------------------------------------------------------------------
      1          6           0       -1.357881   -1.615735    1.553602
      2          6           0       -1.417869   -0.231859    1.748049
      3          6           0       -2.288872    0.554771    0.988368
      4          6           0       -3.089232   -0.078305    0.038669
      5          6           0       -3.052386   -1.454816   -0.178474
      6          6           0       -2.173892   -2.221728    0.592656
      7          1           0       -0.678355   -2.219150    2.148188
      8          1           0       -0.785314    0.241474    2.493619
      9          1           0       -2.355539    1.628133    1.118244
     10          1           0       -3.695279   -1.898093   -0.929216
     11          1           0       -2.129424   -3.296254    0.439481
     12          7           0       -4.015289    0.744028   -0.771632
     13          8           0       -4.709996    0.162170   -1.601968
     14          8           0       -4.028889    1.954860   -0.561065
     15          6           0        3.487225   -2.190698   -0.702271
     16          6           0        2.169598   -1.821960   -0.411732
     17          6           0        1.852966   -0.492600   -0.116616
     18          6           0        2.883375    0.446298   -0.120972
     19          6           0        4.205779    0.110060   -0.406420
     20          6           0        4.499326   -1.225213   -0.698694
     21          1           0        3.724227   -3.225674   -0.930421
     22          1           0        1.381551   -2.569637   -0.413777
     23          1           0        0.841392   -0.179654    0.111860
     24          1           0        4.969877    0.877834   -0.396661
     25          1           0        5.523502   -1.508700   -0.923958
     26          7           0        2.560390    1.856761    0.189950
     27          8           0        3.486305    2.664975    0.179594
     28          8           0        1.387434    2.127361    0.438119
 ---------------------------------------------------------------------

 SCF Done:  E(RHF) =  -868.337841799     A.U. after   16 cycles
 E2 =    -0.2602303017D+01 EUMP2 =    -0.87094014481619D+03

 The electronic state is 1-A.
 Alpha  occ. eigenvalues --  -20.61207 -20.61169 -20.60839 -20.60808 -15.86239
 Alpha  occ. eigenvalues --  -15.85885 -11.31525 -11.31448 -11.28120 -11.28102
 Alpha  occ. eigenvalues --  -11.27982 -11.27940 -11.27900 -11.27889 -11.27213
 Alpha  occ. eigenvalues --  -11.27137 -11.27117 -11.26983  -1.60260  -1.59898
 Alpha  occ. eigenvalues --   -1.39818  -1.39443  -1.19733  -1.19669  -1.09137
 Alpha  occ. eigenvalues --   -1.09062  -1.05135  -1.05048  -0.95976  -0.95830
 Alpha  occ. eigenvalues --   -0.86576  -0.86411  -0.82825  -0.82609  -0.77882
 Alpha  occ. eigenvalues --   -0.77603  -0.72466  -0.72100  -0.71582  -0.71224
 Alpha  occ. eigenvalues --   -0.70848  -0.70762  -0.65380  -0.65314  -0.65133
 Alpha  occ. eigenvalues --   -0.65030  -0.62507  -0.62344  -0.55669  -0.55611
 Alpha  occ. eigenvalues --   -0.53625  -0.53449  -0.53121  -0.52960  -0.49217
 Alpha  occ. eigenvalues --   -0.49205  -0.48879  -0.48837  -0.45238  -0.44803
 Alpha  occ. eigenvalues --   -0.37776  -0.37717  -0.36769  -0.36574
 Alpha virt. eigenvalues --    0.04595   0.04904   0.10620   0.11163   0.15967
 Alpha virt. eigenvalues --    0.16393   0.20500   0.21689   0.26456   0.27201
 Alpha virt. eigenvalues --    0.28154   0.28434   0.30697   0.30940   0.32235

 Mulliken charges:
               1
     1  C   -0.179875
     2  C   -0.231621
     3  C   -0.162994
     4  C    0.157747
     5  C   -0.170458
     6  C   -0.222810
     7  H    0.225919
     8  H    0.235419
     9  H    0.286632
    10  H    0.276603
    11  H    0.221438
    12  N    0.488055
    13  O   -0.461313
    14  O   -0.454576
    15  C   -0.169850
    16  C   -0.225445
    17  C   -0.180530
    18  C    0.155754
    19  C   -0.169459
    20  C   -0.219322
    21  H    0.225448
    22  H    0.219034
    23  H    0.290322
    24  H    0.276526
    25  H    0.224466
    26  N    0.488011
    27  O   -0.457549
    28  O   -0.465572
 Sum of Mulliken charges =  -0.00000

 Dipole moment (field-independent basis, Debye):
    X=              4.2390    Y=             -7.5606    Z=              1.8025  Tot=              8.8533
 Quadrupole moment (field-independent basis, Debye-Ang):
   XX=           -113.3036   YY=           -106.1028   ZZ=           -104.3341
   XY=             -2.7856   XZ=            -12.1289   YZ=              2.0672

 Normal termination of Gaussian 16 at Fri May  7 01:53:33 2021.
