 Gaussian 16, Revision A.03,
 Gaussian 16:  EM64L-G16RevA.03 25-Dec-2016

 -------------
 #p 6-31g* mp2
 -------------

 ------------------------------------------------------
 Input file generated by CHIRIPA (05-May-2021 14:57:23)
 ------------------------------------------------------
 Symbolic Z-matrix:
 Charge =  0 Multiplicity = 1

                         Standard orientation:
 ---------------------------------------------------------------------
 Center     Atomic      Atomic             Coordinates (Angstroms)
 Number     Number       Type             X           Y           Z
 ---------------------------------------------------------------------
      1          6           0        2.657248    2.207043    0.909492
      2          6           0        2.206474    1.238856    1.812786
      3          6           0        2.159508   -0.108917    1.444207
      4          6           0        2.572710   -0.454763    0.158538
      5          6           0        3.026792    0.486523   -0.764002
      6          6           0        3.065249    1.828454   -0.373756
      7          1           0        2.690428    3.251756    1.204229
      8          1           0        1.888996    1.529974    2.810034
      9          1           0        1.814914   -0.879051    2.123594
     10          1           0        3.336739    0.165769   -1.751153
     11          1           0        3.415784    2.578201   -1.077353
     12          7           0        2.527493   -1.878497   -0.243129
     13          8           0        2.897039   -2.157393   -1.381676
     14          8           0        2.123362   -2.688566    0.588198
     15          6           0       -1.006865    2.038660   -0.988644
     16          6           0       -0.630428    0.695939   -1.097811
     17          6           0       -1.494112   -0.319995   -0.677724
     18          6           0       -2.732264    0.044305   -0.150886
     19          6           0       -3.136087    1.372987   -0.029151
     20          6           0       -2.256291    2.372310   -0.455602
     21          1           0       -0.329676    2.821410   -1.317449
     22          1           0        0.339275    0.433874   -1.511386
     23          1           0       -1.228072   -1.367516   -0.750794
     24          1           0       -4.109248    1.603161    0.387257
     25          1           0       -2.551299    3.414242   -0.369621
     26          7           0       -3.655136   -1.022427    0.297210
     27          8           0       -4.740450   -0.675252    0.757862
     28          8           0       -3.275695   -2.185508    0.179291
 ---------------------------------------------------------------------

 SCF Done:  E(RHF) =  -868.335929600     A.U. after   16 cycles
 E2 =    -0.2604099602D+01 EUMP2 =    -0.87094002920192D+03

 The electronic state is 1-A.
 Alpha  occ. eigenvalues --  -20.61579 -20.61546 -20.60630 -20.60600 -15.86612
 Alpha  occ. eigenvalues --  -15.85670 -11.32080 -11.31112 -11.28698 -11.28604
 Alpha  occ. eigenvalues --  -11.28441 -11.27783 -11.27713 -11.27637 -11.27601
 Alpha  occ. eigenvalues --  -11.27473 -11.26784 -11.26598  -1.60649  -1.59695
 Alpha  occ. eigenvalues --   -1.40191  -1.39243  -1.20312  -1.19290  -1.09668
 Alpha  occ. eigenvalues --   -1.08684  -1.05706  -1.04701  -0.96473  -0.95503
 Alpha  occ. eigenvalues --   -0.87094  -0.86100  -0.83283  -0.82334  -0.78316
 Alpha  occ. eigenvalues --   -0.77369  -0.72807  -0.72017  -0.71885  -0.71371
 Alpha  occ. eigenvalues --   -0.71025  -0.70418  -0.65929  -0.65672  -0.64941
 Alpha  occ. eigenvalues --   -0.64761  -0.63019  -0.62077  -0.56177  -0.55253
 Alpha  occ. eigenvalues --   -0.54316  -0.53762  -0.52969  -0.52518  -0.49590
 Alpha  occ. eigenvalues --   -0.49567  -0.48656  -0.48634  -0.45553  -0.44632
 Alpha  occ. eigenvalues --   -0.38329  -0.37331  -0.37260  -0.36223
 Alpha virt. eigenvalues --    0.04148   0.05163   0.10192   0.11332   0.15653
 Alpha virt. eigenvalues --    0.16623   0.20468   0.21547   0.26409   0.27072
 Alpha virt. eigenvalues --    0.27662   0.28320   0.30099   0.30900   0.31917

 Mulliken charges:
               1
     1  C   -0.171808
     2  C   -0.214129
     3  C   -0.167225
     4  C    0.158888
     5  C   -0.189050
     6  C   -0.220015
     7  H    0.227485
     8  H    0.228373
     9  H    0.281235
    10  H    0.277190
    11  H    0.224563
    12  N    0.485473
    13  O   -0.460342
    14  O   -0.453512
    15  C   -0.173062
    16  C   -0.216316
    17  C   -0.176694
    18  C    0.157980
    19  C   -0.172440
    20  C   -0.219900
    21  H    0.218961
    22  H    0.227388
    23  H    0.282806
    24  H    0.274671
    25  H    0.220469
    26  N    0.487442
    27  O   -0.462407
    28  O   -0.456025
 Sum of Mulliken charges =  -0.00000

 Dipole moment (field-independent basis, Debye):
    X=              3.5898    Y=              8.5867    Z=              0.0859  Tot=              9.3072
 Quadrupole moment (field-independent basis, Debye-Ang):
   XX=           -120.1246   YY=           -107.2183   ZZ=           -100.1026
   XY=              0.8357   XZ=              5.1336   YZ=             -0.5072

 Normal termination of Gaussian 16 at Wed May  5 16:20:05 2021.
