 Gaussian 16, Revision A.03,
 Gaussian 16:  EM64L-G16RevA.03 25-Dec-2016

 -------------
 #p 6-31g* mp2
 -------------

 ------------------------------------------------------
 Input file generated by CHIRIPA (05-May-2021 14:53:13)
 ------------------------------------------------------
 Symbolic Z-matrix:
 Charge =  0 Multiplicity = 1

                         Standard orientation:
 ---------------------------------------------------------------------
 Center     Atomic      Atomic             Coordinates (Angstroms)
 Number     Number       Type             X           Y           Z
 ---------------------------------------------------------------------
      1          6           0       -4.471866   -0.002313   -0.490611
      2          6           0       -5.907731    0.365010   -0.114648
      3          6           0       -6.674962    1.009018   -1.269813
      4          1           0       -3.944248    0.901704   -0.824255
      5          1           0       -4.489020   -0.688755   -1.348455
      6          1           0       -5.887923    1.049466    0.743108
      7          1           0       -6.431936   -0.539952    0.218322
      8          1           0       -6.724399    0.328701   -2.126157
      9          1           0       -6.177295    1.927149   -1.598390
     10          1           0       -7.698975    1.263546   -0.979172
     11          6           0       -3.692024   -0.647106    0.653862
     12          6           0       -2.256158   -1.014429    0.277899
     13          6           0       -1.488928   -1.658436    1.433064
     14          1           0       -3.674870    0.039336    1.511707
     15          1           0       -4.219642   -1.551123    0.987506
     16          1           0       -1.731954   -0.109467   -0.055071
     17          1           0       -2.275967   -1.698885   -0.579856
     18          1           0       -1.986594   -2.576568    1.761641
     19          1           0       -1.439490   -0.978119    2.289408
     20          1           0       -0.464915   -1.912965    1.142423
     21          6           0        3.913532   -2.055939   -0.775576
     22          6           0        2.744685   -1.889039   -0.025602
     23          6           0        2.333652   -0.614011    0.374275
     24          6           0        3.118976    0.476964    0.005045
     25          6           0        4.288512    0.343138   -0.741659
     26          6           0        4.680364   -0.941283   -1.130585
     27          1           0        4.225381   -3.050060   -1.081957
     28          1           0        2.147182   -2.752885    0.251539
     29          1           0        1.433168   -0.456161    0.955333
     30          1           0        4.863363    1.223349   -1.002795
     31          1           0        5.588566   -1.067897   -1.712977
     32          7           0        2.693988    1.831752    0.422580
     33          8           0        3.403394    2.776788    0.084514
     34          8           0        1.659524    1.922947    1.080002
 ---------------------------------------------------------------------

 SCF Done:  E(RHF) =  -669.535485915     A.U. after   15 cycles
 E2 =    -0.2091353972D+01 EUMP2 =    -0.67162683988762D+03

 The electronic state is 1-A.
 Alpha  occ. eigenvalues --  -20.60763 -20.60757 -15.85813 -11.31150 -11.27734
 Alpha  occ. eigenvalues --  -11.27684 -11.27480 -11.26747 -11.26733 -11.21798
 Alpha  occ. eigenvalues --  -11.21603 -11.21532 -11.21440 -11.21328 -11.20981
 Alpha  occ. eigenvalues --   -1.59837  -1.39391  -1.19331  -1.08733  -1.08480
 Alpha  occ. eigenvalues --   -1.04737  -1.03645  -0.96124  -0.95568  -0.87144
 Alpha  occ. eigenvalues --   -0.86131  -0.82406  -0.79703  -0.78263  -0.77455
 Alpha  occ. eigenvalues --   -0.72035  -0.71158  -0.70454  -0.65099  -0.64990
 Alpha  occ. eigenvalues --   -0.64740  -0.62172  -0.61014  -0.59490  -0.57715
 Alpha  occ. eigenvalues --   -0.55397  -0.55224  -0.53072  -0.52943  -0.52736
 Alpha  occ. eigenvalues --   -0.52517  -0.50026  -0.48790  -0.48788  -0.48024
 Alpha  occ. eigenvalues --   -0.46699  -0.45816  -0.45709  -0.44801  -0.43900
 Alpha  occ. eigenvalues --   -0.37317  -0.36332
 Alpha virt. eigenvalues --    0.05071   0.11308   0.16553   0.19971   0.22958
 Alpha virt. eigenvalues --    0.23919   0.26092   0.26578   0.27525   0.27780
 Alpha virt. eigenvalues --    0.28777   0.30338   0.31333   0.31897   0.32129

 Mulliken charges:
               1
     1  C   -0.299104
     2  C   -0.299957
     3  C   -0.475929
     4  H    0.153347
     5  H    0.148228
     6  H    0.153573
     7  H    0.150969
     8  H    0.154367
     9  H    0.156692
    10  H    0.160327
    11  C   -0.299047
    12  C   -0.301763
    13  C   -0.479620
    14  H    0.153484
    15  H    0.148479
    16  H    0.160275
    17  H    0.150091
    18  H    0.157237
    19  H    0.163688
    20  H    0.145317
    21  C   -0.170568
    22  C   -0.221659
    23  C   -0.176994
    24  C    0.158796
    25  C   -0.170467
    26  C   -0.218972
    27  H    0.225532
    28  H    0.224292
    29  H    0.284081
    30  H    0.275421
    31  H    0.223359
    32  N    0.488129
    33  O   -0.460425
    34  O   -0.461177
 Sum of Mulliken charges =  -0.00000

 Dipole moment (field-independent basis, Debye):
    X=              1.3772    Y=             -4.6845    Z=             -1.4565  Tot=              5.0954
 Quadrupole moment (field-independent basis, Debye-Ang):
   XX=            -82.5415   YY=            -98.6546   ZZ=            -94.8224
   XY=            -12.1145   XZ=             -7.3629   YZ=             -1.0504

 Normal termination of Gaussian 16 at Thu May  6 12:03:03 2021.
