 Gaussian 16, Revision A.03,
 Gaussian 16:  EM64L-G16RevA.03 25-Dec-2016

 -------------
 #p 6-31g* mp2
 -------------

 ------------------------------------------------------
 Input file generated by CHIRIPA (05-May-2021 14:57:25)
 ------------------------------------------------------
 Symbolic Z-matrix:
 Charge =  0 Multiplicity = 1

                         Standard orientation:
 ---------------------------------------------------------------------
 Center     Atomic      Atomic             Coordinates (Angstroms)
 Number     Number       Type             X           Y           Z
 ---------------------------------------------------------------------
      1          6           0       -2.182407    2.351406    0.282949
      2          6           0       -2.231545    1.574045    1.444765
      3          6           0       -2.695773    0.256143    1.398143
      4          6           0       -3.104847   -0.254744    0.167313
      5          6           0       -3.067870    0.494589   -1.007601
      6          6           0       -2.599990    1.810151   -0.937374
      7          1           0       -1.820365    3.374276    0.328334
      8          1           0       -1.907889    1.991766    2.393870
      9          1           0       -2.744385   -0.367874    2.282257
     10          1           0       -3.397302    0.050527   -1.939105
     11          1           0       -2.562937    2.411532   -1.841262
     12          7           0       -3.598238   -1.648710    0.105463
     13          8           0       -3.952894   -2.075453   -0.991235
     14          8           0       -3.620959   -2.288163    1.154853
     15          6           0        1.092660    1.529765   -0.788534
     16          6           0        1.148020    0.224337   -1.287849
     17          6           0        2.213126   -0.618229   -0.955915
     18          6           0        3.210201   -0.120473   -0.118435
     19          6           0        3.183325    1.175265    0.395014
     20          6           0        2.108699    2.000233    0.049826
     21          1           0        0.261563    2.177454   -1.051537
     22          1           0        0.360360   -0.143719   -1.939134
     23          1           0        2.280937   -1.633163   -1.328375
     24          1           0        3.983346    1.513884    1.042102
     25          1           0        2.068321    3.013593    0.439077
     26          7           0        4.342819   -1.003144    0.239985
     27          8           0        5.208712   -0.540746    0.979617
     28          8           0        4.343228   -2.140666   -0.225506
 ---------------------------------------------------------------------

 SCF Done:  E(RHF) =  -868.335425061     A.U. after   16 cycles
 E2 =    -0.2602976459D+01 EUMP2 =    -0.87093840152028D+03

 The electronic state is 1-A.
 Alpha  occ. eigenvalues --  -20.61530 -20.61512 -20.60873 -20.60860 -15.86585
 Alpha  occ. eigenvalues --  -15.85928 -11.32181 -11.31343 -11.28825 -11.28718
 Alpha  occ. eigenvalues --  -11.28601 -11.27984 -11.27913 -11.27900 -11.27773
 Alpha  occ. eigenvalues --  -11.27663 -11.27022 -11.26909  -1.60596  -1.59945
 Alpha  occ. eigenvalues --   -1.40142  -1.39497  -1.20394  -1.19543  -1.09777
 Alpha  occ. eigenvalues --   -1.08924  -1.05814  -1.04960  -0.96563  -0.95748
 Alpha  occ. eigenvalues --   -0.87215  -0.86360  -0.83366  -0.82588  -0.78354
 Alpha  occ. eigenvalues --   -0.77618  -0.72798  -0.72145  -0.71926  -0.71580
 Alpha  occ. eigenvalues --   -0.71272  -0.70674  -0.66041  -0.65809  -0.65198
 Alpha  occ. eigenvalues --   -0.64990  -0.63133  -0.62312  -0.56372  -0.55718
 Alpha  occ. eigenvalues --   -0.54048  -0.53893  -0.53163  -0.53046  -0.49575
 Alpha  occ. eigenvalues --   -0.49538  -0.48911  -0.48894  -0.45497  -0.44891
 Alpha  occ. eigenvalues --   -0.38552  -0.37432  -0.37296  -0.36566
 Alpha virt. eigenvalues --    0.04078   0.04985   0.10054   0.11074   0.15469
 Alpha virt. eigenvalues --    0.16468   0.19532   0.21864   0.25967   0.26157
 Alpha virt. eigenvalues --    0.27554   0.29234   0.30012   0.30703   0.32290

 Mulliken charges:
               1
     1  C   -0.177212
     2  C   -0.213273
     3  C   -0.167685
     4  C    0.160058
     5  C   -0.174033
     6  C   -0.227390
     7  H    0.224474
     8  H    0.227393
     9  H    0.280468
    10  H    0.277733
    11  H    0.224157
    12  N    0.487709
    13  O   -0.459371
    14  O   -0.455706
    15  C   -0.162515
    16  C   -0.221180
    17  C   -0.169977
    18  C    0.157854
    19  C   -0.170448
    20  C   -0.222663
    21  H    0.218758
    22  H    0.223365
    23  H    0.278231
    24  H    0.275200
    25  H    0.217627
    26  N    0.488061
    27  O   -0.461083
    28  O   -0.458551
 Sum of Mulliken charges =  -0.00000

 Dipole moment (field-independent basis, Debye):
    X=             -2.4847    Y=              7.7755    Z=             -0.8702  Tot=              8.2091
 Quadrupole moment (field-independent basis, Debye-Ang):
   XX=           -141.3416   YY=           -106.5896   ZZ=            -98.4640
   XY=             -3.6698   XZ=             -2.2801   YZ=              2.5355

 Normal termination of Gaussian 16 at Thu May  6 22:54:18 2021.
