 Gaussian 16, Revision A.03,
 Gaussian 16:  EM64L-G16RevA.03 25-Dec-2016

 -------------
 #p 6-31g* mp2
 -------------

 ------------------------------------------------------
 Input file generated by CHIRIPA (05-May-2021 14:51:13)
 ------------------------------------------------------
 Symbolic Z-matrix:
 Charge =  0 Multiplicity = 1

                         Standard orientation:
 ---------------------------------------------------------------------
 Center     Atomic      Atomic             Coordinates (Angstroms)
 Number     Number       Type             X           Y           Z
 ---------------------------------------------------------------------
      1          6           0        4.208235   -0.512498   -0.259792
      2          6           0        3.866501   -1.829015    0.438767
      3          6           0        4.593019   -3.027995   -0.171491
      4          1           0        3.954033   -0.593501   -1.325515
      5          1           0        5.293693   -0.349447   -0.208881
      6          1           0        2.781851   -1.988851    0.387762
      7          1           0        4.121370   -1.744803    1.502988
      8          1           0        5.677776   -2.894842   -0.106883
      9          1           0        4.330646   -3.140276   -1.228446
     10          1           0        4.334210   -3.958664    0.343030
     11          6           0        3.489674    0.695343    0.338970
     12          6           0        3.831408    2.011860   -0.359590
     13          6           0        3.104890    3.210839    0.250668
     14          1           0        2.404217    0.532292    0.288059
     15          1           0        3.743877    0.776345    1.404692
     16          1           0        3.576540    1.927648   -1.423811
     17          1           0        4.916059    2.171696   -0.308584
     18          1           0        3.367263    3.323121    1.307624
     19          1           0        2.020134    3.077687    0.186061
     20          1           0        3.363699    4.141509   -0.263852
     21          6           0       -3.205562    0.299404   -0.168942
     22          6           0       -1.939035   -0.531501    0.039605
     23          6           0       -0.660092    0.264207   -0.222971
     24          1           0       -3.217380    0.686431   -1.197055
     25          1           0       -3.174661    1.174938    0.494294
     26          1           0       -1.972964   -1.405941   -0.622829
     27          1           0       -1.930325   -0.916753    1.067283
     28          1           0       -0.599294    1.127855    0.447115
     29          1           0       -0.642174    0.635888   -1.252599
     30          1           0        0.233155   -0.348952   -0.068032
     31          6           0       -4.492347   -0.482249    0.089765
     32          6           0       -5.758874    0.348656   -0.118782
     33          6           0       -7.037818   -0.447052    0.143793
     34          1           0       -4.523248   -1.357783   -0.573471
     35          1           0       -4.480529   -0.869275    1.117877
     36          1           0       -5.767584    0.733908   -1.146460
     37          1           0       -5.724947    1.223097    0.543651
     38          1           0       -7.055735   -0.818732    1.173421
     39          1           0       -7.098616   -1.310700   -0.526293
     40          1           0       -7.931065    0.166108   -0.011146
 ---------------------------------------------------------------------

 SCF Done:  E(RHF) =  -470.733187730     A.U. after   11 cycles
 E2 =    -0.1582898386D+01 EUMP2 =    -0.47231608611583D+03

 The electronic state is 1-A.
 Alpha  occ. eigenvalues --  -11.21671 -11.21627 -11.21595 -11.21520 -11.21447
 Alpha  occ. eigenvalues --  -11.21386 -11.21333 -11.21232 -11.21175 -11.21090
 Alpha  occ. eigenvalues --  -11.21059 -11.20997  -1.08477  -1.08368  -1.03585
 Alpha  occ. eigenvalues --   -1.03477  -0.96045  -0.95920  -0.87068  -0.86936
 Alpha  occ. eigenvalues --   -0.79666  -0.79534  -0.78293  -0.78170  -0.65106
 Alpha  occ. eigenvalues --   -0.65017  -0.60983  -0.60874  -0.59426  -0.59292
 Alpha  occ. eigenvalues --   -0.57682  -0.57507  -0.55322  -0.55218  -0.52804
 Alpha  occ. eigenvalues --   -0.52617  -0.52471  -0.52313  -0.49979  -0.49862
 Alpha  occ. eigenvalues --   -0.47976  -0.47853  -0.46692  -0.46567  -0.45839
 Alpha  occ. eigenvalues --   -0.45765  -0.45712  -0.45645  -0.43765  -0.43699
 Alpha virt. eigenvalues --    0.21110   0.22983   0.23674   0.24253   0.25752
 Alpha virt. eigenvalues --    0.26519   0.26964   0.27252   0.27841   0.29065
 Alpha virt. eigenvalues --    0.30061   0.31362   0.31776   0.31941   0.32268

 Mulliken charges:
               1
     1  C   -0.297710
     2  C   -0.301175
     3  C   -0.475622
     4  H    0.149361
     5  H    0.149343
     6  H    0.151936
     7  H    0.152112
     8  H    0.155344
     9  H    0.155169
    10  H    0.160133
    11  C   -0.308016
    12  C   -0.298609
    13  C   -0.476941
    14  H    0.160773
    15  H    0.148797
    16  H    0.151685
    17  H    0.151376
    18  H    0.154714
    19  H    0.156716
    20  H    0.159813
    21  C   -0.298812
    22  C   -0.299604
    23  C   -0.481435
    24  H    0.149705
    25  H    0.149782
    26  H    0.152083
    27  H    0.152546
    28  H    0.156299
    29  H    0.155467
    30  H    0.164280
    31  C   -0.298323
    32  C   -0.299665
    33  C   -0.475731
    34  H    0.149582
    35  H    0.149800
    36  H    0.151977
    37  H    0.152040
    38  H    0.155245
    39  H    0.155208
    40  H    0.160358
 Sum of Mulliken charges =  -0.00000

 Dipole moment (field-independent basis, Debye):
    X=             -0.0533    Y=             -0.0054    Z=              0.0001  Tot=              0.0535
 Quadrupole moment (field-independent basis, Debye-Ang):
   XX=            -85.5335   YY=            -85.8865   ZZ=            -83.5131
   XY=              0.0661   XZ=              0.8248   YZ=              0.1231

 Normal termination of Gaussian 16 at Wed May  5 18:21:06 2021.
