 Gaussian 16, Revision A.03,
 Gaussian 16:  EM64L-G16RevA.03 25-Dec-2016

 -------------
 #p 6-31g* mp2
 -------------

 ------------------------------------------------------
 Input file generated by CHIRIPA (05-May-2021 14:55:21)
 ------------------------------------------------------
 Symbolic Z-matrix:
 Charge =  0 Multiplicity = 1

                         Standard orientation:
 ---------------------------------------------------------------------
 Center     Atomic      Atomic             Coordinates (Angstroms)
 Number     Number       Type             X           Y           Z
 ---------------------------------------------------------------------
      1          6           0       -5.743680    0.676601    0.131780
      2          6           0       -5.538255   -0.668271    0.456803
      3          6           0       -4.268812   -1.241685    0.337387
      4          6           0       -3.222649   -0.437484   -0.112160
      5          6           0       -3.395546    0.905441   -0.443748
      6          6           0       -4.673557    1.457788   -0.316668
      7          1           0       -6.733142    1.113860    0.227522
      8          1           0       -6.367474   -1.277345    0.805327
      9          1           0       -4.081743   -2.280198    0.582162
     10          1           0       -2.549422    1.487368   -0.788497
     11          1           0       -4.830155    2.502510   -0.569803
     12          7           0       -1.874212   -1.033380   -0.242637
     13          8           0       -0.969019   -0.303578   -0.640949
     14          8           0       -1.748032   -2.218962    0.055877
     15          6           0        3.766178    0.623675    0.481757
     16          6           0        3.016134    1.784543   -0.172309
     17          6           0        1.731346    2.151780    0.570828
     18          1           0        3.104635   -0.252195    0.528200
     19          1           0        4.005688    0.889913    1.520578
     20          1           0        2.779326    1.516740   -1.210009
     21          1           0        3.679603    2.657695   -0.217374
     22          1           0        1.953140    2.444699    1.602141
     23          1           0        1.047748    1.297261    0.603867
     24          1           0        1.211118    2.983876    0.086226
     25          6           0        5.052735    0.244863   -0.249680
     26          6           0        5.802779   -0.916005    0.404388
     27          6           0        7.087567   -1.283242   -0.338749
     28          1           0        4.813226   -0.021375   -1.288499
     29          1           0        5.714278    1.120734   -0.296122
     30          1           0        5.139311   -1.789157    0.449452
     31          1           0        6.039587   -0.648202    1.442087
     32          1           0        7.771165   -0.428723   -0.371788
     33          1           0        6.865773   -1.576160   -1.370063
     34          1           0        7.607796   -2.115337    0.145853
 ---------------------------------------------------------------------

 SCF Done:  E(RHF) =  -669.536313811     A.U. after   15 cycles
 E2 =    -0.2090730038D+01 EUMP2 =    -0.67162704384910D+03

 The electronic state is 1-A.
 Alpha  occ. eigenvalues --  -20.60966 -20.60955 -15.85992 -11.31287 -11.27851
 Alpha  occ. eigenvalues --  -11.27842 -11.27587 -11.26854 -11.26843 -11.20866
 Alpha  occ. eigenvalues --  -11.20595 -11.20557 -11.20456 -11.20367 -11.19926
 Alpha  occ. eigenvalues --   -1.60024  -1.39580  -1.19455  -1.08866  -1.07533
 Alpha  occ. eigenvalues --   -1.04848  -1.02644  -0.95713  -0.95097  -0.86250
 Alpha  occ. eigenvalues --   -0.86121  -0.82546  -0.78729  -0.77601  -0.77336
 Alpha  occ. eigenvalues --   -0.72222  -0.71335  -0.70565  -0.65113  -0.64852
 Alpha  occ. eigenvalues --   -0.64149  -0.62195  -0.60018  -0.58495  -0.56719
 Alpha  occ. eigenvalues --   -0.55356  -0.54358  -0.53181  -0.52940  -0.51829
 Alpha  occ. eigenvalues --   -0.51529  -0.49089  -0.48980  -0.48899  -0.47050
 Alpha  occ. eigenvalues --   -0.45773  -0.45026  -0.44866  -0.44699  -0.42914
 Alpha  occ. eigenvalues --   -0.37434  -0.36448
 Alpha virt. eigenvalues --    0.04893   0.11207   0.16365   0.21299   0.23766
 Alpha virt. eigenvalues --    0.25133   0.27205   0.27542   0.28015   0.28425
 Alpha virt. eigenvalues --    0.29056   0.30928   0.32075   0.32515   0.32820

 Mulliken charges:
               1
     1  C   -0.170520
     2  C   -0.218620
     3  C   -0.170748
     4  C    0.157925
     5  C   -0.170597
     6  C   -0.218591
     7  H    0.225993
     8  H    0.223768
     9  H    0.275741
    10  H    0.276533
    11  H    0.223951
    12  N    0.490017
    13  O   -0.462049
    14  O   -0.459034
    15  C   -0.300293
    16  C   -0.296944
    17  C   -0.484492
    18  H    0.159628
    19  H    0.145462
    20  H    0.154782
    21  H    0.145660
    22  H    0.147823
    23  H    0.178768
    24  H    0.150595
    25  C   -0.297890
    26  C   -0.299596
    27  C   -0.475286
    28  H    0.150343
    29  H    0.146275
    30  H    0.154547
    31  H    0.149993
    32  H    0.153279
    33  H    0.155083
    34  H    0.158494
 Sum of Mulliken charges =  -0.00000

 Dipole moment (field-independent basis, Debye):
    X=             -5.0390    Y=              1.9360    Z=              0.4204  Tot=              5.4144
 Quadrupole moment (field-independent basis, Debye-Ang):
   XX=            -65.5531   YY=            -93.1331   ZZ=            -95.1434
   XY=             -2.7186   XZ=             -1.0990   YZ=             -2.0029

 Normal termination of Gaussian 16 at Thu May  6 09:20:10 2021.
