 Gaussian 16, Revision A.03,
 Gaussian 16:  EM64L-G16RevA.03 25-Dec-2016

 -------------
 #p 6-31g* mp2
 -------------

 ------------------------------------------------------
 Input file generated by CHIRIPA (05-May-2021 14:57:27)
 ------------------------------------------------------
 Symbolic Z-matrix:
 Charge =  0 Multiplicity = 1

                         Standard orientation:
 ---------------------------------------------------------------------
 Center     Atomic      Atomic             Coordinates (Angstroms)
 Number     Number       Type             X           Y           Z
 ---------------------------------------------------------------------
      1          6           0       -6.673388    1.184771   -0.012070
      2          6           0       -6.702945   -0.196329   -0.231641
      3          6           0       -5.517209   -0.936496   -0.258663
      4          6           0       -4.314228   -0.260293   -0.061492
      5          6           0       -4.252034    1.114679    0.159577
      6          6           0       -5.450183    1.834721    0.182495
      7          1           0       -7.599318    1.751934    0.007327
      8          1           0       -7.651447   -0.703738   -0.383050
      9          1           0       -5.511196   -2.006625   -0.426613
     10          1           0       -3.291191    1.592577    0.307273
     11          1           0       -5.424200    2.907204    0.353230
     12          7           0       -3.052372   -1.033223   -0.087927
     13          8           0       -2.005485   -0.413921    0.088513
     14          8           0       -3.134108   -2.243711   -0.284586
     15          6           0        2.047783    0.363649    0.492977
     16          6           0        2.674945   -0.875761    0.657458
     17          6           0        4.045393   -1.015259    0.418793
     18          6           0        4.761414    0.110598    0.015000
     19          6           0        4.165243    1.358820   -0.157665
     20          6           0        2.793620    1.475023    0.086657
     21          1           0        0.982730    0.462967    0.680575
     22          1           0        2.098222   -1.740586    0.972916
     23          1           0        4.556231   -1.962974    0.538375
     24          1           0        4.766532    2.202825   -0.473135
     25          1           0        2.309211    2.438801   -0.041894
     26          7           0        6.212869   -0.024753   -0.240658
     27          8           0        6.821409    0.982405   -0.595550
     28          8           0        6.714494   -1.135436   -0.081311
 ---------------------------------------------------------------------

 SCF Done:  E(RHF) =  -868.340002662     A.U. after   16 cycles
 E2 =    -0.2598043404D+01 EUMP2 =    -0.87093804606638D+03

 The electronic state is 1-A.
 Alpha  occ. eigenvalues --  -20.61818 -20.61762 -20.60089 -20.60081 -15.86837
 Alpha  occ. eigenvalues --  -15.85137 -11.31953 -11.30315 -11.28520 -11.28465
 Alpha  occ. eigenvalues --  -11.28171 -11.27455 -11.27425 -11.26917 -11.26852
 Alpha  occ. eigenvalues --  -11.26393 -11.25844 -11.25711  -1.60853  -1.59168
 Alpha  occ. eigenvalues --   -1.40418  -1.38727  -1.20098  -1.18460  -1.09534
 Alpha  occ. eigenvalues --   -1.07849  -1.05466  -1.03847  -0.96414  -0.94720
 Alpha  occ. eigenvalues --   -0.86875  -0.85229  -0.83263  -0.81574  -0.78338
 Alpha  occ. eigenvalues --   -0.76682  -0.73081  -0.72154  -0.71357  -0.71203
 Alpha  occ. eigenvalues --   -0.70491  -0.69453  -0.65756  -0.65464  -0.64094
 Alpha  occ. eigenvalues --   -0.63829  -0.62821  -0.61209  -0.55966  -0.54194
 Alpha  occ. eigenvalues --   -0.53804  -0.53555  -0.52177  -0.51921  -0.49837
 Alpha  occ. eigenvalues --   -0.49782  -0.48124  -0.48096  -0.45875  -0.44176
 Alpha  occ. eigenvalues --   -0.38055  -0.37057  -0.36371  -0.35472
 Alpha virt. eigenvalues --    0.04192   0.05864   0.10602   0.12200   0.15740
 Alpha virt. eigenvalues --    0.17423   0.20720   0.22461   0.26668   0.27456
 Alpha virt. eigenvalues --    0.28245   0.29303   0.30413   0.31567   0.32426

 Mulliken charges:
               1
     1  C   -0.169839
     2  C   -0.218361
     3  C   -0.170163
     4  C    0.157972
     5  C   -0.170041
     6  C   -0.218216
     7  H    0.228153
     8  H    0.225961
     9  H    0.276995
    10  H    0.271554
    11  H    0.224906
    12  N    0.493775
    13  O   -0.475143
    14  O   -0.455816
    15  C   -0.174678
    16  C   -0.220410
    17  C   -0.172086
    18  C    0.157068
    19  C   -0.171915
    20  C   -0.220506
    21  H    0.244736
    22  H    0.229224
    23  H    0.273426
    24  H    0.271931
    25  H    0.218841
    26  N    0.488300
    27  O   -0.463442
    28  O   -0.462229
 Sum of Mulliken charges =  -0.00000

 Dipole moment (field-independent basis, Debye):
    X=            -10.1804    Y=              3.0921    Z=              1.0146  Tot=             10.6879
 Quadrupole moment (field-independent basis, Debye-Ang):
   XX=           -114.9318   YY=            -98.0178   ZZ=           -106.0997
   XY=             -6.5343   XZ=              4.7123   YZ=             -0.5475

 Normal termination of Gaussian 16 at Fri May  7 06:38:57 2021.
