 Gaussian 16, Revision A.03,
 Gaussian 16:  EM64L-G16RevA.03 25-Dec-2016

 -------------
 #p 6-31g* mp2
 -------------

 ------------------------------------------------------
 Input file generated by CHIRIPA (05-May-2021 14:55:24)
 ------------------------------------------------------
 Symbolic Z-matrix:
 Charge =  0 Multiplicity = 1

                         Standard orientation:
 ---------------------------------------------------------------------
 Center     Atomic      Atomic             Coordinates (Angstroms)
 Number     Number       Type             X           Y           Z
 ---------------------------------------------------------------------
      1          6           0       -3.211822    1.961189    1.084408
      2          6           0       -4.150388    0.926487    1.013650
      3          6           0       -3.826578   -0.284765    0.395133
      4          6           0       -2.549223   -0.427748   -0.144507
      5          6           0       -1.592272    0.584454   -0.089897
      6          6           0       -1.938005    1.787177    0.533380
      7          1           0       -3.471881    2.898806    1.566736
      8          1           0       -5.140411    1.058816    1.440720
      9          1           0       -4.533918   -1.102294    0.326336
     10          1           0       -0.613379    0.422925   -0.524746
     11          1           0       -1.207083    2.589011    0.586862
     12          7           0       -2.194815   -1.705532   -0.801823
     13          8           0       -1.062701   -1.806496   -1.269541
     14          8           0       -3.055855   -2.581899   -0.836862
     15          6           0        3.173776   -0.398982    0.359815
     16          6           0        4.398055   -1.297733    0.536948
     17          6           0        4.053872   -2.648461    1.165330
     18          1           0        2.699145   -0.239762    1.337732
     19          1           0        2.434234   -0.917692   -0.265813
     20          1           0        5.135644   -0.776921    1.160913
     21          1           0        4.869937   -1.454675   -0.441476
     22          1           0        3.336195   -3.191634    0.542028
     23          1           0        3.603411   -2.510029    2.153522
     24          1           0        4.943563   -3.274967    1.282792
     25          6           0        3.501766    0.954896   -0.267213
     26          6           0        2.277488    1.853647   -0.444344
     27          6           0        2.621670    3.204376   -1.072727
     28          1           0        4.241308    1.473606    0.358416
     29          1           0        3.976397    0.795677   -1.245129
     30          1           0        1.805605    2.010589    0.534079
     31          1           0        1.539899    1.332835   -1.068311
     32          1           0        3.072130    3.065944   -2.060919
     33          1           0        3.339347    3.747549   -0.449426
     34          1           0        1.731978    3.830881   -1.190189
 ---------------------------------------------------------------------

 SCF Done:  E(RHF) =  -669.535850477     A.U. after   15 cycles
 E2 =    -0.2091845676D+01 EUMP2 =    -0.67162769615304D+03

 The electronic state is 1-A.
 Alpha  occ. eigenvalues --  -20.60761 -20.60755 -15.85808 -11.31118 -11.27705
 Alpha  occ. eigenvalues --  -11.27642 -11.27445 -11.26715 -11.26682 -11.22270
 Alpha  occ. eigenvalues --  -11.21637 -11.21627 -11.21467 -11.21316 -11.20777
 Alpha  occ. eigenvalues --   -1.59831  -1.39386  -1.19297  -1.08706  -1.08609
 Alpha  occ. eigenvalues --   -1.04693  -1.03714  -0.96120  -0.95546  -0.87145
 Alpha  occ. eigenvalues --   -0.86097  -0.82381  -0.79868  -0.78375  -0.77408
 Alpha  occ. eigenvalues --   -0.72030  -0.71150  -0.70417  -0.65250  -0.64951
 Alpha  occ. eigenvalues --   -0.64685  -0.62070  -0.61095  -0.59545  -0.57735
 Alpha  occ. eigenvalues --   -0.55376  -0.55210  -0.53031  -0.52895  -0.52782
 Alpha  occ. eigenvalues --   -0.52523  -0.50054  -0.48788  -0.48782  -0.48125
 Alpha  occ. eigenvalues --   -0.46882  -0.45902  -0.45757  -0.44799  -0.43944
 Alpha  occ. eigenvalues --   -0.37288  -0.36293
 Alpha virt. eigenvalues --    0.05091   0.11349   0.16575   0.19840   0.23019
 Alpha virt. eigenvalues --    0.23875   0.24689   0.26007   0.27210   0.28388
 Alpha virt. eigenvalues --    0.29684   0.30443   0.31435   0.31682   0.32350

 Mulliken charges:
               1
     1  C   -0.170597
     2  C   -0.219091
     3  C   -0.170195
     4  C    0.158937
     5  C   -0.178527
     6  C   -0.224099
     7  H    0.225334
     8  H    0.223138
     9  H    0.275303
    10  H    0.286624
    11  H    0.225645
    12  N    0.487631
    13  O   -0.461820
    14  O   -0.460259
    15  C   -0.304417
    16  C   -0.299635
    17  C   -0.477049
    18  H    0.147059
    19  H    0.161909
    20  H    0.149898
    21  H    0.153168
    22  H    0.162555
    23  H    0.153856
    24  H    0.159568
    25  C   -0.297016
    26  C   -0.309560
    27  C   -0.474609
    28  H    0.149962
    29  H    0.153188
    30  H    0.146749
    31  H    0.153410
    32  H    0.160232
    33  H    0.157533
    34  H    0.155174
 Sum of Mulliken charges =  -0.00000

 Dipole moment (field-independent basis, Debye):
    X=             -1.1114    Y=              4.4085    Z=              2.2575  Tot=              5.0760
 Quadrupole moment (field-independent basis, Debye-Ang):
   XX=            -83.9504   YY=            -99.3996   ZZ=            -95.3943
   XY=             -9.3240   XZ=             -7.0019   YZ=             -1.1918

 Normal termination of Gaussian 16 at Wed May  5 22:26:01 2021.
