 Gaussian 16, Revision A.03,
 Gaussian 16:  EM64L-G16RevA.03 25-Dec-2016

 -------------
 #p 6-31g* mp2
 -------------

 ------------------------------------------------------
 Input file generated by CHIRIPA (05-May-2021 14:53:16)
 ------------------------------------------------------
 Symbolic Z-matrix:
 Charge =  0 Multiplicity = 1

                         Standard orientation:
 ---------------------------------------------------------------------
 Center     Atomic      Atomic             Coordinates (Angstroms)
 Number     Number       Type             X           Y           Z
 ---------------------------------------------------------------------
      1          6           0       -4.488767    0.843072    0.261626
      2          6           0       -3.269242    1.634574   -0.211946
      3          6           0       -3.241721    3.061848    0.335707
      4          1           0       -5.402175    1.371960   -0.043181
      5          1           0       -4.495340    0.815502    1.360075
      6          1           0       -3.264218    1.659464   -1.309203
      7          1           0       -2.358632    1.103641    0.093856
      8          1           0       -3.222370    3.054156    1.430316
      9          1           0       -4.133101    3.613137    0.019285
     10          1           0       -2.361633    3.609645   -0.015324
     11          6           0       -4.530400   -0.585680   -0.277505
     12          6           0       -5.749924   -1.377182    0.196067
     13          6           0       -5.777445   -2.804457   -0.351587
     14          1           0       -4.523826   -0.558111   -1.375954
     15          1           0       -3.616991   -1.114569    0.027302
     16          1           0       -6.660535   -0.846250   -0.109736
     17          1           0       -5.754949   -1.402073    1.293323
     18          1           0       -4.886065   -3.355746   -0.035164
     19          1           0       -5.796797   -2.796764   -1.446195
     20          1           0       -6.657533   -3.352254   -0.000556
     21          6           0        1.069193    0.484738    0.046816
     22          6           0        1.804177    0.630659   -1.134297
     23          6           0        3.164394    0.309418   -1.168392
     24          6           0        3.760348   -0.157127    0.002277
     25          6           0        3.054977   -0.313293    1.194482
     26          6           0        1.695834    0.014057    1.205392
     27          1           0        0.012961    0.736660    0.064296
     28          1           0        1.320144    0.995974   -2.035575
     29          1           0        3.757141    0.412871   -2.069151
     30          1           0        3.565146   -0.679802    2.076988
     31          1           0        1.127524   -0.100264    2.124087
     32          7           0        5.199780   -0.500444   -0.021546
     33          8           0        5.701462   -0.909491    1.023266
     34          8           0        5.799069   -0.353989   -1.084580
 ---------------------------------------------------------------------

 SCF Done:  E(RHF) =  -669.535541938     A.U. after   15 cycles
 E2 =    -0.2090937960D+01 EUMP2 =    -0.67162647989890D+03

 The electronic state is 1-A.
 Alpha  occ. eigenvalues --  -20.60733 -20.60728 -15.85787 -11.31146 -11.27719
 Alpha  occ. eigenvalues --  -11.27714 -11.27429 -11.26730 -11.26716 -11.22818
 Alpha  occ. eigenvalues --  -11.22303 -11.22247 -11.22163 -11.22072 -11.21605
 Alpha  occ. eigenvalues --   -1.59809  -1.39362  -1.19318  -1.09311  -1.08712
 Alpha  occ. eigenvalues --   -1.04723  -1.04386  -0.96796  -0.95549  -0.87812
 Alpha  occ. eigenvalues --   -0.86118  -0.82386  -0.80484  -0.79105  -0.77432
 Alpha  occ. eigenvalues --   -0.72005  -0.71132  -0.70441  -0.65944  -0.64969
 Alpha  occ. eigenvalues --   -0.64728  -0.62072  -0.61788  -0.60196  -0.58418
 Alpha  occ. eigenvalues --   -0.56078  -0.55226  -0.53497  -0.53211  -0.53051
 Alpha  occ. eigenvalues --   -0.52814  -0.50735  -0.48801  -0.48760  -0.48736
 Alpha  occ. eigenvalues --   -0.47522  -0.46640  -0.46547  -0.44769  -0.44629
 Alpha  occ. eigenvalues --   -0.37294  -0.36330
 Alpha virt. eigenvalues --    0.05105   0.11325   0.16595   0.19436   0.22429
 Alpha virt. eigenvalues --    0.23621   0.25047   0.26226   0.27140   0.27399
 Alpha virt. eigenvalues --    0.28815   0.30369   0.30842   0.31113   0.32123

 Mulliken charges:
               1
     1  C   -0.297656
     2  C   -0.306570
     3  C   -0.476253
     4  H    0.153621
     5  H    0.150743
     6  H    0.154193
     7  H    0.143399
     8  H    0.156856
     9  H    0.160276
    10  H    0.159766
    11  C   -0.298668
    12  C   -0.300268
    13  C   -0.476196
    14  H    0.150668
    15  H    0.147107
    16  H    0.153600
    17  H    0.152638
    18  H    0.155514
    19  H    0.156062
    20  H    0.162431
    21  C   -0.178774
    22  C   -0.222242
    23  C   -0.170628
    24  C    0.158192
    25  C   -0.170650
    26  C   -0.222136
    27  H    0.239946
    28  H    0.224084
    29  H    0.275450
    30  H    0.275420
    31  H    0.223217
    32  N    0.487969
    33  O   -0.460580
    34  O   -0.460530
 Sum of Mulliken charges =  -0.00000

 Dipole moment (field-independent basis, Debye):
    X=             -5.3336    Y=              1.2342    Z=              0.0720  Tot=              5.4750
 Quadrupole moment (field-independent basis, Debye-Ang):
   XX=           -132.2726   YY=            -96.3405   ZZ=            -89.5295
   XY=              4.9655   XZ=              0.4487   YZ=             -2.0580

 Normal termination of Gaussian 16 at Thu May  6 09:05:14 2021.
