 Gaussian 16, Revision A.03,
 Gaussian 16:  EM64L-G16RevA.03 25-Dec-2016

 -------------
 #p 6-31g* mp2
 -------------

 ------------------------------------------------------
 Input file generated by CHIRIPA (05-May-2021 14:55:24)
 ------------------------------------------------------
 Symbolic Z-matrix:
 Charge =  0 Multiplicity = 1

                         Standard orientation:
 ---------------------------------------------------------------------
 Center     Atomic      Atomic             Coordinates (Angstroms)
 Number     Number       Type             X           Y           Z
 ---------------------------------------------------------------------
      1          6           0       -1.564411    0.185014    0.121208
      2          6           0       -2.381803    1.236859   -0.305425
      3          6           0       -3.767355    1.070280   -0.389357
      4          6           0       -4.304337   -0.167064   -0.037334
      5          6           0       -3.516411   -1.234158    0.391352
      6          6           0       -2.133321   -1.044969    0.467623
      7          1           0       -0.489038    0.323199    0.183433
      8          1           0       -1.942740    2.193179   -0.575092
      9          1           0       -4.423501    1.867716   -0.716445
     10          1           0       -3.983170   -2.175886    0.653465
     11          1           0       -1.500972   -1.863613    0.799287
     12          7           0       -5.769856   -0.355382   -0.122134
     13          8           0       -6.218389   -1.455259    0.193658
     14          8           0       -6.442248    0.600458   -0.502788
     15          6           0        4.444438    0.215748   -0.071295
     16          6           0        3.813267    1.449675    0.574486
     17          6           0        2.300506    1.518889    0.363396
     18          1           0        4.222691    0.218938   -1.147289
     19          1           0        3.973908   -0.687065    0.342137
     20          1           0        4.285811    2.349854    0.160971
     21          1           0        4.036705    1.443647    1.649035
     22          1           0        1.811051    0.638332    0.791944
     23          1           0        2.061572    1.549688   -0.704575
     24          1           0        1.869893    2.408684    0.833181
     25          6           0        5.956335    0.132480    0.131092
     26          6           0        6.587508   -1.101446   -0.514689
     27          6           0        8.100268   -1.170661   -0.303599
     28          1           0        6.426865    1.035293   -0.282339
     29          1           0        6.178083    0.129290    1.207085
     30          1           0        6.364069   -1.095419   -1.589238
     31          1           0        6.114963   -2.001626   -0.101173
     32          1           0        8.339202   -1.201460    0.764372
     33          1           0        8.589724   -0.290104   -0.732147
     34          1           0        8.530881   -2.060456   -0.773384
 ---------------------------------------------------------------------

 SCF Done:  E(RHF) =  -669.535595122     A.U. after   15 cycles
 E2 =    -0.2090830445D+01 EUMP2 =    -0.67162642556653D+03

 The electronic state is 1-A.
 Alpha  occ. eigenvalues --  -20.60686 -20.60681 -15.85740 -11.31080 -11.27657
 Alpha  occ. eigenvalues --  -11.27652 -11.27312 -11.26651 -11.26636 -11.22613
 Alpha  occ. eigenvalues --  -11.22470 -11.22229 -11.22164 -11.22032 -11.21534
 Alpha  occ. eigenvalues --   -1.59763  -1.39317  -1.19249  -1.09223  -1.08640
 Alpha  occ. eigenvalues --   -1.04654  -1.04364  -0.96848  -0.95480  -0.87878
 Alpha  occ. eigenvalues --   -0.86048  -0.82322  -0.80450  -0.78992  -0.77377
 Alpha  occ. eigenvalues --   -0.71958  -0.71087  -0.70350  -0.65847  -0.64898
 Alpha  occ. eigenvalues --   -0.64660  -0.62007  -0.61760  -0.60225  -0.58441
 Alpha  occ. eigenvalues --   -0.56182  -0.55175  -0.53518  -0.53211  -0.52981
 Alpha  occ. eigenvalues --   -0.52744  -0.50784  -0.48770  -0.48715  -0.48685
 Alpha  occ. eigenvalues --   -0.47452  -0.46544  -0.46436  -0.44729  -0.44595
 Alpha  occ. eigenvalues --   -0.37215  -0.36267
 Alpha virt. eigenvalues --    0.05163   0.11389   0.16657   0.20425   0.22196
 Alpha virt. eigenvalues --    0.23683   0.25542   0.25931   0.26850   0.27294
 Alpha virt. eigenvalues --    0.29090   0.30275   0.30712   0.30986   0.32011

 Mulliken charges:
               1
     1  C   -0.178990
     2  C   -0.222293
     3  C   -0.170771
     4  C    0.157941
     5  C   -0.170628
     6  C   -0.221715
     7  H    0.241647
     8  H    0.223455
     9  H    0.275122
    10  H    0.275097
    11  H    0.222822
    12  N    0.488037
    13  O   -0.460811
    14  O   -0.460783
    15  C   -0.299064
    16  C   -0.299237
    17  C   -0.483066
    18  H    0.150616
    19  H    0.148233
    20  H    0.155945
    21  H    0.155403
    22  H    0.148287
    23  H    0.156027
    24  H    0.163610
    25  C   -0.298981
    26  C   -0.300146
    27  C   -0.476134
    28  H    0.151094
    29  H    0.150904
    30  H    0.152642
    31  H    0.151977
    32  H    0.155892
    33  H    0.156060
    34  H    0.161809
 Sum of Mulliken charges =  -0.00000

 Dipole moment (field-independent basis, Debye):
    X=              5.4857    Y=              0.7119    Z=              0.2999  Tot=              5.5398
 Quadrupole moment (field-independent basis, Debye-Ang):
   XX=           -140.0853   YY=            -90.2677   ZZ=            -94.3288
   XY=             -3.8980   XZ=             -1.4661   YZ=             -2.2650

 Normal termination of Gaussian 16 at Thu May  6 17:41:47 2021.
