 Gaussian 16, Revision A.03,
 Gaussian 16:  EM64L-G16RevA.03 25-Dec-2016

 -------------
 #p 6-31g* mp2
 -------------

 ------------------------------------------------------
 Input file generated by CHIRIPA (05-May-2021 14:51:11)
 ------------------------------------------------------
 Symbolic Z-matrix:
 Charge =  0 Multiplicity = 1

                         Standard orientation:
 ---------------------------------------------------------------------
 Center     Atomic      Atomic             Coordinates (Angstroms)
 Number     Number       Type             X           Y           Z
 ---------------------------------------------------------------------
      1          6           0        1.768031    0.630157   -0.504618
      2          6           0        1.963287    1.768042   -1.507154
      3          6           0        0.879904    2.841741   -1.401114
      4          1           0        0.781259    0.174445   -0.664474
      5          1           0        1.759719    1.044735    0.512953
      6          1           0        1.972613    1.351272   -2.522453
      7          1           0        2.949786    2.220974   -1.345019
      8          1           0        0.873274    3.284767   -0.399971
      9          1           0       -0.109452    2.410123   -1.584095
     10          1           0        1.038875    3.645512   -2.126745
     11          6           0        2.843226   -0.450998   -0.598355
     12          6           0        2.647970   -1.588882    0.404181
     13          6           0        3.731353   -2.662581    0.298140
     14          1           0        2.851537   -0.865575   -1.615927
     15          1           0        3.829997    0.004714   -0.438500
     16          1           0        1.661470   -2.041814    0.242046
     17          1           0        2.638644   -1.172112    1.419479
     18          1           0        4.720709   -2.230963    0.481122
     19          1           0        3.737983   -3.105607   -0.703002
     20          1           0        3.572381   -3.466352    1.023772
     21          6           0       -2.796540   -0.058299   -0.032858
     22          6           0       -3.274541   -1.434363   -0.497559
     23          6           0       -4.256124   -1.355278   -1.667189
     24          1           0       -3.666694    0.546431    0.257106
     25          1           0       -2.321856    0.461462   -0.876610
     26          1           0       -3.746950   -1.951924    0.347176
     27          1           0       -2.403134   -2.035954   -0.786270
     28          1           0       -3.791632   -0.862196   -2.527258
     29          1           0       -5.143083   -0.777688   -1.387373
     30          1           0       -4.584963   -2.350164   -1.983301
     31          6           0       -1.814716   -0.120861    1.135832
     32          6           0       -1.336715    1.255203    1.600533
     33          6           0       -0.355132    1.176118    2.770162
     34          1           0       -2.289401   -0.640622    1.979583
     35          1           0       -0.944563   -0.725591    0.845867
     36          1           0       -2.208122    1.856794    1.889243
     37          1           0       -0.864307    1.772764    0.755796
     38          1           0        0.531826    0.598528    2.490345
     39          1           0       -0.819624    0.683037    3.630232
     40          1           0       -0.026294    2.171004    3.086274
 ---------------------------------------------------------------------

 SCF Done:  E(RHF) =  -470.731185365     A.U. after   11 cycles
 E2 =    -0.1586796175D+01 EUMP2 =    -0.47231798154003D+03

 The electronic state is 1-A.
 Alpha  occ. eigenvalues --  -11.21699 -11.21679 -11.21610 -11.21461 -11.21390
 Alpha  occ. eigenvalues --  -11.21389 -11.21374 -11.21254 -11.21165 -11.21133
 Alpha  occ. eigenvalues --  -11.21081 -11.20957  -1.08573  -1.08330  -1.03644
 Alpha  occ. eigenvalues --   -1.03449  -0.96070  -0.95937  -0.87089  -0.86950
 Alpha  occ. eigenvalues --   -0.79743  -0.79497  -0.78393  -0.78182  -0.65242
 Alpha  occ. eigenvalues --   -0.64958  -0.61030  -0.60918  -0.59462  -0.59253
 Alpha  occ. eigenvalues --   -0.57725  -0.57510  -0.55496  -0.55129  -0.52755
 Alpha  occ. eigenvalues --   -0.52639  -0.52510  -0.52357  -0.50129  -0.49801
 Alpha  occ. eigenvalues --   -0.48165  -0.47820  -0.46726  -0.46525  -0.46252
 Alpha  occ. eigenvalues --   -0.45699  -0.45547  -0.45198  -0.43858  -0.43721
 Alpha virt. eigenvalues --    0.20070   0.22262   0.23138   0.23840   0.24914
 Alpha virt. eigenvalues --    0.25981   0.26391   0.28057   0.29105   0.30316
 Alpha virt. eigenvalues --    0.30875   0.30980   0.31579   0.31713   0.32330

 Mulliken charges:
               1
     1  C   -0.309160
     2  C   -0.298230
     3  C   -0.481184
     4  H    0.154583
     5  H    0.156746
     6  H    0.151800
     7  H    0.152238
     8  H    0.157123
     9  H    0.157031
    10  H    0.161644
    11  C   -0.297611
    12  C   -0.303397
    13  C   -0.475733
    14  H    0.149420
    15  H    0.149863
    16  H    0.152947
    17  H    0.153335
    18  H    0.155566
    19  H    0.155447
    20  H    0.160783
    21  C   -0.300926
    22  C   -0.299252
    23  C   -0.475634
    24  H    0.150244
    25  H    0.149403
    26  H    0.152385
    27  H    0.150805
    28  H    0.154825
    29  H    0.155402
    30  H    0.160237
    31  C   -0.302873
    32  C   -0.308238
    33  C   -0.480426
    34  H    0.149588
    35  H    0.153588
    36  H    0.151065
    37  H    0.164301
    38  H    0.158986
    39  H    0.154950
    40  H    0.158357
 Sum of Mulliken charges =  -0.00000

 Dipole moment (field-independent basis, Debye):
    X=              0.0629    Y=              0.0162    Z=             -0.0308  Tot=              0.0719
 Quadrupole moment (field-independent basis, Debye-Ang):
   XX=            -84.8348   YY=            -85.2088   ZZ=            -84.7733
   XY=              0.7941   XZ=             -0.7041   YZ=              0.2541

 Normal termination of Gaussian 16 at Wed May  5 23:05:59 2021.
