 Gaussian 16, Revision A.03,
 Gaussian 16:  EM64L-G16RevA.03 25-Dec-2016

 -------------
 #p 6-31g* mp2
 -------------

 ------------------------------------------------------
 Input file generated by CHIRIPA (05-May-2021 14:55:24)
 ------------------------------------------------------
 Symbolic Z-matrix:
 Charge =  0 Multiplicity = 1

                         Standard orientation:
 ---------------------------------------------------------------------
 Center     Atomic      Atomic             Coordinates (Angstroms)
 Number     Number       Type             X           Y           Z
 ---------------------------------------------------------------------
      1          6           0        0.722908   -1.145683    2.024393
      2          6           0        1.581234   -1.992350    1.315200
      3          6           0        2.438196   -1.477828    0.337739
      4          6           0        2.410596   -0.105546    0.094078
      5          6           0        1.566903    0.763771    0.783832
      6          6           0        0.718490    0.227255    1.756916
      7          1           0        0.060520   -1.553919    2.782008
      8          1           0        1.586810   -3.058998    1.520814
      9          1           0        3.112811   -2.110558   -0.226145
     10          1           0        1.583953    1.822780    0.556615
     11          1           0        0.052965    0.887170    2.306128
     12          7           0        3.313298    0.450797   -0.938400
     13          8           0        3.269894    1.663391   -1.134280
     14          8           0        4.047147   -0.336269   -1.532226
     15          6           0       -2.695909    0.957544   -0.554119
     16          6           0       -2.713976    1.970263    0.591333
     17          6           0       -2.313140    3.376239    0.143720
     18          1           0       -1.690200    0.930614   -0.995444
     19          1           0       -3.376050    1.298842   -1.346785
     20          1           0       -2.035053    1.626456    1.382203
     21          1           0       -3.719708    1.994647    1.030107
     22          1           0       -2.995855    3.743738   -0.629226
     23          1           0       -1.301627    3.373456   -0.275129
     24          1           0       -2.332841    4.084118    0.978214
     25          6           0       -3.094349   -0.452613   -0.122342
     26          6           0       -3.076282   -1.465332   -1.267793
     27          6           0       -3.477117   -2.871309   -0.820181
     28          1           0       -2.414208   -0.793912    0.670324
     29          1           0       -4.100058   -0.425683    0.318984
     30          1           0       -2.070549   -1.489715   -1.706568
     31          1           0       -3.755204   -1.121525   -2.058664
     32          1           0       -4.488630   -2.868526   -0.401332
     33          1           0       -2.794402   -3.238808   -0.047234
     34          1           0       -3.457416   -3.579187   -1.654674
 ---------------------------------------------------------------------

 SCF Done:  E(RHF) =  -669.535516864     A.U. after   15 cycles
 E2 =    -0.2093088253D+01 EUMP2 =    -0.67162860511657D+03

 The electronic state is 1-A.
 Alpha  occ. eigenvalues --  -20.60848 -20.60843 -15.85903 -11.31304 -11.27873
 Alpha  occ. eigenvalues --  -11.27863 -11.27619 -11.26892 -11.26882 -11.22222
 Alpha  occ. eigenvalues --  -11.21939 -11.21820 -11.21755 -11.21576 -11.21478
 Alpha  occ. eigenvalues --   -1.59923  -1.39475  -1.19479  -1.08907  -1.08835
 Alpha  occ. eigenvalues --   -1.04884  -1.03994  -0.96425  -0.95694  -0.87443
 Alpha  occ. eigenvalues --   -0.86280  -0.82524  -0.80064  -0.78691  -0.77565
 Alpha  occ. eigenvalues --   -0.72119  -0.71247  -0.70576  -0.65589  -0.65128
 Alpha  occ. eigenvalues --   -0.64841  -0.62278  -0.61342  -0.59797  -0.58040
 Alpha  occ. eigenvalues --   -0.55726  -0.55368  -0.53206  -0.53132  -0.52991
 Alpha  occ. eigenvalues --   -0.52835  -0.50364  -0.48887  -0.48873  -0.48369
 Alpha  occ. eigenvalues --   -0.47090  -0.46229  -0.46139  -0.44873  -0.44229
 Alpha  occ. eigenvalues --   -0.37434  -0.36459
 Alpha virt. eigenvalues --    0.04931   0.11053   0.16316   0.19722   0.22953
 Alpha virt. eigenvalues --    0.23510   0.25486   0.26169   0.27130   0.28258
 Alpha virt. eigenvalues --    0.29116   0.29340   0.31277   0.31434   0.32234

 Mulliken charges:
               1
     1  C   -0.172195
     2  C   -0.218800
     3  C   -0.170753
     4  C    0.158623
     5  C   -0.173552
     6  C   -0.217730
     7  H    0.226680
     8  H    0.224172
     9  H    0.276121
    10  H    0.276719
    11  H    0.227697
    12  N    0.488060
    13  O   -0.460078
    14  O   -0.460002
    15  C   -0.298774
    16  C   -0.301474
    17  C   -0.477410
    18  H    0.153710
    19  H    0.152232
    20  H    0.140942
    21  H    0.153666
    22  H    0.159918
    23  H    0.155949
    24  H    0.159768
    25  C   -0.298685
    26  C   -0.300233
    27  C   -0.475147
    28  H    0.144676
    29  H    0.148895
    30  H    0.155127
    31  H    0.153779
    32  H    0.155327
    33  H    0.150598
    34  H    0.162174
 Sum of Mulliken charges =  -0.00000

 Dipole moment (field-independent basis, Debye):
    X=             -3.1646    Y=             -1.9569    Z=              3.5368  Tot=              5.1336
 Quadrupole moment (field-independent basis, Debye-Ang):
   XX=           -109.1605   YY=            -91.2171   ZZ=            -94.5370
   XY=             -6.9677   XZ=              8.7070   YZ=              0.3717

 Normal termination of Gaussian 16 at Thu May  6 07:57:46 2021.
