 Gaussian 16, Revision A.03,
 Gaussian 16:  EM64L-G16RevA.03 25-Dec-2016

 -------------
 #p 6-31g* mp2
 -------------

 ------------------------------------------------------
 Input file generated by CHIRIPA (05-May-2021 14:55:24)
 ------------------------------------------------------
 Symbolic Z-matrix:
 Charge =  0 Multiplicity = 1

                         Standard orientation:
 ---------------------------------------------------------------------
 Center     Atomic      Atomic             Coordinates (Angstroms)
 Number     Number       Type             X           Y           Z
 ---------------------------------------------------------------------
      1          6           0        2.114213    2.374562    0.346194
      2          6           0        2.848251    1.602101    1.252291
      3          6           0        3.014123    0.229649    1.043936
      4          6           0        2.429684   -0.340190   -0.086109
      5          6           0        1.692697    0.402705   -1.007112
      6          6           0        1.539791    1.773459   -0.778633
      7          1           0        1.990396    3.440056    0.515866
      8          1           0        3.295476    2.066238    2.126712
      9          1           0        3.577408   -0.391947    1.729316
     10          1           0        1.258700   -0.088286   -1.869663
     11          1           0        0.969205    2.370890   -1.484007
     12          7           0        2.598421   -1.792244   -0.317338
     13          8           0        2.073551   -2.270368   -1.320605
     14          8           0        3.252353   -2.424746    0.509071
     15          6           0       -3.193219    0.873716    0.183462
     16          6           0       -2.144204    1.770922   -0.474241
     17          6           0       -2.395483    3.257726   -0.221127
     18          1           0       -4.188521    1.147983   -0.192167
     19          1           0       -3.203563    1.065812    1.265306
     20          1           0       -2.134877    1.576196   -1.554339
     21          1           0       -1.151265    1.494359   -0.097147
     22          1           0       -2.384164    3.473074    0.852231
     23          1           0       -3.373366    3.555376   -0.613240
     24          1           0       -1.633881    3.880857   -0.700218
     25          6           0       -2.955577   -0.615478   -0.060582
     26          6           0       -4.004592   -1.512684    0.597122
     27          6           0       -3.753313   -2.999488    0.344008
     28          1           0       -2.945234   -0.807574   -1.142426
     29          1           0       -1.960275   -0.889745    0.315048
     30          1           0       -4.997532   -1.236121    0.220028
     31          1           0       -4.013919   -1.317958    1.677220
     32          1           0       -2.775432   -3.297138    0.736121
     33          1           0       -3.764633   -3.214837   -0.729351
     34          1           0       -4.514916   -3.622619    0.823099
 ---------------------------------------------------------------------

 SCF Done:  E(RHF) =  -669.534834051     A.U. after   15 cycles
 E2 =    -0.2092926655D+01 EUMP2 =    -0.67162776070557D+03

 The electronic state is 1-A.
 Alpha  occ. eigenvalues --  -20.60806 -20.60801 -15.85859 -11.31245 -11.27794
 Alpha  occ. eigenvalues --  -11.27786 -11.27534 -11.26828 -11.26795 -11.21977
 Alpha  occ. eigenvalues --  -11.21728 -11.21627 -11.21572 -11.21435 -11.20872
 Alpha  occ. eigenvalues --   -1.59881  -1.39433  -1.19419  -1.08814  -1.08617
 Alpha  occ. eigenvalues --   -1.04826  -1.03737  -0.96187  -0.95635  -0.87199
 Alpha  occ. eigenvalues --   -0.86213  -0.82472  -0.79836  -0.78412  -0.77499
 Alpha  occ. eigenvalues --   -0.72075  -0.71206  -0.70505  -0.65267  -0.65062
 Alpha  occ. eigenvalues --   -0.64813  -0.62173  -0.61137  -0.59611  -0.57795
 Alpha  occ. eigenvalues --   -0.55461  -0.55305  -0.53217  -0.52918  -0.52862
 Alpha  occ. eigenvalues --   -0.52598  -0.50107  -0.48837  -0.48829  -0.48130
 Alpha  occ. eigenvalues --   -0.46849  -0.45947  -0.45846  -0.44832  -0.43985
 Alpha  occ. eigenvalues --   -0.37385  -0.36324
 Alpha virt. eigenvalues --    0.05012   0.11157   0.16476   0.20369   0.22836
 Alpha virt. eigenvalues --    0.24032   0.26086   0.26609   0.26906   0.28468
 Alpha virt. eigenvalues --    0.28811   0.30388   0.31279   0.31621   0.32207

 Mulliken charges:
               1
     1  C   -0.171999
     2  C   -0.218358
     3  C   -0.171541
     4  C    0.158388
     5  C   -0.170780
     6  C   -0.218706
     7  H    0.226340
     8  H    0.223703
     9  H    0.275686
    10  H    0.276605
    11  H    0.227943
    12  N    0.487961
    13  O   -0.459887
    14  O   -0.460391
    15  C   -0.297116
    16  C   -0.310204
    17  C   -0.474994
    18  H    0.149728
    19  H    0.149683
    20  H    0.147055
    21  H    0.161396
    22  H    0.156366
    23  H    0.158795
    24  H    0.149796
    25  C   -0.299138
    26  C   -0.300002
    27  C   -0.476277
    28  H    0.149830
    29  H    0.151855
    30  H    0.151112
    31  H    0.151377
    32  H    0.159348
    33  H    0.156498
    34  H    0.159928
 Sum of Mulliken charges =  -0.00000

 Dipole moment (field-independent basis, Debye):
    X=             -0.5688    Y=              5.0164    Z=              0.8455  Tot=              5.1188
 Quadrupole moment (field-independent basis, Debye-Ang):
   XX=            -96.4664   YY=           -100.2298   ZZ=            -90.9380
   XY=             12.8145   XZ=              5.1034   YZ=             -1.0829

 Normal termination of Gaussian 16 at Wed May  5 23:58:52 2021.
