 Gaussian 16, Revision A.03,
 Gaussian 16:  EM64L-G16RevA.03 25-Dec-2016

 -------------
 #p 6-31g* mp2
 -------------

 ------------------------------------------------------
 Input file generated by CHIRIPA (05-May-2021 14:55:20)
 ------------------------------------------------------
 Symbolic Z-matrix:
 Charge =  0 Multiplicity = 1

                         Standard orientation:
 ---------------------------------------------------------------------
 Center     Atomic      Atomic             Coordinates (Angstroms)
 Number     Number       Type             X           Y           Z
 ---------------------------------------------------------------------
      1          6           0        5.018029   -1.989041   -0.101593
      2          6           0        3.918850   -1.892696    0.758084
      3          6           0        3.104444   -0.756425    0.744683
      4          6           0        3.419738    0.269244   -0.145194
      5          6           0        4.507896    0.202906   -1.013987
      6          6           0        5.308532   -0.942777   -0.983330
      7          1           0        5.645331   -2.875379   -0.084480
      8          1           0        3.690850   -2.703689    1.443905
      9          1           0        2.247336   -0.655673    1.399384
     10          1           0        4.709976    1.027668   -1.686557
     11          1           0        6.161523   -1.014857   -1.652102
     12          7           0        2.564852    1.477146   -0.168515
     13          8           0        2.863903    2.366981   -0.961861
     14          8           0        1.611927    1.511191    0.606993
     15          6           0       -4.168232   -0.020030    0.834339
     16          6           0       -2.715204    0.410630    0.631290
     17          6           0       -1.949264    0.545900    1.947661
     18          1           0       -4.673572    0.710446    1.480853
     19          1           0       -4.187650   -0.978624    1.371104
     20          1           0       -2.698502    1.367444    0.093848
     21          1           0       -2.213316   -0.320855   -0.014972
     22          1           0       -1.936204   -0.407598    2.485500
     23          1           0       -2.424146    1.290292    2.594938
     24          1           0       -0.912839    0.854608    1.779195
     25          6           0       -4.946991   -0.159599   -0.472482
     26          6           0       -6.400017   -0.590259   -0.269433
     27          6           0       -7.165957   -0.725529   -1.585804
     28          1           0       -4.927572    0.798994   -1.009248
     29          1           0       -4.441650   -0.890076   -1.118996
     30          1           0       -6.901905    0.141226    0.376828
     31          1           0       -6.416721   -1.547074    0.268009
     32          1           0       -6.691077   -1.469922   -2.233081
     33          1           0       -7.179019    0.227969   -2.123644
     34          1           0       -8.202384   -1.034237   -1.417337
 ---------------------------------------------------------------------

 SCF Done:  E(RHF) =  -669.536143560     A.U. after   15 cycles
 E2 =    -0.2090717238D+01 EUMP2 =    -0.67162686079779D+03

 The electronic state is 1-A.
 Alpha  occ. eigenvalues --  -20.60916 -20.60905 -15.85960 -11.31272 -11.27836
 Alpha  occ. eigenvalues --  -11.27832 -11.27576 -11.26845 -11.26835 -11.21227
 Alpha  occ. eigenvalues --  -11.20903 -11.20807 -11.20759 -11.20748 -11.20053
 Alpha  occ. eigenvalues --   -1.59978  -1.39535  -1.19442  -1.08847  -1.07867
 Alpha  occ. eigenvalues --   -1.04838  -1.02916  -0.95693  -0.95362  -0.86388
 Alpha  occ. eigenvalues --   -0.86239  -0.82526  -0.79000  -0.77667  -0.77577
 Alpha  occ. eigenvalues --   -0.72189  -0.71293  -0.70552  -0.65100  -0.64842
 Alpha  occ. eigenvalues --   -0.64509  -0.62186  -0.60329  -0.58729  -0.56937
 Alpha  occ. eigenvalues --   -0.55344  -0.54680  -0.53171  -0.52930  -0.52015
 Alpha  occ. eigenvalues --   -0.51787  -0.49345  -0.48937  -0.48922  -0.47297
 Alpha  occ. eigenvalues --   -0.46057  -0.45210  -0.45137  -0.44945  -0.43152
 Alpha  occ. eigenvalues --   -0.37422  -0.36440
 Alpha virt. eigenvalues --    0.04948   0.11215   0.16438   0.21205   0.23367
 Alpha virt. eigenvalues --    0.24734   0.27052   0.27181   0.27689   0.28053
 Alpha virt. eigenvalues --    0.28979   0.30648   0.31816   0.31958   0.32343

 Mulliken charges:
               1
     1  C   -0.170616
     2  C   -0.218678
     3  C   -0.170691
     4  C    0.157746
     5  C   -0.170854
     6  C   -0.218582
     7  H    0.225916
     8  H    0.223896
     9  H    0.276365
    10  H    0.275790
    11  H    0.223737
    12  N    0.495425
    13  O   -0.459053
    14  O   -0.467705
    15  C   -0.297661
    16  C   -0.296850
    17  C   -0.488295
    18  H    0.148947
    19  H    0.145992
    20  H    0.156668
    21  H    0.148036
    22  H    0.144766
    23  H    0.152766
    24  H    0.186070
    25  C   -0.297730
    26  C   -0.299107
    27  C   -0.475367
    28  H    0.150477
    29  H    0.147975
    30  H    0.151719
    31  H    0.150348
    32  H    0.154197
    33  H    0.155464
    34  H    0.158888
 Sum of Mulliken charges =  -0.00000

 Dipole moment (field-independent basis, Debye):
    X=              3.2604    Y=             -4.1557    Z=              0.0391  Tot=              5.2822
 Quadrupole moment (field-independent basis, Debye-Ang):
   XX=            -74.0867   YY=            -95.8325   ZZ=            -93.6049
   XY=            -13.4175   XZ=             -3.0964   YZ=             -1.0253

 Normal termination of Gaussian 16 at Thu May  6 12:28:06 2021.
