 Gaussian 16, Revision A.03,
 Gaussian 16:  EM64L-G16RevA.03 25-Dec-2016

 -------------
 #p 6-31g* mp2
 -------------

 ------------------------------------------------------
 Input file generated by CHIRIPA (05-May-2021 14:51:11)
 ------------------------------------------------------
 Symbolic Z-matrix:
 Charge =  0 Multiplicity = 1

                         Standard orientation:
 ---------------------------------------------------------------------
 Center     Atomic      Atomic             Coordinates (Angstroms)
 Number     Number       Type             X           Y           Z
 ---------------------------------------------------------------------
      1          6           0        3.414924    1.215969    0.105029
      2          6           0        2.047520    1.838928   -0.178019
      3          6           0        1.943292    3.283620    0.311669
      4          1           0        3.611359    1.253548    1.185282
      5          1           0        4.193721    1.824115   -0.375625
      6          1           0        1.271422    1.229013    0.301868
      7          1           0        1.854234    1.799688   -1.257703
      8          1           0        2.696359    3.910989   -0.176080
      9          1           0        2.110235    3.337072    1.392351
     10          1           0        0.957703    3.709432    0.099166
     11          6           0        3.534576   -0.228135   -0.378680
     12          6           0        4.901979   -0.851093   -0.095632
     13          6           0        5.006207   -2.295785   -0.585320
     14          1           0        2.755778   -0.836280    0.101974
     15          1           0        3.338140   -0.265714   -1.458933
     16          1           0        5.095265   -0.811853    0.984052
     17          1           0        5.678078   -0.241179   -0.575519
     18          1           0        4.839265   -2.349238   -1.666003
     19          1           0        4.253141   -2.923155   -0.097571
     20          1           0        5.991796   -2.721598   -0.372817
     21          6           0       -2.740459   -0.325519    0.262886
     22          6           0       -1.902131   -1.537002    0.672154
     23          6           0       -0.435360   -1.184113    0.920845
     24          1           0       -2.310254    0.120497   -0.644274
     25          1           0       -2.674605    0.439575    1.048818
     26          1           0       -1.970662   -2.300139   -0.113683
     27          1           0       -2.334492   -1.980299    1.578336
     28          1           0       -0.348121   -0.440478    1.719592
     29          1           0        0.017777   -0.762135    0.017959
     30          1           0        0.145593   -2.064711    1.212224
     31          6           0       -4.209040   -0.662316    0.010765
     32          6           0       -5.047369    0.549167   -0.398503
     33          6           0       -6.514139    0.196278   -0.647194
     34          1           0       -4.274895   -1.427410   -0.775168
     35          1           0       -4.639244   -1.108332    0.917924
     36          1           0       -4.615007    0.992465   -1.304686
     37          1           0       -4.978838    1.312304    0.387334
     38          1           0       -6.967277   -0.225700    0.255692
     39          1           0       -6.601379   -0.547357   -1.445941
     40          1           0       -7.095093    1.076876   -0.938573
 ---------------------------------------------------------------------

 SCF Done:  E(RHF) =  -470.732698428     A.U. after   11 cycles
 E2 =    -0.1583377459D+01 EUMP2 =    -0.47231607588621D+03

 The electronic state is 1-A.
 Alpha  occ. eigenvalues --  -11.21646 -11.21618 -11.21542 -11.21442 -11.21433
 Alpha  occ. eigenvalues --  -11.21373 -11.21309 -11.21250 -11.21123 -11.21084
 Alpha  occ. eigenvalues --  -11.21031 -11.20993  -1.08465  -1.08344  -1.03575
 Alpha  occ. eigenvalues --   -1.03448  -0.96027  -0.95905  -0.87055  -0.86920
 Alpha  occ. eigenvalues --   -0.79695  -0.79487  -0.78314  -0.78108  -0.65101
 Alpha  occ. eigenvalues --   -0.64974  -0.60968  -0.60868  -0.59410  -0.59264
 Alpha  occ. eigenvalues --   -0.57641  -0.57509  -0.55325  -0.55185  -0.52738
 Alpha  occ. eigenvalues --   -0.52645  -0.52463  -0.52305  -0.49980  -0.49850
 Alpha  occ. eigenvalues --   -0.48155  -0.47723  -0.46702  -0.46522  -0.45959
 Alpha  occ. eigenvalues --   -0.45747  -0.45672  -0.45270  -0.43812  -0.43699
 Alpha virt. eigenvalues --    0.22055   0.22950   0.23963   0.24471   0.25627
 Alpha virt. eigenvalues --    0.26453   0.27032   0.27532   0.27930   0.29493
 Alpha virt. eigenvalues --    0.30957   0.31096   0.31713   0.31976   0.32023

 Mulliken charges:
               1
     1  C   -0.297101
     2  C   -0.308470
     3  C   -0.475179
     4  H    0.149075
     5  H    0.148870
     6  H    0.162877
     7  H    0.149952
     8  H    0.154671
     9  H    0.154595
    10  H    0.159810
    11  C   -0.303695
    12  C   -0.299409
    13  C   -0.475563
    14  H    0.156218
    15  H    0.148467
    16  H    0.151778
    17  H    0.151708
    18  H    0.154945
    19  H    0.154966
    20  H    0.160021
    21  C   -0.298702
    22  C   -0.300098
    23  C   -0.481214
    24  H    0.150137
    25  H    0.149431
    26  H    0.152272
    27  H    0.151901
    28  H    0.155200
    29  H    0.162302
    30  H    0.159842
    31  C   -0.298268
    32  C   -0.299678
    33  C   -0.475731
    34  H    0.149630
    35  H    0.149698
    36  H    0.152032
    37  H    0.151966
    38  H    0.155195
    39  H    0.155221
    40  H    0.160330
 Sum of Mulliken charges =  -0.00000

 Dipole moment (field-independent basis, Debye):
    X=             -0.0569    Y=             -0.0346    Z=              0.0121  Tot=              0.0677
 Quadrupole moment (field-independent basis, Debye-Ang):
   XX=            -86.0781   YY=            -85.9039   ZZ=            -83.1261
   XY=              0.1362   XZ=             -0.6263   YZ=             -0.4337

 Normal termination of Gaussian 16 at Thu May  6 00:39:48 2021.
