 Gaussian 16, Revision A.03,
 Gaussian 16:  EM64L-G16RevA.03 25-Dec-2016

 -------------
 #p 6-31g* mp2
 -------------

 ------------------------------------------------------
 Input file generated by CHIRIPA (05-May-2021 14:53:16)
 ------------------------------------------------------
 Symbolic Z-matrix:
 Charge =  0 Multiplicity = 1

                         Standard orientation:
 ---------------------------------------------------------------------
 Center     Atomic      Atomic             Coordinates (Angstroms)
 Number     Number       Type             X           Y           Z
 ---------------------------------------------------------------------
      1          6           0       -3.902592    0.186736   -0.125917
      2          6           0       -3.080462   -1.094737   -0.267042
      3          6           0       -1.588901   -0.821595   -0.463088
      4          1           0       -3.756640    0.808738   -1.019649
      5          1           0       -3.520300    0.767513    0.724933
      6          1           0       -3.465080   -1.673587   -1.116523
      7          1           0       -3.228538   -1.713848    0.627044
      8          1           0       -1.184077   -0.264778    0.388190
      9          1           0       -1.421963   -0.224288   -1.365284
     10          1           0       -1.020057   -1.751404   -0.561731
     11          6           0       -5.395638   -0.069931    0.070711
     12          6           0       -6.217768    1.211542    0.211836
     13          6           0       -7.709328    0.938399    0.407881
     14          1           0       -5.777930   -0.650708   -0.780140
     15          1           0       -5.541590   -0.691933    0.964442
     16          1           0       -6.069691    1.830653   -0.682251
     17          1           0       -5.833150    1.790392    1.061316
     18          1           0       -7.876267    0.341093    1.310078
     19          1           0       -8.114152    0.381583   -0.443396
     20          1           0       -8.278173    1.868209    0.506524
     21          6           0        5.508771    1.635255    0.158484
     22          6           0        5.196445    0.842845    1.268017
     23          6           0        4.158686   -0.091737    1.203522
     24          6           0        3.450693   -0.208128    0.008328
     25          6           0        3.737897    0.566860   -1.114257
     26          6           0        4.779785    1.494980   -1.027020
     27          1           0        6.316530    2.358751    0.217419
     28          1           0        5.760891    0.949623    2.189995
     29          1           0        3.895741   -0.717996    2.047369
     30          1           0        3.157380    0.437646   -2.019642
     31          1           0        5.020124    2.109034   -1.890283
     32          7           0        2.349879   -1.194108   -0.071987
     33          8           0        1.741206   -1.277422   -1.136511
     34          8           0        2.116578   -1.864936    0.931108
 ---------------------------------------------------------------------

 SCF Done:  E(RHF) =  -669.535967834     A.U. after   15 cycles
 E2 =    -0.2091322247D+01 EUMP2 =    -0.67162729008094D+03

 The electronic state is 1-A.
 Alpha  occ. eigenvalues --  -20.60906 -20.60878 -15.85909 -11.31258 -11.27821
 Alpha  occ. eigenvalues --  -11.27817 -11.27563 -11.26833 -11.26823 -11.21078
 Alpha  occ. eigenvalues --  -11.20701 -11.20639 -11.20514 -11.20384 -11.19352
 Alpha  occ. eigenvalues --   -1.59943  -1.39500  -1.19426  -1.08827  -1.07619
 Alpha  occ. eigenvalues --   -1.04825  -1.02609  -0.95671  -0.95021  -0.86226
 Alpha  occ. eigenvalues --   -0.86034  -0.82499  -0.78711  -0.77550  -0.77401
 Alpha  occ. eigenvalues --   -0.72131  -0.71248  -0.70535  -0.65081  -0.64829
 Alpha  occ. eigenvalues --   -0.64265  -0.62172  -0.60023  -0.58456  -0.56622
 Alpha  occ. eigenvalues --   -0.55330  -0.54340  -0.53159  -0.52918  -0.51688
 Alpha  occ. eigenvalues --   -0.51467  -0.49014  -0.48889  -0.48836  -0.47003
 Alpha  occ. eigenvalues --   -0.45791  -0.45011  -0.44877  -0.44805  -0.42772
 Alpha  occ. eigenvalues --   -0.37404  -0.36427
 Alpha virt. eigenvalues --    0.04967   0.11228   0.16459   0.21360   0.23600
 Alpha virt. eigenvalues --    0.25274   0.27273   0.27390   0.28181   0.28261
 Alpha virt. eigenvalues --    0.29015   0.30931   0.32210   0.32438   0.32565

 Mulliken charges:
               1
     1  C   -0.296944
     2  C   -0.301866
     3  C   -0.473237
     4  H    0.146835
     5  H    0.146896
     6  H    0.148839
     7  H    0.150066
     8  H    0.146529
     9  H    0.149237
    10  H    0.183665
    11  C   -0.297351
    12  C   -0.298820
    13  C   -0.475210
    14  H    0.148528
    15  H    0.148892
    16  H    0.150555
    17  H    0.150577
    18  H    0.154702
    19  H    0.154654
    20  H    0.158223
    21  C   -0.170658
    22  C   -0.218586
    23  C   -0.170917
    24  C    0.158852
    25  C   -0.170633
    26  C   -0.218566
    27  H    0.225838
    28  H    0.223658
    29  H    0.275723
    30  H    0.275850
    31  H    0.223696
    32  N    0.488728
    33  O   -0.457603
    34  O   -0.460153
 Sum of Mulliken charges =  -0.00000

 Dipole moment (field-independent basis, Debye):
    X=              4.2254    Y=              3.3570    Z=              0.2482  Tot=              5.4023
 Quadrupole moment (field-independent basis, Debye-Ang):
   XX=            -70.9927   YY=            -96.4827   ZZ=            -89.3417
   XY=             11.4021   XZ=              2.3217   YZ=             -1.5062

 Normal termination of Gaussian 16 at Thu May  6 02:44:53 2021.
