 Gaussian 16, Revision A.03,
 Gaussian 16:  EM64L-G16RevA.03 25-Dec-2016

 -------------
 #p 6-31g* mp2
 -------------

 ------------------------------------------------------
 Input file generated by CHIRIPA (05-May-2021 14:55:21)
 ------------------------------------------------------
 Symbolic Z-matrix:
 Charge =  0 Multiplicity = 1

                         Standard orientation:
 ---------------------------------------------------------------------
 Center     Atomic      Atomic             Coordinates (Angstroms)
 Number     Number       Type             X           Y           Z
 ---------------------------------------------------------------------
      1          6           0        2.038745    1.928963    0.442044
      2          6           0        1.866347    1.042297   -0.625956
      3          6           0        2.755245   -0.019600   -0.817742
      4          6           0        3.810273   -0.165807    0.081608
      5          6           0        4.008667    0.700925    1.155250
      6          6           0        3.107470    1.755752    1.327677
      7          1           0        1.343451    2.751125    0.583509
      8          1           0        1.037265    1.174377   -1.315319
      9          1           0        2.645278   -0.720741   -1.636110
     10          1           0        4.844659    0.543565    1.825901
     11          1           0        3.243820    2.442806    2.157984
     12          7           0        4.757819   -1.286249   -0.111180
     13          8           0        5.679261   -1.393363    0.695113
     14          8           0        4.561123   -2.036120   -1.064930
     15          6           0       -3.914426    0.014665   -0.149410
     16          6           0       -3.364446    1.028048   -1.153682
     17          6           0       -1.836895    1.094155   -1.150481
     18          1           0       -3.559393    0.275627    0.856967
     19          1           0       -3.503044   -0.978195   -0.378296
     20          1           0       -3.777826    2.018450   -0.923815
     21          1           0       -3.720987    0.764754   -2.157759
     22          1           0       -1.408547    0.118452   -1.401723
     23          1           0       -1.465710    1.379270   -0.160768
     24          1           0       -1.465152    1.824761   -1.875658
     25          6           0       -5.440084   -0.062933   -0.140848
     26          6           0       -5.990064   -1.076317    0.863423
     27          6           0       -7.517615   -1.142424    0.860222
     28          1           0       -5.851466    0.929927    0.088038
     29          1           0       -5.795117   -0.323895   -1.147225
     30          1           0       -5.633524   -0.813023    1.867500
     31          1           0       -5.576684   -2.066718    0.633557
     32          1           0       -7.888800   -1.427539   -0.129491
     33          1           0       -7.945964   -0.166720    1.111465
     34          1           0       -7.889359   -1.873029    1.585400
 ---------------------------------------------------------------------

 SCF Done:  E(RHF) =  -669.535441264     A.U. after   15 cycles
 E2 =    -0.2091277296D+01 EUMP2 =    -0.67162671855987D+03

 The electronic state is 1-A.
 Alpha  occ. eigenvalues --  -20.60698 -20.60693 -15.85749 -11.31095 -11.27657
 Alpha  occ. eigenvalues --  -11.27630 -11.27379 -11.26681 -11.26576 -11.22432
 Alpha  occ. eigenvalues --  -11.22264 -11.22010 -11.21984 -11.21854 -11.21386
 Alpha  occ. eigenvalues --   -1.59774  -1.39328  -1.19256  -1.09033  -1.08655
 Alpha  occ. eigenvalues --   -1.04655  -1.04183  -0.96672  -0.95496  -0.87723
 Alpha  occ. eigenvalues --   -0.86038  -0.82327  -0.80274  -0.78798  -0.77371
 Alpha  occ. eigenvalues --   -0.71968  -0.71096  -0.70369  -0.65657  -0.64905
 Alpha  occ. eigenvalues --   -0.64658  -0.62016  -0.61578  -0.60058  -0.58240
 Alpha  occ. eigenvalues --   -0.55956  -0.55157  -0.53516  -0.53166  -0.52932
 Alpha  occ. eigenvalues --   -0.52569  -0.50603  -0.48732  -0.48725  -0.48552
 Alpha  occ. eigenvalues --   -0.47267  -0.46350  -0.46245  -0.44738  -0.44423
 Alpha  occ. eigenvalues --   -0.37233  -0.36245
 Alpha virt. eigenvalues --    0.05138   0.11346   0.16618   0.20675   0.22379
 Alpha virt. eigenvalues --    0.23806   0.25831   0.26004   0.26932   0.27704
 Alpha virt. eigenvalues --    0.28944   0.29607   0.30714   0.31564   0.32138

 Mulliken charges:
               1
     1  C   -0.174531
     2  C   -0.222143
     3  C   -0.173574
     4  C    0.158980
     5  C   -0.171606
     6  C   -0.218382
     7  H    0.225203
     8  H    0.236666
     9  H    0.275129
    10  H    0.275121
    11  H    0.222809
    12  N    0.488025
    13  O   -0.460755
    14  O   -0.460697
    15  C   -0.299184
    16  C   -0.299899
    17  C   -0.483760
    18  H    0.149943
    19  H    0.151771
    20  H    0.153377
    21  H    0.155241
    22  H    0.157529
    23  H    0.154861
    24  H    0.156015
    25  C   -0.298950
    26  C   -0.300125
    27  C   -0.476049
    28  H    0.149782
    29  H    0.150839
    30  H    0.152241
    31  H    0.153282
    32  H    0.155870
    33  H    0.155283
    34  H    0.161689
 Sum of Mulliken charges =  -0.00000

 Dipole moment (field-independent basis, Debye):
    X=             -3.5787    Y=              3.9124    Z=              0.6793  Tot=              5.3456
 Quadrupole moment (field-independent basis, Debye-Ang):
   XX=           -120.0950   YY=            -95.8724   ZZ=            -91.2030
   XY=             16.4682   XZ=              4.8336   YZ=              2.2092

 Normal termination of Gaussian 16 at Thu May  6 19:11:03 2021.
