 Gaussian 16, Revision A.03,
 Gaussian 16:  EM64L-G16RevA.03 25-Dec-2016

 -------------
 #p 6-31g* mp2
 -------------

 ------------------------------------------------------
 Input file generated by CHIRIPA (05-May-2021 14:55:24)
 ------------------------------------------------------
 Symbolic Z-matrix:
 Charge =  0 Multiplicity = 1

                         Standard orientation:
 ---------------------------------------------------------------------
 Center     Atomic      Atomic             Coordinates (Angstroms)
 Number     Number       Type             X           Y           Z
 ---------------------------------------------------------------------
      1          6           0        0.461626   -1.647246    1.110587
      2          6           0        0.718945   -0.342043    1.542734
      3          6           0        1.808506    0.372055    1.035320
      4          6           0        2.623827   -0.252542    0.092760
      5          6           0        2.393602   -1.551558   -0.357623
      6          6           0        1.298300   -2.246781    0.163458
      7          1           0       -0.387001   -2.194644    1.510067
      8          1           0        0.070863    0.126086    2.278186
      9          1           0        2.030788    1.383728    1.352380
     10          1           0        3.057456   -1.991639   -1.091820
     11          1           0        1.100881   -3.260291   -0.173986
     12          7           0        3.780336    0.493451   -0.451651
     13          8           0        4.483595   -0.079255   -1.281152
     14          8           0        3.961649    1.636740   -0.038551
     15          6           0       -3.656611   -0.052696   -0.305249
     16          6           0       -3.105783   -1.479003   -0.320201
     17          6           0       -4.202380   -2.534725   -0.464147
     18          1           0       -4.374736    0.047601    0.520089
     19          1           0       -4.218985    0.125473   -1.232281
     20          1           0       -2.543450   -1.653971    0.605965
     21          1           0       -2.388743   -1.575862   -1.145482
     22          1           0       -4.758066   -2.388396   -1.396027
     23          1           0       -4.913652   -2.466948    0.365370
     24          1           0       -3.786451   -3.547046   -0.472553
     25          6           0       -2.572433    1.013953   -0.161914
     26          6           0       -3.123262    2.440259   -0.146961
     27          6           0       -2.026666    3.495982   -0.003016
     28          1           0       -2.010061    0.835784    0.765118
     29          1           0       -1.854310    0.913655   -0.987252
     30          1           0       -3.840302    2.537119    0.678319
     31          1           0       -3.685596    2.615227   -1.073127
     32          1           0       -1.315394    3.428204   -0.832533
     33          1           0       -1.470979    3.349652    0.928864
     34          1           0       -2.442594    4.508302    0.005391
 ---------------------------------------------------------------------

 SCF Done:  E(RHF) =  -669.534475455     A.U. after   15 cycles
 E2 =    -0.2093314988D+01 EUMP2 =    -0.67162779044245D+03

 The electronic state is 1-A.
 Alpha  occ. eigenvalues --  -20.60741 -20.60736 -15.85796 -11.31153 -11.27733
 Alpha  occ. eigenvalues --  -11.27728 -11.27451 -11.26741 -11.26730 -11.22447
 Alpha  occ. eigenvalues --  -11.22060 -11.22042 -11.21918 -11.21826 -11.21464
 Alpha  occ. eigenvalues --   -1.59818  -1.39371  -1.19334  -1.09075  -1.08719
 Alpha  occ. eigenvalues --   -1.04739  -1.04154  -0.96578  -0.95565  -0.87595
 Alpha  occ. eigenvalues --   -0.86139  -0.82405  -0.80235  -0.78880  -0.77441
 Alpha  occ. eigenvalues --   -0.72014  -0.71142  -0.70460  -0.65733  -0.64985
 Alpha  occ. eigenvalues --   -0.64728  -0.62095  -0.61558  -0.59972  -0.58201
 Alpha  occ. eigenvalues --   -0.55879  -0.55251  -0.53321  -0.53078  -0.52978
 Alpha  occ. eigenvalues --   -0.52811  -0.50516  -0.48782  -0.48769  -0.48521
 Alpha  occ. eigenvalues --   -0.47268  -0.46404  -0.46317  -0.44779  -0.44396
 Alpha  occ. eigenvalues --   -0.37241  -0.36313
 Alpha virt. eigenvalues --    0.05072   0.11198   0.16471   0.19757   0.22858
 Alpha virt. eigenvalues --    0.23199   0.25395   0.26587   0.27048   0.27331
 Alpha virt. eigenvalues --    0.29435   0.30350   0.31088   0.31322   0.32121

 Mulliken charges:
               1
     1  C   -0.166546
     2  C   -0.216148
     3  C   -0.171500
     4  C    0.157981
     5  C   -0.170998
     6  C   -0.220436
     7  H    0.226970
     8  H    0.221987
     9  H    0.275684
    10  H    0.275390
    11  H    0.223360
    12  N    0.488061
    13  O   -0.460712
    14  O   -0.460430
    15  C   -0.298886
    16  C   -0.300061
    17  C   -0.475745
    18  H    0.149475
    19  H    0.152812
    20  H    0.140299
    21  H    0.155509
    22  H    0.159074
    23  H    0.156234
    24  H    0.157800
    25  C   -0.298315
    26  C   -0.300562
    27  C   -0.474882
    28  H    0.142782
    29  H    0.154510
    30  H    0.151168
    31  H    0.154179
    32  H    0.159489
    33  H    0.149534
    34  H    0.162922
 Sum of Mulliken charges =  -0.00000

 Dipole moment (field-independent basis, Debye):
    X=             -4.1498    Y=             -2.5686    Z=              1.7985  Tot=              5.2013
 Quadrupole moment (field-independent basis, Debye-Ang):
   XX=           -116.9434   YY=            -91.2522   ZZ=            -92.2779
   XY=             -7.6860   XZ=              4.0568   YZ=              1.6517

 Normal termination of Gaussian 16 at Thu May  6 03:11:47 2021.
