 Gaussian 16, Revision A.03,
 Gaussian 16:  EM64L-G16RevA.03 25-Dec-2016

 -------------
 #p 6-31g* mp2
 -------------

 ------------------------------------------------------
 Input file generated by CHIRIPA (05-May-2021 14:57:25)
 ------------------------------------------------------
 Symbolic Z-matrix:
 Charge =  0 Multiplicity = 1

                         Standard orientation:
 ---------------------------------------------------------------------
 Center     Atomic      Atomic             Coordinates (Angstroms)
 Number     Number       Type             X           Y           Z
 ---------------------------------------------------------------------
      1          6           0        3.774130   -1.778959    1.175490
      2          6           0        4.007780   -0.504481    1.702399
      3          6           0        3.587296    0.636833    1.013093
      4          6           0        2.933129    0.466137   -0.206012
      5          6           0        2.685633   -0.790190   -0.757084
      6          6           0        3.114964   -1.917502   -0.050408
      7          1           0        4.104208   -2.660121    1.717706
      8          1           0        4.519459   -0.393866    2.654237
      9          1           0        3.755206    1.635375    1.397980
     10          1           0        2.173056   -0.868624   -1.708152
     11          1           0        2.932148   -2.906033   -0.462027
     12          7           0        2.483298    1.666983   -0.944944
     13          8           0        1.909096    1.489725   -2.017095
     14          8           0        2.713441    2.762727   -0.437976
     15          6           0       -4.752493    1.407424    0.799989
     16          6           0       -3.407183    1.617924    1.119917
     17          6           0       -2.431646    0.696165    0.728461
     18          6           0       -2.838544   -0.430218    0.015030
     19          6           0       -4.170944   -0.667999   -0.318829
     20          6           0       -5.129415    0.267146    0.082902
     21          1           0       -5.503684    2.128667    1.108072
     22          1           0       -3.111560    2.502582    1.676722
     23          1           0       -1.383124    0.834373    0.962807
     24          1           0       -4.435072   -1.559327   -0.874874
     25          1           0       -6.173463    0.101074   -0.166955
     26          7           0       -1.814820   -1.413128   -0.404824
     27          8           0       -2.199102   -2.397488   -1.032518
     28          8           0       -0.647529   -1.180561   -0.098264
 ---------------------------------------------------------------------

 SCF Done:  E(RHF) =  -868.339361597     A.U. after   16 cycles
 E2 =    -0.2599382406D+01 EUMP2 =    -0.87093874400336D+03

 The electronic state is 1-A.
 Alpha  occ. eigenvalues --  -20.60910 -20.60904 -20.60105 -20.60071 -15.85939
 Alpha  occ. eigenvalues --  -15.85133 -11.31102 -11.30192 -11.27671 -11.27634
 Alpha  occ. eigenvalues --  -11.27376 -11.26870 -11.26663 -11.26650 -11.26605
 Alpha  occ. eigenvalues --  -11.26530 -11.25831 -11.25624  -1.59978  -1.59174
 Alpha  occ. eigenvalues --   -1.39537  -1.38732  -1.19262  -1.18371  -1.08700
 Alpha  occ. eigenvalues --   -1.07842  -1.04636  -1.03727  -0.95570  -0.94716
 Alpha  occ. eigenvalues --   -0.86047  -0.85163  -0.82410  -0.81556  -0.77476
 Alpha  occ. eigenvalues --   -0.76621  -0.72195  -0.71368  -0.71274  -0.70488
 Alpha  occ. eigenvalues --   -0.70381  -0.69524  -0.64924  -0.64645  -0.64043
 Alpha  occ. eigenvalues --   -0.63762  -0.61988  -0.61090  -0.55160  -0.54311
 Alpha  occ. eigenvalues --   -0.52973  -0.52732  -0.52065  -0.51843  -0.48944
 Alpha  occ. eigenvalues --   -0.48921  -0.48130  -0.48094  -0.44988  -0.44202
 Alpha  occ. eigenvalues --   -0.37236  -0.36372  -0.36224  -0.35248
 Alpha virt. eigenvalues --    0.05037   0.05903   0.11431   0.12367   0.16585
 Alpha virt. eigenvalues --    0.17427   0.21552   0.22362   0.27471   0.28298
 Alpha virt. eigenvalues --    0.28402   0.29232   0.31083   0.31853   0.32596

 Mulliken charges:
               1
     1  C   -0.170811
     2  C   -0.220112
     3  C   -0.174135
     4  C    0.153364
     5  C   -0.149318
     6  C   -0.214387
     7  H    0.222366
     8  H    0.218204
     9  H    0.269896
    10  H    0.278905
    11  H    0.225713
    12  N    0.487313
    13  O   -0.459857
    14  O   -0.468088
    15  C   -0.170129
    16  C   -0.218163
    17  C   -0.167662
    18  C    0.158366
    19  C   -0.170655
    20  C   -0.218660
    21  H    0.225969
    22  H    0.225515
    23  H    0.275880
    24  H    0.274599
    25  H    0.223114
    26  N    0.492057
    27  O   -0.462087
    28  O   -0.467196
 Sum of Mulliken charges =  -0.00000

 Dipole moment (field-independent basis, Debye):
    X=             -2.2792    Y=             -0.9390    Z=              3.9478  Tot=              4.6542
 Quadrupole moment (field-independent basis, Debye-Ang):
   XX=            -73.6000   YY=           -109.5823   ZZ=           -103.5265
   XY=            -17.5864   XZ=              5.8350   YZ=              5.5524

 Normal termination of Gaussian 16 at Thu May  6 14:42:38 2021.
