 Gaussian 16, Revision A.03,
 Gaussian 16:  EM64L-G16RevA.03 25-Dec-2016

 -------------
 #p 6-31g* mp2
 -------------

 ------------------------------------------------------
 Input file generated by CHIRIPA (05-May-2021 14:55:20)
 ------------------------------------------------------
 Symbolic Z-matrix:
 Charge =  0 Multiplicity = 1

                         Standard orientation:
 ---------------------------------------------------------------------
 Center     Atomic      Atomic             Coordinates (Angstroms)
 Number     Number       Type             X           Y           Z
 ---------------------------------------------------------------------
      1          6           0       -4.430394    0.913653    1.091723
      2          6           0       -3.202998    0.725974    1.735771
      3          6           0       -2.176442    0.009999    1.112786
      4          6           0       -2.412637   -0.506810   -0.160167
      5          6           0       -3.624530   -0.336746   -0.827761
      6          6           0       -4.636878    0.382630   -0.185735
      7          1           0       -5.222328    1.471161    1.583069
      8          1           0       -3.039821    1.137239    2.727880
      9          1           0       -1.216535   -0.150230    1.588522
     10          1           0       -3.757499   -0.758665   -1.816559
     11          1           0       -5.589073    0.526819   -0.688308
     12          7           0       -1.333388   -1.266581   -0.829772
     13          8           0       -1.566546   -1.711803   -1.951401
     14          8           0       -0.274751   -1.402482   -0.220300
     15          6           0        2.790828    1.042648    0.088881
     16          6           0        3.187217    2.289729   -0.702099
     17          6           0        2.126752    3.389560   -0.642270
     18          1           0        1.838329    0.657100   -0.299762
     19          1           0        2.610645    1.322979    1.135945
     20          1           0        3.367942    2.006887   -1.747066
     21          1           0        4.138980    2.672242   -0.311655
     22          1           0        1.951793    3.700107    0.392887
     23          1           0        1.176374    3.030972   -1.050679
     24          1           0        2.430569    4.271740   -1.214382
     25          6           0        3.840877   -0.065774    0.038627
     26          6           0        3.444489   -1.312856    0.829608
     27          6           0        4.504953   -2.412688    0.769778
     28          1           0        4.021060   -0.346106   -1.008437
     29          1           0        4.793376    0.319773    0.427270
     30          1           0        2.492725   -1.695368    0.439163
     31          1           0        3.263763   -1.030014    1.874574
     32          1           0        5.455330   -2.054099    1.178187
     33          1           0        4.679912   -2.723234   -0.265379
     34          1           0        4.201136   -3.294868    1.341890
 ---------------------------------------------------------------------

 SCF Done:  E(RHF) =  -669.536501875     A.U. after   15 cycles
 E2 =    -0.2091771844D+01 EUMP2 =    -0.67162827371917D+03

 The electronic state is 1-A.
 Alpha  occ. eigenvalues --  -20.61062 -20.61055 -15.86078 -11.31330 -11.27890
 Alpha  occ. eigenvalues --  -11.27876 -11.27617 -11.26882 -11.26870 -11.20962
 Alpha  occ. eigenvalues --  -11.20676 -11.20458 -11.20388 -11.20308 -11.20085
 Alpha  occ. eigenvalues --   -1.60113  -1.39672  -1.19494  -1.08913  -1.07511
 Alpha  occ. eigenvalues --   -1.04879  -1.02679  -0.95766  -0.95169  -0.86284
 Alpha  occ. eigenvalues --   -0.86194  -0.82606  -0.78747  -0.77694  -0.77260
 Alpha  occ. eigenvalues --   -0.72309  -0.71417  -0.70603  -0.65156  -0.64883
 Alpha  occ. eigenvalues --   -0.64118  -0.62226  -0.60068  -0.58555  -0.56766
 Alpha  occ. eigenvalues --   -0.55390  -0.54466  -0.53215  -0.52971  -0.51895
 Alpha  occ. eigenvalues --   -0.51602  -0.49167  -0.49065  -0.49036  -0.47075
 Alpha  occ. eigenvalues --   -0.45783  -0.45242  -0.44858  -0.44453  -0.42913
 Alpha  occ. eigenvalues --   -0.37471  -0.36477
 Alpha virt. eigenvalues --    0.04831   0.11174   0.16310   0.21238   0.23751
 Alpha virt. eigenvalues --    0.25098   0.27009   0.27472   0.27683   0.28586
 Alpha virt. eigenvalues --    0.29126   0.31076   0.32121   0.32280   0.32722

 Mulliken charges:
               1
     1  C   -0.170340
     2  C   -0.218500
     3  C   -0.170540
     4  C    0.156859
     5  C   -0.170449
     6  C   -0.218663
     7  H    0.226212
     8  H    0.224204
     9  H    0.277026
    10  H    0.275793
    11  H    0.223929
    12  N    0.495013
    13  O   -0.458054
    14  O   -0.466324
    15  C   -0.304683
    16  C   -0.298817
    17  C   -0.474743
    18  H    0.165552
    19  H    0.140875
    20  H    0.152957
    21  H    0.149176
    22  H    0.150992
    23  H    0.153800
    24  H    0.158234
    25  C   -0.295966
    26  C   -0.311091
    27  C   -0.474769
    28  H    0.150413
    29  H    0.143665
    30  H    0.182344
    31  H    0.142809
    32  H    0.149640
    33  H    0.155476
    34  H    0.157970
 Sum of Mulliken charges =  -0.00000

 Dipole moment (field-independent basis, Debye):
    X=             -4.1356    Y=              2.5109    Z=              2.2487  Tot=              5.3352
 Quadrupole moment (field-independent basis, Debye-Ang):
   XX=            -76.3472   YY=            -99.3002   ZZ=            -92.0473
   XY=             -3.6905   XZ=             -2.6071   YZ=             -0.3832

 Normal termination of Gaussian 16 at Wed May  5 17:23:18 2021.
