 Gaussian 16, Revision A.03,
 Gaussian 16:  EM64L-G16RevA.03 25-Dec-2016

 -------------
 #p 6-31g* mp2
 -------------

 ------------------------------------------------------
 Input file generated by CHIRIPA (05-May-2021 14:57:21)
 ------------------------------------------------------
 Symbolic Z-matrix:
 Charge =  0 Multiplicity = 1

                         Standard orientation:
 ---------------------------------------------------------------------
 Center     Atomic      Atomic             Coordinates (Angstroms)
 Number     Number       Type             X           Y           Z
 ---------------------------------------------------------------------
      1          6           0       -4.850473   -1.711503    0.105621
      2          6           0       -5.381281   -0.431622    0.297107
      3          6           0       -4.573801    0.700643    0.153930
      4          6           0       -3.233831    0.515487   -0.182950
      5          6           0       -2.675599   -0.746545   -0.380289
      6          6           0       -3.501704   -1.864610   -0.231871
      7          1           0       -5.484977   -2.585559    0.218880
      8          1           0       -6.428398   -0.309701    0.559266
      9          1           0       -4.958815    1.703085    0.296386
     10          1           0       -1.628036   -0.836299   -0.641010
     11          1           0       -3.086755   -2.857367   -0.381188
     12          7           0       -2.369129    1.706649   -0.337299
     13          8           0       -1.191776    1.516692   -0.634608
     14          8           0       -2.885103    2.807683   -0.158047
     15          6           0        5.624835    0.680729   -0.399640
     16          6           0        5.033941   -0.241567   -1.269545
     17          6           0        3.788411   -0.801985   -0.970988
     18          6           0        3.158968   -0.415835    0.211374
     19          6           0        3.721911    0.500566    1.098277
     20          6           0        4.968092    1.048204    0.779415
     21          1           0        6.592646    1.111112   -0.639453
     22          1           0        5.541675   -0.528805   -2.185921
     23          1           0        3.308213   -1.518207   -1.626620
     24          1           0        3.191524    0.767382    2.004321
     25          1           0        5.424604    1.764239    1.456863
     26          7           0        1.840038   -1.002361    0.538191
     27          8           0        1.305974   -0.645684    1.586139
     28          8           0        1.365297   -1.807649   -0.259786
 ---------------------------------------------------------------------

 SCF Done:  E(RHF) =  -868.340394128     A.U. after   16 cycles
 E2 =    -0.2598797468D+01 EUMP2 =    -0.87093919159580D+03

 The electronic state is 1-A.
 Alpha  occ. eigenvalues --  -20.60758 -20.60707 -20.59902 -20.59878 -15.85751
 Alpha  occ. eigenvalues --  -15.84940 -11.30917 -11.30118 -11.27495 -11.27450
 Alpha  occ. eigenvalues --  -11.27215 -11.26791 -11.26524 -11.26506 -11.26478
 Alpha  occ. eigenvalues --  -11.26448 -11.25790 -11.25618  -1.59770  -1.58965
 Alpha  occ. eigenvalues --   -1.39335  -1.38522  -1.19076  -1.18310  -1.08515
 Alpha  occ. eigenvalues --   -1.07762  -1.04463  -1.03676  -0.95385  -0.94611
 Alpha  occ. eigenvalues --   -0.85873  -0.85096  -0.82233  -0.81444  -0.77292
 Alpha  occ. eigenvalues --   -0.76486  -0.71996  -0.71213  -0.71000  -0.70272
 Alpha  occ. eigenvalues --   -0.70211  -0.69438  -0.64748  -0.64484  -0.63973
 Alpha  occ. eigenvalues --   -0.63693  -0.61820  -0.60998  -0.54996  -0.54251
 Alpha  occ. eigenvalues --   -0.52785  -0.52568  -0.52042  -0.51768  -0.48759
 Alpha  occ. eigenvalues --   -0.48728  -0.47930  -0.47911  -0.44784  -0.43962
 Alpha  occ. eigenvalues --   -0.37045  -0.36335  -0.36048  -0.35269
 Alpha virt. eigenvalues --    0.05230   0.06027   0.11610   0.12374   0.16743
 Alpha virt. eigenvalues --    0.17520   0.21686   0.22490   0.27608   0.28374
 Alpha virt. eigenvalues --    0.28599   0.29419   0.31229   0.31982   0.32806

 Mulliken charges:
               1
     1  C   -0.170930
     2  C   -0.219906
     3  C   -0.171706
     4  C    0.156405
     5  C   -0.169853
     6  C   -0.221058
     7  H    0.222075
     8  H    0.219131
     9  H    0.271749
    10  H    0.291388
    11  H    0.226230
    12  N    0.488749
    13  O   -0.460461
    14  O   -0.465827
    15  C   -0.169972
    16  C   -0.218507
    17  C   -0.169354
    18  C    0.161888
    19  C   -0.167585
    20  C   -0.218441
    21  H    0.225117
    22  H    0.222435
    23  H    0.273478
    24  H    0.276800
    25  H    0.223578
    26  N    0.492651
    27  O   -0.456362
    28  O   -0.471712
 Sum of Mulliken charges =  -0.00000

 Dipole moment (field-independent basis, Debye):
    X=              1.9500    Y=             -2.1587    Z=             -0.5432  Tot=              2.9593
 Quadrupole moment (field-independent basis, Debye-Ang):
   XX=            -54.8733   YY=           -109.1008   ZZ=           -102.7239
   XY=             14.7609   XZ=             -4.9719   YZ=              5.4149

 Normal termination of Gaussian 16 at Thu May  6 04:54:19 2021.
