 Gaussian 16, Revision A.03,
 Gaussian 16:  EM64L-G16RevA.03 25-Dec-2016

 -------------
 #p 6-31g* mp2
 -------------

 ------------------------------------------------------
 Input file generated by CHIRIPA (05-May-2021 14:53:14)
 ------------------------------------------------------
 Symbolic Z-matrix:
 Charge =  0 Multiplicity = 1

                         Standard orientation:
 ---------------------------------------------------------------------
 Center     Atomic      Atomic             Coordinates (Angstroms)
 Number     Number       Type             X           Y           Z
 ---------------------------------------------------------------------
      1          6           0        3.058611    0.884322   -0.390169
      2          6           0        1.790806    1.624099   -0.818404
      3          6           0        2.000332    3.133628   -0.941753
      4          1           0        3.403783    1.287834    0.571589
      5          1           0        3.856335    1.086425   -1.118308
      6          1           0        0.995312    1.419546   -0.090417
      7          1           0        1.448504    1.218648   -1.779161
      8          1           0        2.775228    3.355737   -1.682567
      9          1           0        2.319462    3.557776    0.015773
     10          1           0        1.081447    3.642712   -1.248907
     11          6           0        2.865054   -0.625632   -0.262484
     12          6           0        4.132859   -1.365409    0.165750
     13          6           0        3.923332   -2.874938    0.289100
     14          1           0        2.067330   -0.827735    0.465655
     15          1           0        2.519882   -1.029144   -1.224242
     16          1           0        4.475161   -0.959958    1.126508
     17          1           0        4.928352   -1.160856   -0.562236
     18          1           0        3.604203   -3.299086   -0.668426
     19          1           0        3.148437   -3.097047    1.029913
     20          1           0        4.842217   -3.384022    0.596254
     21          6           0       -3.371735   -1.571702   -1.501235
     22          6           0       -2.951142   -2.123597   -0.286725
     23          6           0       -2.363770   -1.318243    0.693554
     24          6           0       -2.211667    0.041126    0.424724
     25          6           0       -2.620522    0.620602   -0.775416
     26          6           0       -3.205375   -0.203775   -1.741281
     27          1           0       -3.827042   -2.204709   -2.257141
     28          1           0       -3.079077   -3.185620   -0.097557
     29          1           0       -2.029169   -1.719375    1.642528
     30          1           0       -2.479693    1.682720   -0.935075
     31          1           0       -3.531071    0.227572   -2.683569
     32          7           0       -1.591176    0.903788    1.454871
     33          8           0       -1.468400    2.098491    1.193622
     34          8           0       -1.239359    0.368907    2.504044
 ---------------------------------------------------------------------

 SCF Done:  E(RHF) =  -669.536096470     A.U. after   15 cycles
 E2 =    -0.2092036948D+01 EUMP2 =    -0.67162813341796D+03

 The electronic state is 1-A.
 Alpha  occ. eigenvalues --  -20.60940 -20.60931 -15.85952 -11.31249 -11.27815
 Alpha  occ. eigenvalues --  -11.27808 -11.27549 -11.26816 -11.26806 -11.21299
 Alpha  occ. eigenvalues --  -11.21014 -11.20979 -11.20885 -11.20851 -11.20391
 Alpha  occ. eigenvalues --   -1.59999  -1.39554  -1.19417  -1.08830  -1.07984
 Alpha  occ. eigenvalues --   -1.04810  -1.03073  -0.95677  -0.95529  -0.86552
 Alpha  occ. eigenvalues --   -0.86213  -0.82511  -0.79163  -0.77814  -0.77561
 Alpha  occ. eigenvalues --   -0.72182  -0.71327  -0.70530  -0.65076  -0.64817
 Alpha  occ. eigenvalues --   -0.64597  -0.62161  -0.60456  -0.58915  -0.57143
 Alpha  occ. eigenvalues --   -0.55321  -0.54813  -0.53139  -0.52905  -0.52229
 Alpha  occ. eigenvalues --   -0.51967  -0.49475  -0.48949  -0.48939  -0.47493
 Alpha  occ. eigenvalues --   -0.46235  -0.45420  -0.45308  -0.44733  -0.43332
 Alpha  occ. eigenvalues --   -0.37392  -0.36405
 Alpha virt. eigenvalues --    0.04949   0.11224   0.16428   0.21321   0.23268
 Alpha virt. eigenvalues --    0.24664   0.26868   0.27205   0.27634   0.28137
 Alpha virt. eigenvalues --    0.28656   0.30833   0.31731   0.31930   0.32189

 Mulliken charges:
               1
     1  C   -0.297975
     2  C   -0.304017
     3  C   -0.472437
     4  H    0.153627
     5  H    0.146643
     6  H    0.160261
     7  H    0.144014
     8  H    0.149761
     9  H    0.160257
    10  H    0.159851
    11  C   -0.298688
    12  C   -0.299259
    13  C   -0.475488
    14  H    0.151247
    15  H    0.145680
    16  H    0.154268
    17  H    0.150757
    18  H    0.152476
    19  H    0.154957
    20  H    0.159622
    21  C   -0.170444
    22  C   -0.218434
    23  C   -0.170686
    24  C    0.157679
    25  C   -0.170133
    26  C   -0.218672
    27  H    0.225851
    28  H    0.223731
    29  H    0.275467
    30  H    0.275812
    31  H    0.223673
    32  N    0.487351
    33  O   -0.457597
    34  O   -0.459157
 Sum of Mulliken charges =  -0.00000

 Dipole moment (field-independent basis, Debye):
    X=             -2.3095    Y=             -2.9794    Z=             -3.5076  Tot=              5.1491
 Quadrupole moment (field-independent basis, Debye-Ang):
   XX=            -85.9226   YY=            -93.3068   ZZ=            -95.6760
   XY=              6.4306   XZ=              7.7659   YZ=             -3.7086

 Normal termination of Gaussian 16 at Thu May  6 08:59:03 2021.
