 Gaussian 16, Revision A.03,
 Gaussian 16:  EM64L-G16RevA.03 25-Dec-2016

 -------------
 #p 6-31g* mp2
 -------------

 ------------------------------------------------------
 Input file generated by CHIRIPA (05-May-2021 14:57:25)
 ------------------------------------------------------
 Symbolic Z-matrix:
 Charge =  0 Multiplicity = 1

                         Standard orientation:
 ---------------------------------------------------------------------
 Center     Atomic      Atomic             Coordinates (Angstroms)
 Number     Number       Type             X           Y           Z
 ---------------------------------------------------------------------
      1          6           0       -1.246201   -1.667846    1.485008
      2          6           0       -1.265870   -1.869473    0.101000
      3          6           0       -2.108431   -1.109099   -0.715377
      4          6           0       -2.921773   -0.151392   -0.111587
      5          6           0       -2.924882    0.073024    1.264247
      6          6           0       -2.074310   -0.698949    2.061199
      7          1           0       -0.588568   -2.263028    2.111645
      8          1           0       -0.623834   -2.621225   -0.349226
      9          1           0       -2.143692   -1.244429   -1.789556
     10          1           0       -3.576320    0.829843    1.684093
     11          1           0       -2.061135   -0.540187    3.135753
     12          7           0       -3.817995    0.659722   -0.965566
     13          8           0       -4.524904    1.497186   -0.409175
     14          8           0       -3.796574    0.442651   -2.175135
     15          6           0        3.233000   -2.098671   -0.716957
     16          6           0        3.939814   -1.049482   -1.313731
     17          6           0        3.693790    0.275158   -0.940438
     18          6           0        2.729696    0.515525    0.037335
     19          6           0        2.008978   -0.508219    0.650364
     20          6           0        2.271533   -1.825173    0.261461
     21          1           0        3.430539   -3.124698   -1.013003
     22          1           0        4.687071   -1.258913   -2.073856
     23          1           0        4.226421    1.106454   -1.386162
     24          1           0        1.270079   -0.268138    1.405219
     25          1           0        1.721087   -2.637990    0.726630
     26          7           0        2.460491    1.913794    0.440785
     27          8           0        1.606055    2.099124    1.304630
     28          8           0        3.109023    2.797949   -0.114473
 ---------------------------------------------------------------------

 SCF Done:  E(RHF) =  -868.334554853     A.U. after   16 cycles
 E2 =    -0.2603820097D+01 EUMP2 =    -0.87093837494973D+03

 The electronic state is 1-A.
 Alpha  occ. eigenvalues --  -20.61111 -20.61098 -20.60859 -20.60846 -15.86169
 Alpha  occ. eigenvalues --  -15.85912 -11.31647 -11.31460 -11.28272 -11.28247
 Alpha  occ. eigenvalues --  -11.28107 -11.28030 -11.27972 -11.27928 -11.27439
 Alpha  occ. eigenvalues --  -11.27262 -11.27192 -11.27122  -1.60178  -1.59922
 Alpha  occ. eigenvalues --   -1.39729  -1.39471  -1.19892  -1.19653  -1.09265
 Alpha  occ. eigenvalues --   -1.09081  -1.05353  -1.05045  -0.96072  -0.95859
 Alpha  occ. eigenvalues --   -0.86761  -0.86472  -0.82919  -0.82669  -0.77959
 Alpha  occ. eigenvalues --   -0.77630  -0.72391  -0.72136  -0.71502  -0.71239
 Alpha  occ. eigenvalues --   -0.71089  -0.70789  -0.65634  -0.65532  -0.65300
 Alpha  occ. eigenvalues --   -0.64948  -0.62728  -0.62335  -0.55868  -0.55686
 Alpha  occ. eigenvalues --   -0.53851  -0.53581  -0.53097  -0.53088  -0.49156
 Alpha  occ. eigenvalues --   -0.49129  -0.48907  -0.48872  -0.45107  -0.44836
 Alpha  occ. eigenvalues --   -0.37963  -0.37885  -0.37063  -0.36181
 Alpha virt. eigenvalues --    0.04619   0.04823   0.10600   0.10960   0.16007
 Alpha virt. eigenvalues --    0.16212   0.18938   0.22233   0.25343   0.26687
 Alpha virt. eigenvalues --    0.28029   0.29273   0.30246   0.31129   0.31978

 Mulliken charges:
               1
     1  C   -0.187677
     2  C   -0.210611
     3  C   -0.171245
     4  C    0.161147
     5  C   -0.166404
     6  C   -0.213716
     7  H    0.219103
     8  H    0.218241
     9  H    0.276492
    10  H    0.279513
    11  H    0.227358
    12  N    0.488150
    13  O   -0.457049
    14  O   -0.459964
    15  C   -0.171787
    16  C   -0.219059
    17  C   -0.168821
    18  C    0.157063
    19  C   -0.163985
    20  C   -0.224509
    21  H    0.225582
    22  H    0.225558
    23  H    0.278085
    24  H    0.277068
    25  H    0.211230
    26  N    0.488496
    27  O   -0.460270
    28  O   -0.457988
 Sum of Mulliken charges =  -0.00000

 Dipole moment (field-independent basis, Debye):
    X=              3.9505    Y=             -7.4386    Z=              1.4985  Tot=              8.5548
 Quadrupole moment (field-independent basis, Debye-Ang):
   XX=           -115.1958   YY=           -109.0312   ZZ=           -100.7896
   XY=             -4.8031   XZ=            -17.6274   YZ=              0.2795

 Normal termination of Gaussian 16 at Fri May  7 05:00:12 2021.
