 Gaussian 16, Revision A.03,
 Gaussian 16:  EM64L-G16RevA.03 25-Dec-2016

 -------------
 #p 6-31g* mp2
 -------------

 ------------------------------------------------------
 Input file generated by CHIRIPA (05-May-2021 14:51:14)
 ------------------------------------------------------
 Symbolic Z-matrix:
 Charge =  0 Multiplicity = 1

                         Standard orientation:
 ---------------------------------------------------------------------
 Center     Atomic      Atomic             Coordinates (Angstroms)
 Number     Number       Type             X           Y           Z
 ---------------------------------------------------------------------
      1          6           0       -2.439218   -1.218652    0.423848
      2          6           0       -0.954770   -0.957453    0.681095
      3          6           0       -0.221374   -2.189012    1.213246
      4          1           0       -2.912846   -1.554727    1.356411
      5          1           0       -2.540058   -2.044977   -0.293378
      6          1           0       -0.856739   -0.130950    1.396567
      7          1           0       -0.484661   -0.621777   -0.252144
      8          1           0       -0.289511   -3.016301    0.499417
      9          1           0       -0.663703   -2.522686    2.157496
     10          1           0        0.838278   -1.979967    1.390153
     11          6           0       -3.185978    0.003140   -0.108412
     12          6           0       -4.670425   -0.258060   -0.365659
     13          6           0       -5.403821    0.973500   -0.897810
     14          1           0       -3.085137    0.829465    0.608814
     15          1           0       -2.712349    0.339215   -1.040975
     16          1           0       -5.140534   -0.593735    0.567580
     17          1           0       -4.768456   -1.084562   -1.081131
     18          1           0       -4.961492    1.307174   -1.842060
     19          1           0       -5.335684    1.800789   -0.183981
     20          1           0       -6.463474    0.764454   -1.074717
     21          6           0        2.759931   -0.154116   -0.143283
     22          6           0        3.959675   -0.857023   -0.779303
     23          6           0        3.839657   -2.380853   -0.742797
     24          1           0        2.655437   -0.490290    0.897396
     25          1           0        1.843693   -0.463289   -0.665122
     26          1           0        4.873528   -0.545552   -0.257312
     27          1           0        4.061439   -0.518993   -1.818532
     28          1           0        2.944463   -2.709766   -1.280428
     29          1           0        3.761166   -2.736476    0.289662
     30          1           0        4.707912   -2.863077   -1.202635
     31          6           0        2.865264    1.369629   -0.172153
     32          6           0        1.665520    2.072535    0.463867
     33          6           0        1.785539    3.596365    0.427361
     34          1           0        3.781503    1.678800    0.349685
     35          1           0        2.969757    1.705802   -1.212832
     36          1           0        1.563756    1.734506    1.503096
     37          1           0        0.751667    1.761064   -0.058124
     38          1           0        1.864029    3.951987   -0.605099
     39          1           0        2.680732    3.925278    0.964991
     40          1           0        0.917282    4.078589    0.887198
 ---------------------------------------------------------------------

 SCF Done:  E(RHF) =  -470.731652141     A.U. after   11 cycles
 E2 =    -0.1585096015D+01 EUMP2 =    -0.47231674815625D+03

 The electronic state is 1-A.
 Alpha  occ. eigenvalues --  -11.21596 -11.21595 -11.21537 -11.21499 -11.21384
 Alpha  occ. eigenvalues --  -11.21378 -11.21317 -11.21313 -11.21071 -11.21070
 Alpha  occ. eigenvalues --  -11.21041 -11.20919  -1.08472  -1.08352  -1.03515
 Alpha  occ. eigenvalues --   -1.03485  -0.96003  -0.95902  -0.87015  -0.86923
 Alpha  occ. eigenvalues --   -0.79677  -0.79481  -0.78455  -0.78013  -0.65177
 Alpha  occ. eigenvalues --   -0.64930  -0.60929  -0.60883  -0.59406  -0.59272
 Alpha  occ. eigenvalues --   -0.57761  -0.57379  -0.55299  -0.55192  -0.52737
 Alpha  occ. eigenvalues --   -0.52612  -0.52503  -0.52206  -0.49932  -0.49862
 Alpha  occ. eigenvalues --   -0.48157  -0.47678  -0.46686  -0.46616  -0.46101
 Alpha  occ. eigenvalues --   -0.45774  -0.45602  -0.45127  -0.43764  -0.43701
 Alpha virt. eigenvalues --    0.21370   0.23198   0.23494   0.24404   0.24780
 Alpha virt. eigenvalues --    0.26243   0.27013   0.27780   0.27955   0.29719
 Alpha virt. eigenvalues --    0.30320   0.31020   0.31836   0.31998   0.32337

 Mulliken charges:
               1
     1  C   -0.297787
     2  C   -0.303242
     3  C   -0.480807
     4  H    0.149442
     5  H    0.148992
     6  H    0.154172
     7  H    0.153917
     8  H    0.154031
     9  H    0.154034
    10  H    0.166732
    11  C   -0.298350
    12  C   -0.299502
    13  C   -0.475682
    14  H    0.149571
    15  H    0.148707
    16  H    0.152046
    17  H    0.151876
    18  H    0.155019
    19  H    0.155182
    20  H    0.160247
    21  C   -0.304689
    22  C   -0.299065
    23  C   -0.476232
    24  H    0.150952
    25  H    0.155906
    26  H    0.151688
    27  H    0.151604
    28  H    0.155470
    29  H    0.155351
    30  H    0.160305
    31  C   -0.297825
    32  C   -0.302402
    33  C   -0.475614
    34  H    0.149100
    35  H    0.149058
    36  H    0.151406
    37  H    0.156614
    38  H    0.154908
    39  H    0.154844
    40  H    0.160025
 Sum of Mulliken charges =  -0.00000

 Dipole moment (field-independent basis, Debye):
    X=              0.0183    Y=              0.0035    Z=             -0.0015  Tot=              0.0187
 Quadrupole moment (field-independent basis, Debye-Ang):
   XX=            -85.1247   YY=            -86.7392   ZZ=            -83.1754
   XY=              0.4314   XZ=             -0.0284   YZ=              0.5403

 Normal termination of Gaussian 16 at Thu May  6 00:50:38 2021.
