 Gaussian 16, Revision A.03,
 Gaussian 16:  EM64L-G16RevA.03 25-Dec-2016

 -------------
 #p 6-31g* mp2
 -------------

 ------------------------------------------------------
 Input file generated by CHIRIPA (05-May-2021 14:51:14)
 ------------------------------------------------------
 Symbolic Z-matrix:
 Charge =  0 Multiplicity = 1

                         Standard orientation:
 ---------------------------------------------------------------------
 Center     Atomic      Atomic             Coordinates (Angstroms)
 Number     Number       Type             X           Y           Z
 ---------------------------------------------------------------------
      1          6           0       -2.650038   -0.639038    0.938053
      2          6           0       -1.157752   -0.567015    1.263444
      3          6           0       -0.759693   -1.485602    2.419100
      4          1           0       -3.227467   -0.374278    1.834391
      5          1           0       -2.914663   -1.676483    0.690915
      6          1           0       -0.895740    0.470236    1.508548
      7          1           0       -0.583806   -0.831792    0.366173
      8          1           0       -0.992942   -2.528285    2.180337
      9          1           0       -1.306649   -1.218860    3.329203
     10          1           0        0.311188   -1.418346    2.634857
     11          6           0       -3.063381    0.273700   -0.215111
     12          6           0       -4.555667    0.201676   -0.540502
     13          6           0       -4.953726    1.120263   -1.696158
     14          1           0       -2.798756    1.311144    0.032027
     15          1           0       -2.485952    0.008940   -1.111449
     16          1           0       -5.129613    0.466453    0.356769
     17          1           0       -4.817679   -0.835575   -0.785606
     18          1           0       -4.406770    0.853521   -2.606261
     19          1           0       -4.720477    2.162946   -1.457395
     20          1           0       -6.024607    1.053007   -1.911915
     21          6           0        2.570916    0.774466    0.027798
     22          6           0        3.377902    2.061468   -0.146516
     23          6           0        2.793694    3.236415    0.638338
     24          1           0        1.535198    0.952419   -0.292461
     25          1           0        2.528318    0.518415    1.095514
     26          1           0        3.420136    2.314264   -1.213721
     27          1           0        4.411867    1.880378    0.174015
     28          1           0        2.766728    3.009158    1.708959
     29          1           0        1.769362    3.445509    0.313337
     30          1           0        3.386071    4.146172    0.499445
     31          6           0        3.142502   -0.409128   -0.750739
     32          6           0        2.335517   -1.696130   -0.576427
     33          6           0        2.919725   -2.871076   -1.361280
     34          1           0        3.185101   -0.153076   -1.818456
     35          1           0        4.178221   -0.587079   -0.430481
     36          1           0        1.301552   -1.515038   -0.896957
     37          1           0        2.293284   -1.948925    0.490779
     38          1           0        3.944056   -3.080171   -1.036279
     39          1           0        2.946690   -2.643819   -2.431901
     40          1           0        2.327349   -3.780833   -1.222387
 ---------------------------------------------------------------------

 SCF Done:  E(RHF) =  -470.732885120     A.U. after   11 cycles
 E2 =    -0.1583908908D+01 EUMP2 =    -0.47231679402840D+03

 The electronic state is 1-A.
 Alpha  occ. eigenvalues --  -11.21612 -11.21602 -11.21591 -11.21484 -11.21397
 Alpha  occ. eigenvalues --  -11.21393 -11.21326 -11.21317 -11.21090 -11.21078
 Alpha  occ. eigenvalues --  -11.21070 -11.21023  -1.08456  -1.08382  -1.03550
 Alpha  occ. eigenvalues --   -1.03484  -0.95983  -0.95954  -0.87001  -0.86971
 Alpha  occ. eigenvalues --   -0.79644  -0.79550  -0.78400  -0.78050  -0.65122
 Alpha  occ. eigenvalues --   -0.64987  -0.60997  -0.60853  -0.59414  -0.59261
 Alpha  occ. eigenvalues --   -0.57614  -0.57543  -0.55269  -0.55245  -0.52703
 Alpha  occ. eigenvalues --   -0.52627  -0.52414  -0.52376  -0.49965  -0.49869
 Alpha  occ. eigenvalues --   -0.48018  -0.47905  -0.46811  -0.46472  -0.46104
 Alpha  occ. eigenvalues --   -0.45725  -0.45674  -0.45188  -0.43784  -0.43746
 Alpha virt. eigenvalues --    0.21047   0.23174   0.23697   0.24201   0.24719
 Alpha virt. eigenvalues --    0.26164   0.26787   0.27901   0.28583   0.29557
 Alpha virt. eigenvalues --    0.30311   0.31280   0.31761   0.31864   0.32115

 Mulliken charges:
               1
     1  C   -0.297944
     2  C   -0.306722
     3  C   -0.476297
     4  H    0.149367
     5  H    0.149086
     6  H    0.152479
     7  H    0.160104
     8  H    0.154711
     9  H    0.154653
    10  H    0.160686
    11  C   -0.298135
    12  C   -0.299535
    13  C   -0.475709
    14  H    0.149343
    15  H    0.148441
    16  H    0.152107
    17  H    0.151950
    18  H    0.154977
    19  H    0.155138
    20  H    0.160306
    21  C   -0.300872
    22  C   -0.299691
    23  C   -0.475696
    24  H    0.153505
    25  H    0.149603
    26  H    0.151849
    27  H    0.151776
    28  H    0.155042
    29  H    0.155122
    30  H    0.160242
    31  C   -0.298324
    32  C   -0.304977
    33  C   -0.475170
    34  H    0.149239
    35  H    0.149529
    36  H    0.155249
    37  H    0.154108
    38  H    0.155298
    39  H    0.155020
    40  H    0.160144
 Sum of Mulliken charges =  -0.00000

 Dipole moment (field-independent basis, Debye):
    X=              0.0194    Y=             -0.0025    Z=             -0.0075  Tot=              0.0210
 Quadrupole moment (field-independent basis, Debye-Ang):
   XX=            -84.8029   YY=            -85.4432   ZZ=            -84.6663
   XY=              0.2436   XZ=              0.1581   YZ=              0.3318

 Normal termination of Gaussian 16 at Thu May  6 04:00:33 2021.
