 Gaussian 16, Revision A.03,
 Gaussian 16:  EM64L-G16RevA.03 25-Dec-2016

 -------------
 #p 6-31g* mp2
 -------------

 ------------------------------------------------------
 Input file generated by CHIRIPA (05-May-2021 14:53:12)
 ------------------------------------------------------
 Symbolic Z-matrix:
 Charge =  0 Multiplicity = 1

                         Standard orientation:
 ---------------------------------------------------------------------
 Center     Atomic      Atomic             Coordinates (Angstroms)
 Number     Number       Type             X           Y           Z
 ---------------------------------------------------------------------
      1          6           0        3.334095    0.996338   -0.208215
      2          6           0        2.938366    2.021808    0.854703
      3          6           0        1.817241    2.951973    0.390304
      4          1           0        3.647506    1.524304   -1.119243
      5          1           0        2.451412    0.401007   -0.479959
      6          1           0        3.821847    2.614108    1.125365
      7          1           0        2.626044    1.491343    1.763371
      8          1           0        0.919636    2.377794    0.138855
      9          1           0        2.122234    3.506939   -0.502776
     10          1           0        1.550124    3.676958    1.165484
     11          6           0        4.453739    0.059251    0.241222
     12          6           0        4.849468   -0.966219   -0.821696
     13          6           0        5.970593   -1.896383   -0.357297
     14          1           0        5.336422    0.654583    0.512966
     15          1           0        4.140328   -0.468715    1.152249
     16          1           0        5.161790   -0.435754   -1.730364
     17          1           0        3.965987   -1.558519   -1.092358
     18          1           0        5.665600   -2.451350    0.535783
     19          1           0        6.868197   -1.322205   -0.105848
     20          1           0        6.237710   -2.621369   -1.132477
     21          6           0       -1.035831   -1.873743    0.439893
     22          6           0       -2.326606   -2.380142    0.624227
     23          6           0       -3.445537   -1.579436    0.376416
     24          6           0       -3.236083   -0.271056   -0.056667
     25          6           0       -1.962684    0.262335   -0.249635
     26          6           0       -0.858302   -0.556443    0.004319
     27          1           0       -0.172269   -2.502770    0.634784
     28          1           0       -2.467490   -3.402798    0.962417
     29          1           0       -4.455958   -1.946016    0.510904
     30          1           0       -1.853993    1.285743   -0.587629
     31          1           0        0.142963   -0.160498   -0.139699
     32          7           0       -4.412944    0.586180   -0.322264
     33          8           0       -4.201612    1.735510   -0.703078
     34          8           0       -5.524418    0.092523   -0.144598
 ---------------------------------------------------------------------

 SCF Done:  E(RHF) =  -669.535218871     A.U. after   15 cycles
 E2 =    -0.2091866083D+01 EUMP2 =    -0.67162708495411D+03

 The electronic state is 1-A.
 Alpha  occ. eigenvalues --  -20.60739 -20.60734 -15.85792 -11.31166 -11.27739
 Alpha  occ. eigenvalues --  -11.27731 -11.27485 -11.26758 -11.26726 -11.22461
 Alpha  occ. eigenvalues --  -11.22394 -11.22376 -11.22215 -11.21912 -11.21728
 Alpha  occ. eigenvalues --   -1.59814  -1.39367  -1.19340  -1.09313  -1.08735
 Alpha  occ. eigenvalues --   -1.04749  -1.04338  -0.96790  -0.95568  -0.87800
 Alpha  occ. eigenvalues --   -0.86148  -0.82406  -0.80396  -0.79134  -0.77446
 Alpha  occ. eigenvalues --   -0.72011  -0.71137  -0.70454  -0.66029  -0.64995
 Alpha  occ. eigenvalues --   -0.64724  -0.62199  -0.61632  -0.60142  -0.58393
 Alpha  occ. eigenvalues --   -0.56101  -0.55252  -0.53441  -0.53223  -0.53068
 Alpha  occ. eigenvalues --   -0.52848  -0.50746  -0.48789  -0.48765  -0.48689
 Alpha  occ. eigenvalues --   -0.47434  -0.46645  -0.46587  -0.44771  -0.44608
 Alpha  occ. eigenvalues --   -0.37324  -0.36345
 Alpha virt. eigenvalues --    0.05082   0.11299   0.16531   0.18484   0.22621
 Alpha virt. eigenvalues --    0.23523   0.25121   0.25612   0.26477   0.28384
 Alpha virt. eigenvalues --    0.29158   0.30333   0.31064   0.31320   0.31445

 Mulliken charges:
               1
     1  C   -0.303578
     2  C   -0.301620
     3  C   -0.476316
     4  H    0.154995
     5  H    0.141070
     6  H    0.156914
     7  H    0.152271
     8  H    0.145942
     9  H    0.159562
    10  H    0.166872
    11  C   -0.298389
    12  C   -0.299544
    13  C   -0.476082
    14  H    0.153667
    15  H    0.148317
    16  H    0.154829
    17  H    0.147824
    18  H    0.154486
    19  H    0.157513
    20  H    0.162243
    21  C   -0.173685
    22  C   -0.218519
    23  C   -0.171075
    24  C    0.159217
    25  C   -0.174885
    26  C   -0.228612
    27  H    0.225444
    28  H    0.223337
    29  H    0.275566
    30  H    0.277047
    31  H    0.237948
    32  N    0.488067
    33  O   -0.460142
    34  O   -0.460681
 Sum of Mulliken charges =  -0.00000

 Dipole moment (field-independent basis, Debye):
    X=              4.3766    Y=             -2.9143    Z=              0.9595  Tot=              5.3450
 Quadrupole moment (field-independent basis, Debye-Ang):
   XX=           -119.2488   YY=            -90.1943   ZZ=            -95.2272
   XY=             12.7280   XZ=             -4.5954   YZ=             -1.2612

 Normal termination of Gaussian 16 at Thu May  6 08:48:44 2021.
