 Gaussian 16, Revision A.03,
 Gaussian 16:  EM64L-G16RevA.03 25-Dec-2016

 -------------
 #p 6-31g* mp2
 -------------

 ------------------------------------------------------
 Input file generated by CHIRIPA (05-May-2021 14:55:19)
 ------------------------------------------------------
 Symbolic Z-matrix:
 Charge =  0 Multiplicity = 1

                         Standard orientation:
 ---------------------------------------------------------------------
 Center     Atomic      Atomic             Coordinates (Angstroms)
 Number     Number       Type             X           Y           Z
 ---------------------------------------------------------------------
      1          6           0        0.189054   -1.582562    0.610118
      2          6           0        0.440837   -0.290618    1.083412
      3          6           0        1.667844    0.330801    0.832734
      4          6           0        2.624763   -0.371947    0.102158
      5          6           0        2.403880   -1.660095   -0.382791
      6          6           0        1.169651   -2.261979   -0.120186
      7          1           0       -0.766920   -2.057708    0.809484
      8          1           0       -0.318851    0.239415    1.650849
      9          1           0        1.889214    1.330140    1.187324
     10          1           0        3.180737   -2.163288   -0.945559
     11          1           0        0.976886   -3.265408   -0.488991
     12          7           0        3.927563    0.275581   -0.169538
     13          8           0        4.754094   -0.364791   -0.815609
     14          8           0        4.097499    1.411224    0.268723
     15          6           0       -3.206996   -0.087860   -0.466892
     16          6           0       -4.289300   -0.860625    0.287719
     17          6           0       -4.522186   -2.260326   -0.281839
     18          1           0       -3.490285   -0.011996   -1.525636
     19          1           0       -2.268650   -0.658696   -0.434531
     20          1           0       -5.224969   -0.287845    0.255125
     21          1           0       -4.003495   -0.934493    1.344825
     22          1           0       -3.603081   -2.853296   -0.234585
     23          1           0       -4.831496   -2.202975   -1.330476
     24          1           0       -5.299785   -2.795052    0.272477
     25          6           0       -2.962721    1.313249    0.090736
     26          6           0       -1.880417    2.086014   -0.663875
     27          6           0       -1.647531    3.485715   -0.094318
     28          1           0       -3.901067    1.884085    0.058374
     29          1           0       -2.679433    1.237386    1.149478
     30          1           0       -2.166224    2.159882   -1.720982
     31          1           0       -0.944749    1.513234   -0.631282
     32          1           0       -1.338221    3.428365    0.954320
     33          1           0       -2.566636    4.078686   -0.141573
     34          1           0       -0.869932    4.020441   -0.648634
 ---------------------------------------------------------------------

 SCF Done:  E(RHF) =  -669.533609877     A.U. after   15 cycles
 E2 =    -0.2095283679D+01 EUMP2 =    -0.67162889355630D+03

 The electronic state is 1-A.
 Alpha  occ. eigenvalues --  -20.60829 -20.60823 -15.85883 -11.31290 -11.27848
 Alpha  occ. eigenvalues --  -11.27844 -11.27580 -11.26876 -11.26859 -11.22524
 Alpha  occ. eigenvalues --  -11.22246 -11.22180 -11.22062 -11.22026 -11.21589
 Alpha  occ. eigenvalues --   -1.59903  -1.39455  -1.19473  -1.09282  -1.08839
 Alpha  occ. eigenvalues --   -1.04884  -1.04285  -0.96757  -0.95686  -0.87767
 Alpha  occ. eigenvalues --   -0.86272  -0.82522  -0.80342  -0.79056  -0.77556
 Alpha  occ. eigenvalues --   -0.72101  -0.71226  -0.70617  -0.66124  -0.65118
 Alpha  occ. eigenvalues --   -0.64710  -0.62271  -0.61639  -0.60111  -0.58340
 Alpha  occ. eigenvalues --   -0.56092  -0.55383  -0.53444  -0.53200  -0.53158
 Alpha  occ. eigenvalues --   -0.52961  -0.50709  -0.48866  -0.48853  -0.48647
 Alpha  occ. eigenvalues --   -0.47409  -0.46578  -0.46508  -0.44851  -0.44541
 Alpha  occ. eigenvalues --   -0.37376  -0.36402
 Alpha virt. eigenvalues --    0.04918   0.11098   0.16242   0.18426   0.21935
 Alpha virt. eigenvalues --    0.23697   0.25358   0.26262   0.27281   0.28353
 Alpha virt. eigenvalues --    0.29613   0.30072   0.31103   0.31794   0.32458

 Mulliken charges:
               1
     1  C   -0.173324
     2  C   -0.219249
     3  C   -0.172251
     4  C    0.159210
     5  C   -0.170729
     6  C   -0.220113
     7  H    0.228999
     8  H    0.229625
     9  H    0.276844
    10  H    0.276095
    11  H    0.224276
    12  N    0.488033
    13  O   -0.460074
    14  O   -0.459947
    15  C   -0.305799
    16  C   -0.300991
    17  C   -0.474855
    18  H    0.154585
    19  H    0.148979
    20  H    0.156790
    21  H    0.147030
    22  H    0.146729
    23  H    0.159574
    24  H    0.163760
    25  C   -0.299626
    26  C   -0.309185
    27  C   -0.475908
    28  H    0.154280
    29  H    0.139938
    30  H    0.155252
    31  H    0.159939
    32  H    0.148845
    33  H    0.157419
    34  H    0.165851
 Sum of Mulliken charges =  -0.00000

 Dipole moment (field-independent basis, Debye):
    X=             -4.6042    Y=             -2.2508    Z=              0.8384  Tot=              5.1930
 Quadrupole moment (field-independent basis, Debye-Ang):
   XX=           -118.1102   YY=            -90.7343   ZZ=            -93.6449
   XY=             -6.3340   XZ=              1.9153   YZ=              1.0755

 Normal termination of Gaussian 16 at Thu May  6 01:18:21 2021.
