 Gaussian 16, Revision A.03,
 Gaussian 16:  EM64L-G16RevA.03 25-Dec-2016

 -------------
 #p 6-31g* mp2
 -------------

 ------------------------------------------------------
 Input file generated by CHIRIPA (05-May-2021 14:57:24)
 ------------------------------------------------------
 Symbolic Z-matrix:
 Charge =  0 Multiplicity = 1

                         Standard orientation:
 ---------------------------------------------------------------------
 Center     Atomic      Atomic             Coordinates (Angstroms)
 Number     Number       Type             X           Y           Z
 ---------------------------------------------------------------------
      1          6           0        3.337325    2.429230   -0.527244
      2          6           0        2.761737    2.107411    0.706308
      3          6           0        2.613024    0.772366    1.093720
      4          6           0        3.052861   -0.219999    0.219051
      5          6           0        3.630253    0.068687   -1.016493
      6          6           0        3.768985    1.410636   -1.383199
      7          1           0        3.448972    3.469006   -0.820153
      8          1           0        2.425601    2.896385    1.373075
      9          1           0        2.170881    0.495033    2.042937
     10          1           0        3.955815   -0.739714   -1.659856
     11          1           0        4.216357    1.657610   -2.341795
     12          7           0        2.900709   -1.637006    0.618227
     13          8           0        3.296240   -2.492780   -0.170343
     14          8           0        2.388801   -1.865050    1.712111
     15          6           0       -5.531344    0.368269    0.295005
     16          6           0       -5.117707   -0.761038   -0.419202
     17          6           0       -3.760958   -0.982734   -0.673425
     18          6           0       -2.840752   -0.050453   -0.196600
     19          6           0       -3.221598    1.084304    0.517945
     20          6           0       -4.583641    1.285718    0.760478
     21          1           0       -6.587355    0.532610    0.487951
     22          1           0       -5.851486   -1.475224   -0.781904
     23          1           0       -3.413142   -1.848535   -1.223726
     24          1           0       -2.466728    1.778500    0.866772
     25          1           0       -4.901984    2.163641    1.315415
     26          7           0       -1.401620   -0.274417   -0.459546
     27          8           0       -0.610678    0.561902   -0.028714
     28          8           0       -1.091822   -1.282038   -1.091498
 ---------------------------------------------------------------------

 SCF Done:  E(RHF) =  -868.337754818     A.U. after   16 cycles
 E2 =    -0.2600300743D+01 EUMP2 =    -0.87093805556079D+03

 The electronic state is 1-A.
 Alpha  occ. eigenvalues --  -20.60853 -20.60802 -20.59351 -20.59339 -15.85867
 Alpha  occ. eigenvalues --  -15.84404 -11.31226 -11.29638 -11.27831 -11.27765
 Alpha  occ. eigenvalues --  -11.27540 -11.26832 -11.26788 -11.26309 -11.26280
 Alpha  occ. eigenvalues --  -11.26132 -11.25353 -11.25321  -1.59894  -1.58406
 Alpha  occ. eigenvalues --   -1.39450  -1.37974  -1.19399  -1.17850  -1.08796
 Alpha  occ. eigenvalues --   -1.07298  -1.04805  -1.03293  -0.95634  -0.94152
 Alpha  occ. eigenvalues --   -0.86203  -0.84721  -0.82470  -0.81018  -0.77519
 Alpha  occ. eigenvalues --   -0.76045  -0.72102  -0.71202  -0.70660  -0.70513
 Alpha  occ. eigenvalues --   -0.69679  -0.69085  -0.65057  -0.64812  -0.63572
 Alpha  occ. eigenvalues --   -0.63382  -0.62156  -0.60690  -0.55310  -0.53898
 Alpha  occ. eigenvalues --   -0.53129  -0.52903  -0.51593  -0.51460  -0.48848
 Alpha  occ. eigenvalues --   -0.48806  -0.47397  -0.47397  -0.44856  -0.43415
 Alpha  occ. eigenvalues --   -0.37377  -0.36406  -0.35826  -0.34807
 Alpha virt. eigenvalues --    0.05017   0.06553   0.11249   0.12814   0.16526
 Alpha virt. eigenvalues --    0.18013   0.21371   0.22613   0.27269   0.28238
 Alpha virt. eigenvalues --    0.28509   0.29515   0.30923   0.32076   0.32481

 Mulliken charges:
               1
     1  C   -0.170068
     2  C   -0.215895
     3  C   -0.150354
     4  C    0.166884
     5  C   -0.168039
     6  C   -0.219131
     7  H    0.218530
     8  H    0.215206
     9  H    0.270431
    10  H    0.272021
    11  H    0.217198
    12  N    0.490886
    13  O   -0.463662
    14  O   -0.465268
    15  C   -0.170685
    16  C   -0.218447
    17  C   -0.169975
    18  C    0.159204
    19  C   -0.170701
    20  C   -0.218362
    21  H    0.225714
    22  H    0.224292
    23  H    0.277708
    24  H    0.271889
    25  H    0.222456
    26  N    0.490880
    27  O   -0.467452
    28  O   -0.455261
 Sum of Mulliken charges =  -0.00000

 Dipole moment (field-independent basis, Debye):
    X=             -4.8358    Y=              5.5993    Z=             -0.5074  Tot=              7.4158
 Quadrupole moment (field-independent basis, Debye-Ang):
   XX=            -73.7925   YY=           -104.4978   ZZ=           -102.0059
   XY=             13.4621   XZ=             -7.2158   YZ=              5.2481

 Normal termination of Gaussian 16 at Thu May  6 09:48:43 2021.
