 Gaussian 16, Revision A.03,
 Gaussian 16:  EM64L-G16RevA.03 25-Dec-2016

 -------------
 #p 6-31g* mp2
 -------------

 ------------------------------------------------------
 Input file generated by CHIRIPA (05-May-2021 14:53:14)
 ------------------------------------------------------
 Symbolic Z-matrix:
 Charge =  0 Multiplicity = 1

                         Standard orientation:
 ---------------------------------------------------------------------
 Center     Atomic      Atomic             Coordinates (Angstroms)
 Number     Number       Type             X           Y           Z
 ---------------------------------------------------------------------
      1          6           0       -4.326716   -0.190956   -0.119212
      2          6           0       -4.068797   -1.677537    0.128865
      3          6           0       -5.350968   -2.460677    0.412630
      4          1           0       -4.833806    0.237743    0.756015
      5          1           0       -5.018786   -0.082299   -0.965751
      6          1           0       -3.376334   -1.783315    0.973804
      7          1           0       -3.562091   -2.102704   -0.746976
      8          1           0       -6.043576   -2.384844   -0.431849
      9          1           0       -5.856764   -2.063641    1.298708
     10          1           0       -5.143451   -3.521043    0.587040
     11          6           0       -3.054549    0.605301   -0.404332
     12          6           0       -3.312469    2.091881   -0.652408
     13          6           0       -2.030297    2.875021   -0.936173
     14          1           0       -2.362479    0.496644    0.442207
     15          1           0       -2.547460    0.176602   -1.279559
     16          1           0       -3.819175    2.517048    0.223433
     17          1           0       -4.004931    2.197660   -1.497348
     18          1           0       -1.524502    2.477986   -1.822252
     19          1           0       -1.337690    2.799188   -0.091694
     20          1           0       -2.237815    3.935388   -1.110583
     21          6           0        4.771816   -0.863295   -1.314516
     22          6           0        3.444806   -1.049395   -1.715680
     23          6           0        2.390453   -0.664509   -0.882161
     24          6           0        2.700733   -0.094041    0.351363
     25          6           0        4.012498    0.104451    0.779341
     26          6           0        5.050934   -0.287980   -0.070479
     27          1           0        5.584680   -1.165214   -1.968345
     28          1           0        3.225061   -1.495940   -2.681265
     29          1           0        1.353978   -0.797046   -1.167767
     30          1           0        4.200180    0.552250    1.747674
     31          1           0        6.080549   -0.142243    0.243685
     32          7           0        1.592962    0.317414    1.242400
     33          8           0        1.892801    0.817751    2.324249
     34          8           0        0.445827    0.131786    0.842075
 ---------------------------------------------------------------------

 SCF Done:  E(RHF) =  -669.536222693     A.U. after   15 cycles
 E2 =    -0.2091274279D+01 EUMP2 =    -0.67162749697142D+03

 The electronic state is 1-A.
 Alpha  occ. eigenvalues --  -20.60957 -20.60945 -15.85984 -11.31285 -11.27849
 Alpha  occ. eigenvalues --  -11.27841 -11.27586 -11.26853 -11.26843 -11.20805
 Alpha  occ. eigenvalues --  -11.20610 -11.20467 -11.20450 -11.20100 -11.20069
 Alpha  occ. eigenvalues --   -1.60015  -1.39570  -1.19453  -1.08863  -1.07447
 Alpha  occ. eigenvalues --   -1.04847  -1.02636  -0.95708  -0.95079  -0.86248
 Alpha  occ. eigenvalues --   -0.86101  -0.82545  -0.78712  -0.77619  -0.77191
 Alpha  occ. eigenvalues --   -0.72207  -0.71324  -0.70563  -0.65111  -0.64852
 Alpha  occ. eigenvalues --   -0.64074  -0.62194  -0.60039  -0.58457  -0.56687
 Alpha  occ. eigenvalues --   -0.55355  -0.54361  -0.53180  -0.52939  -0.51827
 Alpha  occ. eigenvalues --   -0.51499  -0.49049  -0.48966  -0.48951  -0.47030
 Alpha  occ. eigenvalues --   -0.45749  -0.45023  -0.44792  -0.44538  -0.42858
 Alpha  occ. eigenvalues --   -0.37432  -0.36447
 Alpha virt. eigenvalues --    0.04923   0.11208   0.16416   0.21274   0.23773
 Alpha virt. eigenvalues --    0.25104   0.27021   0.27657   0.27893   0.28775
 Alpha virt. eigenvalues --    0.28966   0.30969   0.32122   0.32392   0.32733

 Mulliken charges:
               1
     1  C   -0.297638
     2  C   -0.299053
     3  C   -0.475083
     4  H    0.148616
     5  H    0.144300
     6  H    0.157850
     7  H    0.147187
     8  H    0.152628
     9  H    0.154944
    10  H    0.157487
    11  C   -0.305880
    12  C   -0.298475
    13  C   -0.476413
    14  H    0.179022
    15  H    0.140588
    16  H    0.150785
    17  H    0.145687
    18  H    0.147857
    19  H    0.167802
    20  H    0.154326
    21  C   -0.170517
    22  C   -0.218587
    23  C   -0.170654
    24  C    0.157574
    25  C   -0.170466
    26  C   -0.218643
    27  H    0.225973
    28  H    0.223829
    29  H    0.276373
    30  H    0.275764
    31  H    0.223760
    32  N    0.493783
    33  O   -0.459469
    34  O   -0.465259
 Sum of Mulliken charges =  -0.00000

 Dipole moment (field-independent basis, Debye):
    X=              4.2057    Y=             -1.4681    Z=             -2.9478  Tot=              5.3416
 Quadrupole moment (field-independent basis, Debye-Ang):
   XX=            -73.5942   YY=            -95.7978   ZZ=            -94.2606
   XY=             -3.7730   XZ=             -4.9763   YZ=              1.7439

 Normal termination of Gaussian 16 at Wed May  5 23:28:41 2021.
