 Gaussian 16, Revision A.03,
 Gaussian 16:  EM64L-G16RevA.03 25-Dec-2016

 -------------
 #p 6-31g* mp2
 -------------

 ------------------------------------------------------
 Input file generated by CHIRIPA (05-May-2021 14:55:23)
 ------------------------------------------------------
 Symbolic Z-matrix:
 Charge =  0 Multiplicity = 1

                         Standard orientation:
 ---------------------------------------------------------------------
 Center     Atomic      Atomic             Coordinates (Angstroms)
 Number     Number       Type             X           Y           Z
 ---------------------------------------------------------------------
      1          6           0       -4.899738   -1.478319    0.510428
      2          6           0       -4.854180   -0.280978    1.232108
      3          6           0       -3.911959    0.702597    0.916913
      4          6           0       -3.026441    0.454536   -0.130757
      5          6           0       -3.046768   -0.728169   -0.868379
      6          6           0       -3.997478   -1.697706   -0.535667
      7          1           0       -5.634975   -2.236931    0.762082
      8          1           0       -5.553646   -0.107873    2.045020
      9          1           0       -3.854573    1.638569    1.459206
     10          1           0       -2.336420   -0.871999   -1.673448
     11          1           0       -4.030541   -2.626630   -1.097853
     12          7           0       -2.024461    1.488373   -0.473711
     13          8           0       -1.255366    1.245574   -1.401170
     14          8           0       -2.027176    2.521916    0.191433
     15          6           0        3.390083   -0.411611    0.407940
     16          6           0        2.309952   -0.855076   -0.579299
     17          6           0        0.924756   -0.946190    0.061579
     18          1           0        3.419793   -1.116443    1.250124
     19          1           0        3.114314    0.565657    0.827814
     20          1           0        2.588364   -1.830579   -0.998223
     21          1           0        2.282940   -0.149214   -1.419326
     22          1           0        0.621698    0.025894    0.463833
     23          1           0        0.928858   -1.665024    0.887328
     24          1           0        0.167859   -1.264877   -0.661888
     25          6           0        4.780361   -0.315807   -0.217901
     26          6           0        5.860493    0.127659    0.769338
     27          6           0        7.245688    0.218773    0.128460
     28          1           0        5.056131   -1.293074   -0.637774
     29          1           0        4.750651    0.389025   -1.060085
     30          1           0        5.887505   -0.578203    1.609365
     31          1           0        5.582080    1.103162    1.188262
     32          1           0        7.241586    0.937607   -0.697289
     33          1           0        7.548747   -0.753312   -0.273794
     34          1           0        8.002586    0.537460    0.851928
 ---------------------------------------------------------------------

 SCF Done:  E(RHF) =  -669.535378170     A.U. after   15 cycles
 E2 =    -0.2092249677D+01 EUMP2 =    -0.67162762784735D+03

 The electronic state is 1-A.
 Alpha  occ. eigenvalues --  -20.60853 -20.60833 -15.85867 -11.31213 -11.27784
 Alpha  occ. eigenvalues --  -11.27777 -11.27522 -11.26794 -11.26784 -11.21150
 Alpha  occ. eigenvalues --  -11.20894 -11.20855 -11.20744 -11.20684 -11.20363
 Alpha  occ. eigenvalues --   -1.59909  -1.39465  -1.19384  -1.08785  -1.07854
 Alpha  occ. eigenvalues --   -1.04786  -1.02955  -0.95638  -0.95410  -0.86459
 Alpha  occ. eigenvalues --   -0.86179  -0.82463  -0.79044  -0.77669  -0.77509
 Alpha  occ. eigenvalues --   -0.72107  -0.71237  -0.70501  -0.65044  -0.64796
 Alpha  occ. eigenvalues --   -0.64471  -0.62149  -0.60331  -0.58800  -0.57034
 Alpha  occ. eigenvalues --   -0.55293  -0.54696  -0.53121  -0.52898  -0.52120
 Alpha  occ. eigenvalues --   -0.51853  -0.49378  -0.48866  -0.48849  -0.47350
 Alpha  occ. eigenvalues --   -0.46085  -0.45221  -0.45143  -0.44753  -0.43198
 Alpha  occ. eigenvalues --   -0.37356  -0.36375
 Alpha virt. eigenvalues --    0.04994   0.11205   0.16493   0.21184   0.23447
 Alpha virt. eigenvalues --    0.24631   0.26802   0.27216   0.27794   0.28074
 Alpha virt. eigenvalues --    0.28944   0.30493   0.31472   0.31918   0.32355

 Mulliken charges:
               1
     1  C   -0.170557
     2  C   -0.218439
     3  C   -0.170952
     4  C    0.159543
     5  C   -0.169498
     6  C   -0.219006
     7  H    0.225699
     8  H    0.223518
     9  H    0.275549
    10  H    0.275446
    11  H    0.223562
    12  N    0.487753
    13  O   -0.457961
    14  O   -0.460470
    15  C   -0.299079
    16  C   -0.300044
    17  C   -0.472185
    18  H    0.146093
    19  H    0.153484
    20  H    0.146177
    21  H    0.161093
    22  H    0.161819
    23  H    0.146206
    24  H    0.154769
    25  C   -0.298203
    26  C   -0.299419
    27  C   -0.475470
    28  H    0.147207
    29  H    0.151528
    30  H    0.150259
    31  H    0.153007
    32  H    0.155666
    33  H    0.153907
    34  H    0.158997
 Sum of Mulliken charges =  -0.00000

 Dipole moment (field-independent basis, Debye):
    X=             -3.6619    Y=             -3.5060    Z=              1.1498  Tot=              5.1984
 Quadrupole moment (field-independent basis, Debye-Ang):
   XX=            -74.8759   YY=            -96.1173   ZZ=            -92.8870
   XY=              8.4929   XZ=             -4.6045   YZ=              3.3388

 Normal termination of Gaussian 16 at Wed May  5 16:01:19 2021.
