 Gaussian 16, Revision A.03,
 Gaussian 16:  EM64L-G16RevA.03 25-Dec-2016

 -------------
 #p 6-31g* mp2
 -------------

 ------------------------------------------------------
 Input file generated by CHIRIPA (05-May-2021 14:57:24)
 ------------------------------------------------------
 Symbolic Z-matrix:
 Charge =  0 Multiplicity = 1

                         Standard orientation:
 ---------------------------------------------------------------------
 Center     Atomic      Atomic             Coordinates (Angstroms)
 Number     Number       Type             X           Y           Z
 ---------------------------------------------------------------------
      1          6           0       -3.219626    2.415290   -0.327159
      2          6           0       -4.579503    2.165718   -0.115093
      3          6           0       -5.049804    0.855081    0.009787
      4          6           0       -4.128311   -0.186813   -0.082937
      5          6           0       -2.767418    0.029556   -0.293756
      6          6           0       -2.319511    1.348293   -0.415658
      7          1           0       -2.862984    3.436570   -0.423011
      8          1           0       -5.280827    2.992402   -0.045943
      9          1           0       -6.097267    0.633383    0.174374
     10          1           0       -2.092360   -0.815166   -0.358254
     11          1           0       -1.262857    1.539128   -0.580307
     12          7           0       -4.614343   -1.578613    0.047691
     13          8           0       -3.782195   -2.479095   -0.037744
     14          8           0       -5.818241   -1.742671    0.233038
     15          6           0        6.427320   -0.326598   -0.686150
     16          6           0        6.161083   -0.115292    0.670681
     17          6           0        4.846754    0.043394    1.120021
     18          6           0        3.818202   -0.015114    0.180900
     19          6           0        4.051306   -0.224243   -1.177488
     20          6           0        5.373439   -0.380304   -1.604285
     21          1           0        7.451354   -0.448851   -1.026452
     22          1           0        6.977556   -0.073121    1.385970
     23          1           0        4.612271    0.208215    2.164659
     24          1           0        3.216495   -0.261409   -1.866783
     25          1           0        5.577227   -0.544277   -2.658622
     26          7           0        2.422651    0.151491    0.644664
     27          8           0        1.534148    0.095830   -0.202746
     28          8           0        2.243744    0.334582    1.846789
 ---------------------------------------------------------------------

 SCF Done:  E(RHF) =  -868.340287427     A.U. after   16 cycles
 E2 =    -0.2598263904D+01 EUMP2 =    -0.87093855133047D+03

 The electronic state is 1-A.
 Alpha  occ. eigenvalues --  -20.61610 -20.61567 -20.59864 -20.59850 -15.86614
 Alpha  occ. eigenvalues --  -15.84902 -11.31722 -11.30081 -11.28267 -11.28248
 Alpha  occ. eigenvalues --  -11.27953 -11.27217 -11.27205 -11.26693 -11.26481
 Alpha  occ. eigenvalues --  -11.26353 -11.25717 -11.25401  -1.60644  -1.58938
 Alpha  occ. eigenvalues --   -1.40206  -1.38495  -1.19869  -1.18230  -1.09312
 Alpha  occ. eigenvalues --   -1.07676  -1.05233  -1.03570  -0.96190  -0.94539
 Alpha  occ. eigenvalues --   -0.86643  -0.84995  -0.83034  -0.81350  -0.78107
 Alpha  occ. eigenvalues --   -0.76412  -0.72850  -0.71941  -0.71129  -0.70974
 Alpha  occ. eigenvalues --   -0.70257  -0.69364  -0.65527  -0.65233  -0.63872
 Alpha  occ. eigenvalues --   -0.63550  -0.62583  -0.60893  -0.55742  -0.54139
 Alpha  occ. eigenvalues --   -0.53575  -0.53321  -0.51958  -0.51638  -0.49610
 Alpha  occ. eigenvalues --   -0.49566  -0.47890  -0.47867  -0.45664  -0.43941
 Alpha  occ. eigenvalues --   -0.37833  -0.36824  -0.36246  -0.35168
 Alpha virt. eigenvalues --    0.04399   0.06069   0.10835   0.12465   0.15938
 Alpha virt. eigenvalues --    0.17603   0.20991   0.22624   0.26928   0.27794
 Alpha virt. eigenvalues --    0.28675   0.29385   0.30598   0.31993   0.32281

 Mulliken charges:
               1
     1  C   -0.172217
     2  C   -0.218855
     3  C   -0.173259
     4  C    0.157665
     5  C   -0.171949
     6  C   -0.222539
     7  H    0.221958
     8  H    0.218761
     9  H    0.271604
    10  H    0.281747
    11  H    0.241287
    12  N    0.488091
    13  O   -0.460780
    14  O   -0.464547
    15  C   -0.169823
    16  C   -0.218544
    17  C   -0.170229
    18  C    0.157734
    19  C   -0.170505
    20  C   -0.218466
    21  H    0.227609
    22  H    0.225329
    23  H    0.276659
    24  H    0.274777
    25  H    0.225166
    26  N    0.490646
    27  O   -0.471746
    28  O   -0.455577
 Sum of Mulliken charges =  -0.00000

 Dipole moment (field-independent basis, Debye):
    X=              7.2551    Y=              4.2785    Z=             -2.0549  Tot=              8.6697
 Quadrupole moment (field-independent basis, Debye-Ang):
   XX=            -77.7200   YY=           -107.7948   ZZ=           -101.5964
   XY=            -24.5304   XZ=             -2.5639   YZ=              0.4966

 Normal termination of Gaussian 16 at Thu May  6 01:51:27 2021.
