 Gaussian 16, Revision A.03,
 Gaussian 16:  EM64L-G16RevA.03 25-Dec-2016

 -------------
 #p 6-31g* mp2
 -------------

 ------------------------------------------------------
 Input file generated by CHIRIPA (05-May-2021 14:51:09)
 ------------------------------------------------------
 Symbolic Z-matrix:
 Charge =  0 Multiplicity = 1

                         Standard orientation:
 ---------------------------------------------------------------------
 Center     Atomic      Atomic             Coordinates (Angstroms)
 Number     Number       Type             X           Y           Z
 ---------------------------------------------------------------------
      1          6           0        2.644748    1.550135   -0.039403
      2          6           0        1.364564    2.054771    0.627272
      3          6           0        1.276836    3.580898    0.659451
      4          1           0        3.513951    1.957615    0.494817
      5          1           0        2.695482    1.942942   -1.064354
      6          1           0        1.315575    1.660003    1.650196
      7          1           0        0.498307    1.645888    0.091519
      8          1           0        1.300421    3.989621   -0.355926
      9          1           0        2.122333    4.003815    1.211608
     10          1           0        0.353948    3.919925    1.140283
     11          6           0        2.746970    0.026425   -0.079204
     12          6           0        4.027154   -0.478211   -0.745879
     13          6           0        4.114882   -2.004338   -0.778059
     14          1           0        2.696236   -0.366382    0.945746
     15          1           0        1.877767   -0.381055   -0.613425
     16          1           0        4.893411   -0.069329   -0.210127
     17          1           0        4.076143   -0.083443   -1.768804
     18          1           0        3.269385   -2.427255   -1.330215
     19          1           0        4.091297   -2.413061    0.237318
     20          1           0        5.037770   -2.343365   -1.258891
     21          6           0       -2.999666   -0.298764   -0.442202
     22          6           0       -4.374829    0.222606   -0.023771
     23          6           0       -4.969602    1.200871   -1.037200
     24          1           0       -2.317504    0.551806   -0.576844
     25          1           0       -3.083894   -0.789951   -1.421506
     26          1           0       -4.288299    0.711447    0.955087
     27          1           0       -5.053745   -0.629318    0.110076
     28          1           0       -5.084743    0.720715   -2.014335
     29          1           0       -4.314949    2.069098   -1.164523
     30          1           0       -5.952649    1.561078   -0.718249
     31          6           0       -2.392052   -1.277795    0.560810
     32          6           0       -1.016888   -1.799166    0.142379
     33          6           0       -0.422116   -2.777431    1.155808
     34          1           0       -2.307824   -0.786609    1.540114
     35          1           0       -3.074214   -2.128367    0.695452
     36          1           0       -0.337973   -0.947242    0.008532
     37          1           0       -1.103419   -2.288007   -0.836478
     38          1           0       -1.076769   -3.645658    1.283131
     39          1           0       -0.306974   -2.297275    2.132943
     40          1           0        0.560932   -3.137638    0.836856
 ---------------------------------------------------------------------

 SCF Done:  E(RHF) =  -470.733110918     A.U. after   11 cycles
 E2 =    -0.1583953461D+01 EUMP2 =    -0.47231706437847D+03

 The electronic state is 1-A.
 Alpha  occ. eigenvalues --  -11.21687 -11.21621 -11.21596 -11.21509 -11.21437
 Alpha  occ. eigenvalues --  -11.21390 -11.21362 -11.21318 -11.21136 -11.21096
 Alpha  occ. eigenvalues --  -11.21069 -11.21007  -1.08489  -1.08391  -1.03577
 Alpha  occ. eigenvalues --   -1.03496  -0.96026  -0.95944  -0.87038  -0.86963
 Alpha  occ. eigenvalues --   -0.79643  -0.79580  -0.78408  -0.78109  -0.65202
 Alpha  occ. eigenvalues --   -0.64949  -0.60974  -0.60901  -0.59412  -0.59301
 Alpha  occ. eigenvalues --   -0.57667  -0.57530  -0.55323  -0.55221  -0.52726
 Alpha  occ. eigenvalues --   -0.52634  -0.52447  -0.52372  -0.49988  -0.49875
 Alpha  occ. eigenvalues --   -0.47963  -0.47917  -0.46790  -0.46689  -0.46138
 Alpha  occ. eigenvalues --   -0.45773  -0.45720  -0.45091  -0.43824  -0.43746
 Alpha virt. eigenvalues --    0.20545   0.22513   0.23699   0.24223   0.25185
 Alpha virt. eigenvalues --    0.26651   0.27206   0.27307   0.27824   0.29637
 Alpha virt. eigenvalues --    0.31273   0.31406   0.31591   0.31847   0.32514

 Mulliken charges:
               1
     1  C   -0.298096
     2  C   -0.304044
     3  C   -0.475617
     4  H    0.149909
     5  H    0.149512
     6  H    0.151978
     7  H    0.154712
     8  H    0.155464
     9  H    0.155659
    10  H    0.160148
    11  C   -0.304670
    12  C   -0.299145
    13  C   -0.476405
    14  H    0.150092
    15  H    0.156456
    16  H    0.151962
    17  H    0.151914
    18  H    0.155460
    19  H    0.155422
    20  H    0.160475
    21  C   -0.300206
    22  C   -0.299551
    23  C   -0.475744
    24  H    0.150303
    25  H    0.149365
    26  H    0.152034
    27  H    0.152075
    28  H    0.155095
    29  H    0.155123
    30  H    0.160275
    31  C   -0.297081
    32  C   -0.309292
    33  C   -0.475924
    34  H    0.149591
    35  H    0.149406
    36  H    0.162040
    37  H    0.150491
    38  H    0.154701
    39  H    0.154670
    40  H    0.161442
 Sum of Mulliken charges =  -0.00000

 Dipole moment (field-independent basis, Debye):
    X=              0.0389    Y=              0.0161    Z=             -0.0013  Tot=              0.0422
 Quadrupole moment (field-independent basis, Debye-Ang):
   XX=            -84.7224   YY=            -85.9216   ZZ=            -84.1313
   XY=              0.9724   XZ=              0.3092   YZ=              0.7597

 Normal termination of Gaussian 16 at Thu May  6 02:09:10 2021.
