 Gaussian 16, Revision A.03,
 Gaussian 16:  EM64L-G16RevA.03 25-Dec-2016

 -------------
 #p 6-31g* mp2
 -------------

 ------------------------------------------------------
 Input file generated by CHIRIPA (05-May-2021 14:51:13)
 ------------------------------------------------------
 Symbolic Z-matrix:
 Charge =  0 Multiplicity = 1

                         Standard orientation:
 ---------------------------------------------------------------------
 Center     Atomic      Atomic             Coordinates (Angstroms)
 Number     Number       Type             X           Y           Z
 ---------------------------------------------------------------------
      1          6           0        3.357318   -0.593284    0.150741
      2          6           0        3.772265    0.385991   -0.947814
      3          6           0        5.274011    0.673310   -0.947259
      4          1           0        3.653846   -0.186237    1.127127
      5          1           0        3.911496   -1.533434    0.022683
      6          1           0        3.216448    1.323527   -0.818542
      7          1           0        3.474544   -0.023346   -1.921684
      8          1           0        5.842879   -0.249673   -1.099223
      9          1           0        5.583317    1.104852    0.010187
     10          1           0        5.548684    1.375615   -1.740470
     11          6           0        1.858904   -0.890490    0.163037
     12          6           0        1.443958   -1.869765    1.261593
     13          6           0       -0.057789   -2.157084    1.261038
     14          1           0        1.304726    0.049661    0.291095
     15          1           0        1.562377   -1.297537   -0.813349
     16          1           0        1.741678   -1.460428    2.235462
     17          1           0        1.999774   -2.807300    1.132321
     18          1           0       -0.367094   -2.588626    0.303592
     19          1           0       -0.626656   -1.234101    1.413001
     20          1           0       -0.332461   -2.859389    2.054248
     21          6           0       -2.791663    0.236137   -0.699067
     22          6           0       -3.729304   -0.866887   -0.206974
     23          6           0       -4.087394   -1.870959   -1.303059
     24          1           0       -3.264098    0.762078   -1.539980
     25          1           0       -1.873447   -0.221368   -1.092720
     26          1           0       -4.644899   -0.407363    0.186902
     27          1           0       -3.254663   -1.390139    0.632990
     28          1           0       -3.185718   -2.356210   -1.690505
     29          1           0       -4.583854   -1.367850   -2.139127
     30          1           0       -4.758462   -2.650714   -0.929548
     31          6           0       -2.424559    1.247637    0.385289
     32          6           0       -1.486919    2.350660   -0.106805
     33          6           0       -1.128829    3.354733    0.989280
     34          1           0       -3.342776    1.705143    0.778941
     35          1           0       -1.952125    0.721695    1.226202
     36          1           0       -1.961559    2.873913   -0.946769
     37          1           0       -0.571324    1.891136   -0.500681
     38          1           0       -0.632369    2.851624    1.825349
     39          1           0       -2.030504    3.839984    1.376726
     40          1           0       -0.457760    4.134488    0.615770
 ---------------------------------------------------------------------

 SCF Done:  E(RHF) =  -470.732961625     A.U. after   11 cycles
 E2 =    -0.1584582946D+01 EUMP2 =    -0.47231754457174D+03

 The electronic state is 1-A.
 Alpha  occ. eigenvalues --  -11.21686 -11.21645 -11.21603 -11.21502 -11.21485
 Alpha  occ. eigenvalues --  -11.21418 -11.21376 -11.21289 -11.21147 -11.21103
 Alpha  occ. eigenvalues --  -11.21101 -11.21015  -1.08515  -1.08387  -1.03598
 Alpha  occ. eigenvalues --   -1.03498  -0.96060  -0.95947  -0.87074  -0.86966
 Alpha  occ. eigenvalues --   -0.79668  -0.79561  -0.78322  -0.78210  -0.65280
 Alpha  occ. eigenvalues --   -0.64928  -0.61031  -0.60869  -0.59412  -0.59321
 Alpha  occ. eigenvalues --   -0.57662  -0.57559  -0.55502  -0.55102  -0.52744
 Alpha  occ. eigenvalues --   -0.52660  -0.52467  -0.52367  -0.50015  -0.49895
 Alpha  occ. eigenvalues --   -0.48000  -0.47886  -0.46737  -0.46620  -0.46041
 Alpha  occ. eigenvalues --   -0.45800  -0.45580  -0.45441  -0.43850  -0.43750
 Alpha virt. eigenvalues --    0.19561   0.22415   0.23531   0.24812   0.25481
 Alpha virt. eigenvalues --    0.25816   0.26982   0.27604   0.28262   0.30347
 Alpha virt. eigenvalues --    0.30646   0.31085   0.31712   0.31853   0.32243

 Mulliken charges:
               1
     1  C   -0.298115
     2  C   -0.299919
     3  C   -0.475753
     4  H    0.149894
     5  H    0.149904
     6  H    0.152038
     7  H    0.152048
     8  H    0.155268
     9  H    0.155321
    10  H    0.160478
    11  C   -0.303444
    12  C   -0.299897
    13  C   -0.483496
    14  H    0.153715
    15  H    0.149587
    16  H    0.152054
    17  H    0.152447
    18  H    0.155807
    19  H    0.162481
    20  H    0.160713
    21  C   -0.299793
    22  C   -0.302498
    23  C   -0.475709
    24  H    0.149508
    25  H    0.152072
    26  H    0.151200
    27  H    0.156604
    28  H    0.154805
    29  H    0.154795
    30  H    0.160075
    31  C   -0.302715
    32  C   -0.303665
    33  C   -0.475749
    34  H    0.150008
    35  H    0.152188
    36  H    0.152446
    37  H    0.155203
    38  H    0.154294
    39  H    0.155595
    40  H    0.160207
 Sum of Mulliken charges =  -0.00000

 Dipole moment (field-independent basis, Debye):
    X=              0.0288    Y=             -0.0149    Z=              0.0074  Tot=              0.0333
 Quadrupole moment (field-independent basis, Debye-Ang):
   XX=            -85.3688   YY=            -84.5961   ZZ=            -84.7913
   XY=             -1.1956   XZ=             -0.0250   YZ=             -0.1943

 Normal termination of Gaussian 16 at Wed May  5 19:57:43 2021.
