 Gaussian 16, Revision A.03,
 Gaussian 16:  EM64L-G16RevA.03 25-Dec-2016

 -------------
 #p 6-31g* mp2
 -------------

 ------------------------------------------------------
 Input file generated by CHIRIPA (05-May-2021 14:57:24)
 ------------------------------------------------------
 Symbolic Z-matrix:
 Charge =  0 Multiplicity = 1

                         Standard orientation:
 ---------------------------------------------------------------------
 Center     Atomic      Atomic             Coordinates (Angstroms)
 Number     Number       Type             X           Y           Z
 ---------------------------------------------------------------------
      1          6           0        1.899106    2.215103   -1.303972
      2          6           0        1.298446    0.953112   -1.359715
      3          6           0        1.899838   -0.147378   -0.741818
      4          6           0        3.107191    0.050965   -0.073798
      5          6           0        3.730366    1.295790   -0.000636
      6          6           0        3.111013    2.382119   -0.625806
      7          1           0        1.424954    3.064490   -1.786794
      8          1           0        0.357272    0.820450   -1.885680
      9          1           0        1.456642   -1.135423   -0.769422
     10          1           0        4.668672    1.396906    0.531130
     11          1           0        3.579780    3.361039   -0.580885
     12          7           0        3.753365   -1.106579    0.584192
     13          8           0        4.816961   -0.905559    1.166421
     14          8           0        3.184005   -2.192964    0.505236
     15          6           0       -3.773976    2.004357    1.032533
     16          6           0       -2.574677    1.454877    1.497586
     17          6           0       -2.136455    0.211078    1.033398
     18          6           0       -2.925935   -0.458887    0.100040
     19          6           0       -4.125491    0.062267   -0.382406
     20          6           0       -4.544198    1.307528    0.095672
     21          1           0       -4.106818    2.971139    1.398520
     22          1           0       -1.974470    1.993798    2.225158
     23          1           0       -1.212114   -0.237525    1.376572
     24          1           0       -4.702279   -0.498643   -1.107744
     25          1           0       -5.476020    1.731828   -0.267261
     26          7           0       -2.472339   -1.776415   -0.398728
     27          8           0       -3.186048   -2.346656   -1.220970
     28          8           0       -1.411690   -2.213906    0.042025
 ---------------------------------------------------------------------

 SCF Done:  E(RHF) =  -868.338428372     A.U. after   16 cycles
 E2 =    -0.2600068156D+01 EUMP2 =    -0.87093849652733D+03

 The electronic state is 1-A.
 Alpha  occ. eigenvalues --  -20.61341 -20.61316 -20.60443 -20.60400 -15.86364
 Alpha  occ. eigenvalues --  -15.85480 -11.31704 -11.30949 -11.28264 -11.28238
 Alpha  occ. eigenvalues --  -11.27992 -11.27600 -11.27404 -11.27373 -11.27263
 Alpha  occ. eigenvalues --  -11.27239 -11.26645 -11.26563  -1.60402  -1.59506
 Alpha  occ. eigenvalues --   -1.39953  -1.39049  -1.19874  -1.19160  -1.09273
 Alpha  occ. eigenvalues --   -1.08548  -1.05255  -1.04561  -0.96105  -0.95347
 Alpha  occ. eigenvalues --   -0.86654  -0.85954  -0.82925  -0.82165  -0.77984
 Alpha  occ. eigenvalues --   -0.77174  -0.72565  -0.71746  -0.71683  -0.70959
 Alpha  occ. eigenvalues --   -0.70841  -0.70246  -0.65513  -0.65241  -0.64800
 Alpha  occ. eigenvalues --   -0.64556  -0.62590  -0.61860  -0.55753  -0.55090
 Alpha  occ. eigenvalues --   -0.53622  -0.53337  -0.52910  -0.52626  -0.49335
 Alpha  occ. eigenvalues --   -0.49324  -0.48475  -0.48430  -0.45354  -0.44430
 Alpha  occ. eigenvalues --   -0.37871  -0.37207  -0.36883  -0.36142
 Alpha virt. eigenvalues --    0.04481   0.05329   0.10758   0.11452   0.15970
 Alpha virt. eigenvalues --    0.16767   0.20958   0.21626   0.26863   0.27303
 Alpha virt. eigenvalues --    0.27810   0.28630   0.30590   0.31112   0.31898

 Mulliken charges:
               1
     1  C   -0.172420
     2  C   -0.222655
     3  C   -0.178862
     4  C    0.156191
     5  C   -0.171719
     6  C   -0.220072
     7  H    0.223112
     8  H    0.223850
     9  H    0.294356
    10  H    0.274699
    11  H    0.221421
    12  N    0.486974
    13  O   -0.463655
    14  O   -0.453284
    15  C   -0.171425
    16  C   -0.219407
    17  C   -0.172822
    18  C    0.154188
    19  C   -0.171780
    20  C   -0.219105
    21  H    0.226714
    22  H    0.225869
    23  H    0.279220
    24  H    0.276576
    25  H    0.224695
    26  N    0.487026
    27  O   -0.457323
    28  O   -0.460363
 Sum of Mulliken charges =  -0.00000

 Dipole moment (field-independent basis, Debye):
    X=             -4.0443    Y=              8.5393    Z=             -0.5273  Tot=              9.4633
 Quadrupole moment (field-independent basis, Debye-Ang):
   XX=           -104.1879   YY=           -107.9019   ZZ=           -103.2048
   XY=              2.0250   XZ=             -8.5342   YZ=              0.6542

 Normal termination of Gaussian 16 at Thu May  6 01:52:08 2021.
