 Gaussian 16, Revision A.03,
 Gaussian 16:  EM64L-G16RevA.03 25-Dec-2016

 -------------
 #p 6-31g* mp2
 -------------

 ------------------------------------------------------
 Input file generated by CHIRIPA (05-May-2021 14:51:07)
 ------------------------------------------------------
 Symbolic Z-matrix:
 Charge =  0 Multiplicity = 1

                         Standard orientation:
 ---------------------------------------------------------------------
 Center     Atomic      Atomic             Coordinates (Angstroms)
 Number     Number       Type             X           Y           Z
 ---------------------------------------------------------------------
      1          6           0       -3.245179    0.741144   -0.738748
      2          6           0       -2.899592    1.931776    0.156210
      3          6           0       -2.742440    3.234852   -0.628067
      4          1           0       -2.460330    0.621368   -1.498097
      5          1           0       -4.175386    0.957609   -1.282120
      6          1           0       -1.971052    1.712561    0.698773
      7          1           0       -3.685258    2.048614    0.913635
      8          1           0       -3.669180    3.480498   -1.156660
      9          1           0       -1.945235    3.142536   -1.372743
     10          1           0       -2.495521    4.072899    0.031151
     11          6           0       -3.405516   -0.568755    0.030787
     12          6           0       -3.751104   -1.759387   -0.864171
     13          6           0       -3.908256   -3.062463   -0.079894
     14          1           0       -2.475309   -0.785220    0.574159
     15          1           0       -4.190365   -0.448979    0.790136
     16          1           0       -2.965437   -1.876224   -1.621596
     17          1           0       -4.679644   -1.540171   -1.406733
     18          1           0       -4.705461   -2.970147    0.664783
     19          1           0       -2.981515   -3.308109    0.448699
     20          1           0       -4.155174   -3.900510   -0.739111
     21          6           0        3.945142   -0.470596    0.126994
     22          6           0        4.739754    0.249389   -0.963051
     23          6           0        5.976791   -0.532092   -1.406694
     24          1           0        4.598738   -0.647321    0.992166
     25          1           0        3.641886   -1.459849   -0.242886
     26          1           0        5.040236    1.237540   -0.591723
     27          1           0        4.084135    0.424592   -1.825655
     28          1           0        5.691800   -1.512299   -1.802391
     29          1           0        6.653333   -0.694731   -0.561449
     30          1           0        6.529992    0.000742   -2.186383
     31          6           0        2.705554    0.298207    0.580967
     32          6           0        1.910942   -0.421779    1.671012
     33          6           0        0.673905    0.359703    2.114655
     34          1           0        3.008809    1.287459    0.950847
     35          1           0        2.051956    0.474931   -0.284205
     36          1           0        2.566559   -0.596981    2.533615
     37          1           0        1.610459   -1.409930    1.299684
     38          1           0       -0.002638    0.522342    1.269410
     39          1           0        0.958894    1.339910    2.510352
     40          1           0        0.120703   -0.173131    2.894345
 ---------------------------------------------------------------------

 SCF Done:  E(RHF) =  -470.733207137     A.U. after   11 cycles
 E2 =    -0.1582868063D+01 EUMP2 =    -0.47231607520032D+03

 The electronic state is 1-A.
 Alpha  occ. eigenvalues --  -11.21666 -11.21635 -11.21597 -11.21530 -11.21455
 Alpha  occ. eigenvalues --  -11.21394 -11.21385 -11.21326 -11.21138 -11.21097
 Alpha  occ. eigenvalues --  -11.21069 -11.21035  -1.08482  -1.08410  -1.03585
 Alpha  occ. eigenvalues --   -1.03504  -0.96034  -0.95958  -0.87057  -0.86971
 Alpha  occ. eigenvalues --   -0.79675  -0.79545  -0.78307  -0.78205  -0.65174
 Alpha  occ. eigenvalues --   -0.65002  -0.61039  -0.60860  -0.59397  -0.59327
 Alpha  occ. eigenvalues --   -0.57647  -0.57560  -0.55338  -0.55240  -0.52732
 Alpha  occ. eigenvalues --   -0.52653  -0.52478  -0.52368  -0.50033  -0.49879
 Alpha  occ. eigenvalues --   -0.48061  -0.47821  -0.46787  -0.46532  -0.45913
 Alpha  occ. eigenvalues --   -0.45774  -0.45743  -0.45455  -0.43833  -0.43760
 Alpha virt. eigenvalues --    0.20919   0.23098   0.24093   0.24432   0.25763
 Alpha virt. eigenvalues --    0.26771   0.27104   0.27553   0.27928   0.29383
 Alpha virt. eigenvalues --    0.30819   0.31603   0.31692   0.31897   0.32045

 Mulliken charges:
               1
     1  C   -0.297728
     2  C   -0.307770
     3  C   -0.475102
     4  H    0.148495
     5  H    0.149587
     6  H    0.160215
     7  H    0.151983
     8  H    0.154956
     9  H    0.154653
    10  H    0.160314
    11  C   -0.301186
    12  C   -0.299467
    13  C   -0.475665
    14  H    0.152068
    15  H    0.149821
    16  H    0.151478
    17  H    0.151983
    18  H    0.155268
    19  H    0.155081
    20  H    0.160156
    21  C   -0.298339
    22  C   -0.299689
    23  C   -0.475741
    24  H    0.149845
    25  H    0.149537
    26  H    0.152058
    27  H    0.151896
    28  H    0.155216
    29  H    0.155259
    30  H    0.160384
    31  C   -0.298333
    32  C   -0.299654
    33  C   -0.482726
    34  H    0.149832
    35  H    0.149191
    36  H    0.152373
    37  H    0.151700
    38  H    0.161174
    39  H    0.155748
    40  H    0.161127
 Sum of Mulliken charges =  -0.00000

 Dipole moment (field-independent basis, Debye):
    X=              0.0273    Y=              0.0034    Z=              0.0289  Tot=              0.0399
 Quadrupole moment (field-independent basis, Debye-Ang):
   XX=            -84.3442   YY=            -85.8044   ZZ=            -84.6023
   XY=              0.3530   XZ=              0.6985   YZ=              0.6458

 Normal termination of Gaussian 16 at Thu May  6 06:50:21 2021.
