 Gaussian 16, Revision A.03,
 Gaussian 16:  EM64L-G16RevA.03 25-Dec-2016

 -------------
 #p 6-31g* mp2
 -------------

 ------------------------------------------------------
 Input file generated by CHIRIPA (05-May-2021 14:55:25)
 ------------------------------------------------------
 Symbolic Z-matrix:
 Charge =  0 Multiplicity = 1

                         Standard orientation:
 ---------------------------------------------------------------------
 Center     Atomic      Atomic             Coordinates (Angstroms)
 Number     Number       Type             X           Y           Z
 ---------------------------------------------------------------------
      1          6           0        4.540700    0.532919   -0.892455
      2          6           0        3.817232    1.413042   -0.080976
      3          6           0        2.639130    0.995538    0.545372
      4          6           0        2.211566   -0.314898    0.337435
      5          6           0        2.910269   -1.215366   -0.465223
      6          6           0        4.085712   -0.776169   -1.081655
      7          1           0        5.454845    0.865672   -1.375166
      8          1           0        4.168201    2.430266    0.067757
      9          1           0        2.059541    1.656094    1.178744
     10          1           0        2.535309   -2.223383   -0.594549
     11          1           0        4.645521   -1.461865   -1.711321
     12          7           0        0.965770   -0.768374    0.995273
     13          8           0        0.610274   -1.927937    0.796092
     14          8           0        0.368399    0.044341    1.697612
     15          6           0       -2.829847   -0.408133   -0.336319
     16          6           0       -3.936358   -1.463413   -0.334725
     17          6           0       -3.392914   -2.889919   -0.421574
     18          1           0       -2.228465   -0.517989   -1.249125
     19          1           0       -2.152740   -0.595615    0.508533
     20          1           0       -4.611960   -1.273170   -1.178517
     21          1           0       -4.535291   -1.350908    0.578093
     22          1           0       -2.735011   -3.103854    0.426951
     23          1           0       -2.812114   -3.025674   -1.339639
     24          1           0       -4.200883   -3.628188   -0.418982
     25          6           0       -3.357387    1.022941   -0.249962
     26          6           0       -2.250876    2.078221   -0.251554
     27          6           0       -2.794320    3.504727   -0.164707
     28          1           0       -4.034493    1.210424   -1.094812
     29          1           0       -3.958769    1.132796    0.662846
     30          1           0       -1.651942    1.965717   -1.164372
     31          1           0       -1.575274    1.887978    0.592237
     32          1           0       -3.375120    3.640483    0.753358
     33          1           0       -3.452224    3.718662   -1.013232
     34          1           0       -1.986352    4.242996   -0.167298
 ---------------------------------------------------------------------

 SCF Done:  E(RHF) =  -669.537019815     A.U. after   15 cycles
 E2 =    -0.2092935271D+01 EUMP2 =    -0.67162995508560D+03

 The electronic state is 1-A.
 Alpha  occ. eigenvalues --  -20.61138 -20.61129 -15.86104 -11.31362 -11.27911
 Alpha  occ. eigenvalues --  -11.27908 -11.27640 -11.26903 -11.26893 -11.20557
 Alpha  occ. eigenvalues --  -11.20375 -11.20372 -11.20263 -11.19871 -11.19769
 Alpha  occ. eigenvalues --   -1.60153  -1.39714  -1.19519  -1.08939  -1.07229
 Alpha  occ. eigenvalues --   -1.04904  -1.02427  -0.95793  -0.94879  -0.86308
 Alpha  occ. eigenvalues --   -0.85897  -0.82635  -0.78508  -0.77694  -0.77024
 Alpha  occ. eigenvalues --   -0.72336  -0.71437  -0.70630  -0.65178  -0.64910
 Alpha  occ. eigenvalues --   -0.63845  -0.62252  -0.59825  -0.58279  -0.56492
 Alpha  occ. eigenvalues --   -0.55417  -0.54160  -0.53238  -0.52995  -0.51633
 Alpha  occ. eigenvalues --   -0.51305  -0.49192  -0.49116  -0.48753  -0.46845
 Alpha  occ. eigenvalues --   -0.45627  -0.45089  -0.44608  -0.44177  -0.42649
 Alpha  occ. eigenvalues --   -0.37488  -0.36499
 Alpha virt. eigenvalues --    0.04767   0.11154   0.16241   0.21238   0.24090
 Alpha virt. eigenvalues --    0.25312   0.27131   0.27713   0.27959   0.29007
 Alpha virt. eigenvalues --    0.29205   0.31008   0.31964   0.32505   0.32669

 Mulliken charges:
               1
     1  C   -0.170304
     2  C   -0.218682
     3  C   -0.170035
     4  C    0.160321
     5  C   -0.170701
     6  C   -0.218703
     7  H    0.226280
     8  H    0.224154
     9  H    0.275989
    10  H    0.276093
    11  H    0.224077
    12  N    0.489794
    13  O   -0.458230
    14  O   -0.460532
    15  C   -0.310344
    16  C   -0.298364
    17  C   -0.476358
    18  H    0.140473
    19  H    0.179587
    20  H    0.145082
    21  H    0.149844
    22  H    0.168684
    23  H    0.150683
    24  H    0.153092
    25  C   -0.295453
    26  C   -0.308369
    27  C   -0.474202
    28  H    0.143202
    29  H    0.148553
    30  H    0.143487
    31  H    0.170211
    32  H    0.155036
    33  H    0.152109
    34  H    0.153527
 Sum of Mulliken charges =  -0.00000

 Dipole moment (field-independent basis, Debye):
    X=              4.7764    Y=              1.4403    Z=             -2.0704  Tot=              5.4014
 Quadrupole moment (field-independent basis, Debye-Ang):
   XX=            -77.0037   YY=            -93.6566   ZZ=            -95.2796
   XY=              2.0847   XZ=             -4.7806   YZ=              3.3331

 Normal termination of Gaussian 16 at Thu May  6 16:05:52 2021.
