 Gaussian 16, Revision A.03,
 Gaussian 16:  EM64L-G16RevA.03 25-Dec-2016

 -------------
 #p 6-31g* mp2
 -------------

 ------------------------------------------------------
 Input file generated by CHIRIPA (05-May-2021 14:51:12)
 ------------------------------------------------------
 Symbolic Z-matrix:
 Charge =  0 Multiplicity = 1

                         Standard orientation:
 ---------------------------------------------------------------------
 Center     Atomic      Atomic             Coordinates (Angstroms)
 Number     Number       Type             X           Y           Z
 ---------------------------------------------------------------------
      1          6           0       -2.079686   -0.300376    0.478236
      2          6           0       -1.647228   -0.784992    1.862473
      3          6           0       -0.131003   -0.745512    2.055595
      4          1           0       -1.594727   -0.920204   -0.288297
      5          1           0       -1.716391    0.725489    0.326533
      6          1           0       -2.012417   -1.809138    2.012064
      7          1           0       -2.133424   -0.164060    2.625803
      8          1           0        0.246520    0.274809    1.933027
      9          1           0        0.368214   -1.379616    1.315801
     10          1           0        0.156074   -1.096080    3.051863
     11          6           0       -3.592706   -0.333973    0.269977
     12          6           0       -4.025164    0.150643   -1.114261
     13          6           0       -5.541389    0.111164   -1.307383
     14          1           0       -3.956000   -1.359837    0.421679
     15          1           0       -4.077665    0.285855    1.036509
     16          1           0       -3.538968   -0.470288   -1.877591
     17          1           0       -3.659975    1.174789   -1.263852
     18          1           0       -6.040606    0.745268   -0.567588
     19          1           0       -5.918911   -0.909157   -1.184815
     20          1           0       -5.828465    0.461731   -2.303651
     21          6           0        3.129740   -0.342872   -0.125908
     22          6           0        3.112632   -1.449074   -1.181374
     23          6           0        3.703138   -2.763393   -0.669846
     24          1           0        4.163899   -0.177332    0.205838
     25          1           0        2.568366   -0.679176    0.756789
     26          1           0        3.672700   -1.110248   -2.062360
     27          1           0        2.078416   -1.611868   -1.510784
     28          1           0        3.140175   -3.127656    0.195595
     29          1           0        4.743517   -2.623185   -0.359114
     30          1           0        3.680981   -3.540293   -1.440428
     31          6           0        2.542652    0.977221   -0.622304
     32          6           0        2.559760    2.083423    0.433162
     33          6           0        1.969254    3.397742   -0.078367
     34          1           0        3.104026    1.313524   -1.505001
     35          1           0        1.508492    0.811680   -0.954051
     36          1           0        3.593976    2.246216    0.762573
     37          1           0        1.999692    1.744596    1.314148
     38          1           0        0.928874    3.257534   -0.389098
     39          1           0        2.532217    3.762004   -0.943806
     40          1           0        1.991411    4.174641    0.692216
 ---------------------------------------------------------------------

 SCF Done:  E(RHF) =  -470.732375113     A.U. after   11 cycles
 E2 =    -0.1584424427D+01 EUMP2 =    -0.47231679953961D+03

 The electronic state is 1-A.
 Alpha  occ. eigenvalues --  -11.21691 -11.21650 -11.21550 -11.21545 -11.21493
 Alpha  occ. eigenvalues --  -11.21424 -11.21298 -11.21197 -11.21169 -11.21106
 Alpha  occ. eigenvalues --  -11.21060 -11.21045  -1.08517  -1.08350  -1.03609
 Alpha  occ. eigenvalues --   -1.03488  -0.96080  -0.95917  -0.87095  -0.86947
 Alpha  occ. eigenvalues --   -0.79697  -0.79550  -0.78337  -0.78142  -0.65144
 Alpha  occ. eigenvalues --   -0.65026  -0.61177  -0.60752  -0.59423  -0.59299
 Alpha  occ. eigenvalues --   -0.57690  -0.57527  -0.55406  -0.55184  -0.52765
 Alpha  occ. eigenvalues --   -0.52655  -0.52491  -0.52342  -0.50180  -0.49728
 Alpha  occ. eigenvalues --   -0.48062  -0.47872  -0.46816  -0.46423  -0.46022
 Alpha  occ. eigenvalues --   -0.45774  -0.45646  -0.45359  -0.43860  -0.43718
 Alpha virt. eigenvalues --    0.20161   0.22736   0.23173   0.24899   0.25734
 Alpha virt. eigenvalues --    0.26166   0.26821   0.27890   0.28488   0.29529
 Alpha virt. eigenvalues --    0.30153   0.31233   0.31676   0.31876   0.32594

 Mulliken charges:
               1
     1  C   -0.298951
     2  C   -0.299981
     3  C   -0.484129
     4  H    0.149452
     5  H    0.149413
     6  H    0.152325
     7  H    0.152346
     8  H    0.161439
     9  H    0.157485
    10  H    0.161006
    11  C   -0.298352
    12  C   -0.299760
    13  C   -0.475769
    14  H    0.149841
    15  H    0.149976
    16  H    0.152040
    17  H    0.152015
    18  H    0.155296
    19  H    0.155271
    20  H    0.160494
    21  C   -0.305337
    22  C   -0.300121
    23  C   -0.475769
    24  H    0.148850
    25  H    0.159572
    26  H    0.151855
    27  H    0.150883
    28  H    0.154705
    29  H    0.155413
    30  H    0.159925
    31  C   -0.298873
    32  C   -0.305002
    33  C   -0.475728
    34  H    0.149255
    35  H    0.150839
    36  H    0.152147
    37  H    0.156119
    38  H    0.154441
    39  H    0.155481
    40  H    0.159890
 Sum of Mulliken charges =  -0.00000

 Dipole moment (field-independent basis, Debye):
    X=             -0.0414    Y=             -0.0119    Z=              0.0386  Tot=              0.0578
 Quadrupole moment (field-independent basis, Debye-Ang):
   XX=            -85.2595   YY=            -84.9073   ZZ=            -84.6694
   XY=              0.6391   XZ=             -0.6617   YZ=              0.4626

 Normal termination of Gaussian 16 at Thu May  6 07:06:26 2021.
