 Gaussian 16, Revision A.03,
 Gaussian 16:  EM64L-G16RevA.03 25-Dec-2016

 -------------
 #p 6-31g* mp2
 -------------

 ------------------------------------------------------
 Input file generated by CHIRIPA (05-May-2021 14:51:12)
 ------------------------------------------------------
 Symbolic Z-matrix:
 Charge =  0 Multiplicity = 1

                         Standard orientation:
 ---------------------------------------------------------------------
 Center     Atomic      Atomic             Coordinates (Angstroms)
 Number     Number       Type             X           Y           Z
 ---------------------------------------------------------------------
      1          6           0       -3.464615   -0.332882   -0.257153
      2          6           0       -2.356104   -0.596580    0.762480
      3          6           0       -0.960976   -0.577633    0.137138
      4          1           0       -3.408127   -1.087092   -1.053972
      5          1           0       -3.289326    0.640766   -0.735358
      6          1           0       -2.534197   -1.568818    1.239610
      7          1           0       -2.415358    0.158231    1.557064
      8          1           0       -0.758230    0.394878   -0.322989
      9          1           0       -0.877744   -1.341984   -0.642247
     10          1           0       -0.183752   -0.768349    0.883737
     11          6           0       -4.865104   -0.348641    0.352856
     12          6           0       -5.973615   -0.084943   -0.666777
     13          6           0       -7.368743   -0.103890   -0.041435
     14          1           0       -5.040393   -1.322289    0.831061
     15          1           0       -4.921593    0.405569    1.149675
     16          1           0       -5.914361   -0.839754   -1.461361
     17          1           0       -5.795523    0.887295   -1.143907
     18          1           0       -7.451976    0.660461    0.737950
     19          1           0       -7.571489   -1.076401    0.418692
     20          1           0       -8.145967    0.086826   -0.788034
     21          6           0        3.423693    0.502926   -0.136208
     22          6           0        3.086426    1.968394    0.140633
     23          6           0        1.599936    2.277267   -0.040302
     24          1           0        3.117170    0.249899   -1.160397
     25          1           0        2.831393   -0.135329    0.534022
     26          1           0        3.680207    2.603750   -0.528966
     27          1           0        3.393963    2.218014    1.164219
     28          1           0        0.994456    1.667922    0.638443
     29          1           0        1.282327    2.055849   -1.064362
     30          1           0        1.381097    3.330265    0.162592
     31          6           0        4.906026    0.178597    0.040504
     32          6           0        5.243294   -1.286871   -0.236336
     33          6           0        6.729784   -1.595745   -0.055401
     34          1           0        5.498326    0.816852   -0.629724
     35          1           0        5.212550    0.431624    1.064694
     36          1           0        4.935756   -1.536492   -1.259921
     37          1           0        4.649512   -1.922226    0.433263
     38          1           0        7.047393   -1.374326    0.968659
     39          1           0        7.335263   -0.986399   -0.734146
     40          1           0        6.948622   -2.648742   -0.258295
 ---------------------------------------------------------------------

 SCF Done:  E(RHF) =  -470.732413234     A.U. after   11 cycles
 E2 =    -0.1582953031D+01 EUMP2 =    -0.47231536626485D+03

 The electronic state is 1-A.
 Alpha  occ. eigenvalues --  -11.21584 -11.21573 -11.21558 -11.21553 -11.21380
 Alpha  occ. eigenvalues --  -11.21363 -11.21320 -11.21301 -11.21058 -11.21050
 Alpha  occ. eigenvalues --  -11.20962 -11.20956  -1.08408  -1.08382  -1.03534
 Alpha  occ. eigenvalues --   -1.03455  -0.96015  -0.95877  -0.87067  -0.86867
 Alpha  occ. eigenvalues --   -0.79680  -0.79449  -0.78242  -0.78167  -0.65054
 Alpha  occ. eigenvalues --   -0.65005  -0.60994  -0.60825  -0.59380  -0.59246
 Alpha  occ. eigenvalues --   -0.57636  -0.57509  -0.55382  -0.55102  -0.52714
 Alpha  occ. eigenvalues --   -0.52637  -0.52494  -0.52199  -0.50023  -0.49736
 Alpha  occ. eigenvalues --   -0.47991  -0.47734  -0.46652  -0.46486  -0.45815
 Alpha  occ. eigenvalues --   -0.45719  -0.45673  -0.45573  -0.43758  -0.43715
 Alpha virt. eigenvalues --    0.22009   0.22991   0.23627   0.24848   0.25990
 Alpha virt. eigenvalues --    0.26514   0.26955   0.27472   0.27801   0.29351
 Alpha virt. eigenvalues --    0.30216   0.31333   0.31685   0.31827   0.32153

 Mulliken charges:
               1
     1  C   -0.298502
     2  C   -0.300152
     3  C   -0.480716
     4  H    0.149563
     5  H    0.149843
     6  H    0.151526
     7  H    0.151550
     8  H    0.163128
     9  H    0.154622
    10  H    0.159025
    11  C   -0.298230
    12  C   -0.299642
    13  C   -0.475688
    14  H    0.149449
    15  H    0.149617
    16  H    0.151883
    17  H    0.151945
    18  H    0.155160
    19  H    0.155137
    20  H    0.160194
    21  C   -0.299026
    22  C   -0.299723
    23  C   -0.480220
    24  H    0.149968
    25  H    0.150605
    26  H    0.151466
    27  H    0.151423
    28  H    0.162710
    29  H    0.154593
    30  H    0.158929
    31  C   -0.298288
    32  C   -0.299554
    33  C   -0.475678
    34  H    0.149453
    35  H    0.149402
    36  H    0.151996
    37  H    0.151855
    38  H    0.155088
    39  H    0.155131
    40  H    0.160156
 Sum of Mulliken charges =  -0.00000

 Dipole moment (field-independent basis, Debye):
    X=             -0.0056    Y=              0.0052    Z=             -0.0098  Tot=              0.0124
 Quadrupole moment (field-independent basis, Debye-Ang):
   XX=            -87.2016   YY=            -83.9735   ZZ=            -83.8829
   XY=              0.4452   XZ=              0.0923   YZ=              0.0133

 Normal termination of Gaussian 16 at Thu May  6 05:29:51 2021.
