 Gaussian 16, Revision A.03,
 Gaussian 16:  EM64L-G16RevA.03 25-Dec-2016

 -------------
 #p 6-31g* mp2
 -------------

 ------------------------------------------------------
 Input file generated by CHIRIPA (05-May-2021 14:51:10)
 ------------------------------------------------------
 Symbolic Z-matrix:
 Charge =  0 Multiplicity = 1

                         Standard orientation:
 ---------------------------------------------------------------------
 Center     Atomic      Atomic             Coordinates (Angstroms)
 Number     Number       Type             X           Y           Z
 ---------------------------------------------------------------------
      1          6           0        2.111564   -1.154925   -0.134641
      2          6           0        1.389844   -1.698714    1.098809
      3          6           0        0.098408   -2.439016    0.749607
      4          1           0        1.436424   -0.480590   -0.679070
      5          1           0        2.337608   -1.987383   -0.815312
      6          1           0        1.166458   -0.865663    1.777588
      7          1           0        2.066846   -2.371685    1.640468
      8          1           0        0.307262   -3.288458    0.091253
      9          1           0       -0.598241   -1.773879    0.229151
     10          1           0       -0.401259   -2.819361    1.646005
     11          6           0        3.404401   -0.412299    0.198232
     12          6           0        4.126121    0.131490   -1.035218
     13          6           0        5.417557    0.871792   -0.686016
     14          1           0        3.178357    0.420159    0.878903
     15          1           0        4.079541   -1.086635    0.742661
     16          1           0        3.449119    0.804460   -1.576877
     17          1           0        4.349507   -0.701561   -1.713997
     18          1           0        6.114206    0.206655   -0.165560
     19          1           0        5.208702    1.721233   -0.027662
     20          1           0        5.917224    1.252137   -1.582414
     21          6           0       -2.014528    0.898612    0.100425
     22          6           0       -1.683433    2.340253    0.487768
     23          6           0       -0.192269    2.554561    0.749104
     24          1           0       -1.680563    0.224602    0.901127
     25          1           0       -1.441284    0.626448   -0.796633
     26          1           0       -2.258177    2.610072    1.383023
     27          1           0       -2.018397    3.010926   -0.313863
     28          1           0        0.393948    2.312251   -0.143218
     29          1           0        0.152805    1.909120    1.563310
     30          1           0        0.022036    3.591924    1.024441
     31          6           0       -3.501437    0.668612   -0.164016
     32          6           0       -3.832532   -0.773028   -0.551359
     33          6           0       -5.323696   -0.987336   -0.812695
     34          1           0       -4.074680    0.940776    0.733042
     35          1           0       -3.835402    1.342622   -0.964718
     36          1           0       -3.497567   -1.443702    0.250273
     37          1           0       -3.257787   -1.042848   -1.446614
     38          1           0       -5.668770   -0.341896   -1.626901
     39          1           0       -5.909912   -0.745027    0.079626
     40          1           0       -5.538001   -2.024700   -1.088032
 ---------------------------------------------------------------------

 SCF Done:  E(RHF) =  -470.732760021     A.U. after   11 cycles
 E2 =    -0.1584669355D+01 EUMP2 =    -0.47231742937579D+03

 The electronic state is 1-A.
 Alpha  occ. eigenvalues --  -11.21688 -11.21623 -11.21561 -11.21529 -11.21468
 Alpha  occ. eigenvalues --  -11.21406 -11.21330 -11.21271 -11.21188 -11.21087
 Alpha  occ. eigenvalues --  -11.21031 -11.20898  -1.08515  -1.08349  -1.03595
 Alpha  occ. eigenvalues --   -1.03457  -0.96064  -0.95891  -0.87069  -0.86919
 Alpha  occ. eigenvalues --   -0.79659  -0.79542  -0.78373  -0.78136  -0.65154
 Alpha  occ. eigenvalues --   -0.64976  -0.61013  -0.60849  -0.59408  -0.59277
 Alpha  occ. eigenvalues --   -0.57714  -0.57491  -0.55366  -0.55176  -0.52747
 Alpha  occ. eigenvalues --   -0.52609  -0.52481  -0.52303  -0.50032  -0.49821
 Alpha  occ. eigenvalues --   -0.48008  -0.47855  -0.46772  -0.46601  -0.46012
 Alpha  occ. eigenvalues --   -0.45780  -0.45597  -0.45297  -0.43845  -0.43714
 Alpha virt. eigenvalues --    0.19825   0.22800   0.23695   0.24398   0.24476
 Alpha virt. eigenvalues --    0.25943   0.26490   0.27811   0.29412   0.29777
 Alpha virt. eigenvalues --    0.30517   0.31304   0.31608   0.31700   0.32341

 Mulliken charges:
               1
     1  C   -0.300209
     2  C   -0.300805
     3  C   -0.484214
     4  H    0.151999
     5  H    0.149040
     6  H    0.152176
     7  H    0.151602
     8  H    0.154321
     9  H    0.166240
    10  H    0.157993
    11  C   -0.299030
    12  C   -0.299526
    13  C   -0.475722
    14  H    0.150949
    15  H    0.149313
    16  H    0.151307
    17  H    0.151707
    18  H    0.155073
    19  H    0.155494
    20  H    0.159980
    21  C   -0.305115
    22  C   -0.299259
    23  C   -0.478879
    24  H    0.155986
    25  H    0.150007
    26  H    0.152356
    27  H    0.152269
    28  H    0.155913
    29  H    0.156640
    30  H    0.160892
    31  C   -0.297750
    32  C   -0.302013
    33  C   -0.475729
    34  H    0.149646
    35  H    0.149682
    36  H    0.154525
    37  H    0.152132
    38  H    0.155145
    39  H    0.155195
    40  H    0.160671
 Sum of Mulliken charges =  -0.00000

 Dipole moment (field-independent basis, Debye):
    X=             -0.0660    Y=              0.0397    Z=             -0.0014  Tot=              0.0770
 Quadrupole moment (field-independent basis, Debye-Ang):
   XX=            -86.4642   YY=            -84.4724   ZZ=            -83.8875
   XY=             -1.2449   XZ=             -0.5103   YZ=             -0.2126

 Normal termination of Gaussian 16 at Wed May  5 23:01:27 2021.
