 Gaussian 16, Revision A.03,
 Gaussian 16:  EM64L-G16RevA.03 25-Dec-2016

 -------------
 #p 6-31g* mp2
 -------------

 ------------------------------------------------------
 Input file generated by CHIRIPA (05-May-2021 14:51:10)
 ------------------------------------------------------
 Symbolic Z-matrix:
 Charge =  0 Multiplicity = 1

                         Standard orientation:
 ---------------------------------------------------------------------
 Center     Atomic      Atomic             Coordinates (Angstroms)
 Number     Number       Type             X           Y           Z
 ---------------------------------------------------------------------
      1          6           0        4.342313   -0.743526   -0.072928
      2          6           0        5.833746   -0.976489    0.170676
      3          6           0        6.223866   -2.452176    0.081516
      4          1           0        3.762884   -1.322333    0.659321
      5          1           0        4.074156   -1.135413   -1.063842
      6          1           0        6.099296   -0.583034    1.160268
      7          1           0        6.409695   -0.396910   -0.562117
      8          1           0        5.987032   -2.854094   -0.908924
      9          1           0        5.674869   -3.041276    0.823247
     10          1           0        7.294262   -2.595882    0.258888
     11          6           0        3.936877    0.726843    0.012897
     12          6           0        2.445445    0.959806   -0.230707
     13          6           0        2.055324    2.435493   -0.141547
     14          1           0        4.205034    1.118730    1.003811
     15          1           0        4.516306    1.305650   -0.719352
     16          1           0        1.869495    0.380227    0.502086
     17          1           0        2.179894    0.566351   -1.220299
     18          1           0        2.604321    3.024593   -0.883277
     19          1           0        2.292158    2.837411    0.848894
     20          1           0        0.984929    2.579199   -0.318919
     21          6           0       -3.792922    0.575555    0.406206
     22          6           0       -2.765816    1.326671   -0.441650
     23          6           0       -2.080747    2.458482    0.324824
     24          1           0       -4.549242    1.285237    0.768524
     25          1           0       -3.295008    0.167661    1.296767
     26          1           0       -3.265236    1.731850   -1.331047
     27          1           0       -2.011959    0.615085   -0.802150
     28          1           0       -1.557230    2.067219    1.203143
     29          1           0       -2.817629    3.190330    0.671241
     30          1           0       -1.350511    2.982025   -0.300089
     31          6           0       -4.486268   -0.558871   -0.346175
     32          6           0       -5.513375   -1.309989    0.501681
     33          6           0       -6.198442   -2.441798   -0.264793
     34          1           0       -4.984183   -0.150978   -1.236737
     35          1           0       -3.729948   -1.268555   -0.708493
     36          1           0       -6.267231   -0.598402    0.862181
     37          1           0       -5.013954   -1.715167    1.391078
     38          1           0       -5.461561   -3.173647   -0.611211
     39          1           0       -6.721960   -2.050537   -1.143112
     40          1           0       -6.928679   -2.965342    0.360120
 ---------------------------------------------------------------------

 SCF Done:  E(RHF) =  -470.733158549     A.U. after   11 cycles
 E2 =    -0.1582347404D+01 EUMP2 =    -0.47231550595319D+03

 The electronic state is 1-A.
 Alpha  occ. eigenvalues --  -11.21618 -11.21607 -11.21597 -11.21580 -11.21415
 Alpha  occ. eigenvalues --  -11.21394 -11.21355 -11.21333 -11.21090 -11.21075
 Alpha  occ. eigenvalues --  -11.21070 -11.20978  -1.08442  -1.08414  -1.03556
 Alpha  occ. eigenvalues --   -1.03497  -0.96030  -0.95923  -0.87066  -0.86922
 Alpha  occ. eigenvalues --   -0.79630  -0.79548  -0.78253  -0.78229  -0.65074
 Alpha  occ. eigenvalues --   -0.65044  -0.60962  -0.60894  -0.59631  -0.59134
 Alpha  occ. eigenvalues --   -0.57726  -0.57437  -0.55297  -0.55220  -0.52987
 Alpha  occ. eigenvalues --   -0.52499  -0.52439  -0.52193  -0.49938  -0.49883
 Alpha  occ. eigenvalues --   -0.47975  -0.47831  -0.46635  -0.46607  -0.45799
 Alpha  occ. eigenvalues --   -0.45768  -0.45717  -0.45698  -0.43950  -0.43586
 Alpha virt. eigenvalues --    0.21650   0.23065   0.23454   0.25192   0.26563
 Alpha virt. eigenvalues --    0.26680   0.26992   0.27443   0.27617   0.28957
 Alpha virt. eigenvalues --    0.29952   0.31285   0.31467   0.31796   0.32115

 Mulliken charges:
               1
     1  C   -0.298198
     2  C   -0.299626
     3  C   -0.475689
     4  H    0.149410
     5  H    0.149424
     6  H    0.151930
     7  H    0.151968
     8  H    0.155152
     9  H    0.155098
    10  H    0.160251
    11  C   -0.298345
    12  C   -0.298939
    13  C   -0.483014
    14  H    0.149514
    15  H    0.149675
    16  H    0.151276
    17  H    0.151467
    18  H    0.154407
    19  H    0.154932
    20  H    0.168491
    21  C   -0.298419
    22  C   -0.300467
    23  C   -0.479499
    24  H    0.149758
    25  H    0.149554
    26  H    0.151995
    27  H    0.152729
    28  H    0.156004
    29  H    0.155673
    30  H    0.163326
    31  C   -0.298336
    32  C   -0.299665
    33  C   -0.475717
    34  H    0.149551
    35  H    0.149782
    36  H    0.151951
    37  H    0.151918
    38  H    0.155216
    39  H    0.155194
    40  H    0.160267
 Sum of Mulliken charges =  -0.00000

 Dipole moment (field-independent basis, Debye):
    X=             -0.0320    Y=              0.0096    Z=              0.0021  Tot=              0.0335
 Quadrupole moment (field-independent basis, Debye-Ang):
   XX=            -84.8174   YY=            -86.1214   ZZ=            -83.8542
   XY=             -0.5548   XZ=             -0.1828   YZ=             -0.7011

 Normal termination of Gaussian 16 at Wed May  5 18:12:06 2021.
