 Gaussian 16, Revision A.03,
 Gaussian 16:  EM64L-G16RevA.03 25-Dec-2016

 -------------
 #p 6-31g* mp2
 -------------

 ------------------------------------------------------
 Input file generated by CHIRIPA (05-May-2021 14:57:24)
 ------------------------------------------------------
 Symbolic Z-matrix:
 Charge =  0 Multiplicity = 1

                         Standard orientation:
 ---------------------------------------------------------------------
 Center     Atomic      Atomic             Coordinates (Angstroms)
 Number     Number       Type             X           Y           Z
 ---------------------------------------------------------------------
      1          6           0        1.978830    2.644330   -0.519858
      2          6           0        1.165480    1.506712   -0.491413
      3          6           0        1.715612    0.246741   -0.237691
      4          6           0        3.089144    0.160512   -0.015734
      5          6           0        3.925776    1.275349   -0.037549
      6          6           0        3.353958    2.525227   -0.293235
      7          1           0        1.543050    3.619186   -0.717718
      8          1           0        0.097217    1.596209   -0.667057
      9          1           0        1.109126   -0.650376   -0.209913
     10          1           0        4.987304    1.154523    0.141277
     11          1           0        3.988046    3.406996   -0.314722
     12          7           0        3.683024   -1.168020    0.253909
     13          8           0        4.895952   -1.217300    0.446300
     14          8           0        2.924334   -2.134889    0.267760
     15          6           0       -1.305350   -2.209725   -0.356694
     16          6           0       -1.311210   -1.528379    0.864884
     17          6           0       -2.240774   -0.512542    1.106824
     18          6           0       -3.154254   -0.202528    0.100476
     19          6           0       -3.173685   -0.863108   -1.126940
     20          6           0       -2.234967   -1.875504   -1.346961
     21          1           0       -0.579687   -2.997515   -0.536125
     22          1           0       -0.590433   -1.785814    1.635762
     23          1           0       -2.267607    0.031049    2.043417
     24          1           0       -3.904588   -0.584088   -1.876170
     25          1           0       -2.232753   -2.402957   -2.296610
     26          7           0       -4.143187    0.871072    0.345005
     27          8           0       -4.937497    1.125287   -0.557814
     28          8           0       -4.105276    1.438015    1.434856
 ---------------------------------------------------------------------

 SCF Done:  E(RHF) =  -868.338995781     A.U. after   16 cycles
 E2 =    -0.2601866500D+01 EUMP2 =    -0.87094086228158D+03

 The electronic state is 1-A.
 Alpha  occ. eigenvalues --  -20.61384 -20.61347 -20.61342 -20.61327 -15.86400
 Alpha  occ. eigenvalues --  -15.86395 -11.31821 -11.31493 -11.28348 -11.28341
 Alpha  occ. eigenvalues --  -11.28042 -11.27943 -11.27933 -11.27712 -11.27306
 Alpha  occ. eigenvalues --  -11.27261 -11.27003 -11.26949  -1.60427  -1.60424
 Alpha  occ. eigenvalues --   -1.39991  -1.39976  -1.19982  -1.19646  -1.09339
 Alpha  occ. eigenvalues --   -1.09088  -1.05364  -1.04994  -0.96163  -0.95959
 Alpha  occ. eigenvalues --   -0.86747  -0.86399  -0.82966  -0.82806  -0.78055
 Alpha  occ. eigenvalues --   -0.77884  -0.72635  -0.72597  -0.71766  -0.71738
 Alpha  occ. eigenvalues --   -0.70964  -0.70743  -0.65586  -0.65322  -0.65293
 Alpha  occ. eigenvalues --   -0.64956  -0.62684  -0.62368  -0.55712  -0.55544
 Alpha  occ. eigenvalues --   -0.53716  -0.53392  -0.53338  -0.53032  -0.49398
 Alpha  occ. eigenvalues --   -0.49368  -0.49364  -0.49337  -0.45452  -0.45368
 Alpha  occ. eigenvalues --   -0.37922  -0.37618  -0.37114  -0.36467
 Alpha virt. eigenvalues --    0.04335   0.04698   0.10419   0.11179   0.15824
 Alpha virt. eigenvalues --    0.16249   0.20802   0.21606   0.26689   0.27200
 Alpha virt. eigenvalues --    0.27645   0.28739   0.30831   0.30989   0.31842

 Mulliken charges:
               1
     1  C   -0.169983
     2  C   -0.224739
     3  C   -0.178541
     4  C    0.157881
     5  C   -0.170159
     6  C   -0.219096
     7  H    0.228995
     8  H    0.227703
     9  H    0.279049
    10  H    0.275638
    11  H    0.224833
    12  N    0.488502
    13  O   -0.456702
    14  O   -0.470972
    15  C   -0.182253
    16  C   -0.231255
    17  C   -0.173845
    18  C    0.154659
    19  C   -0.173119
    20  C   -0.218423
    21  H    0.242845
    22  H    0.236918
    23  H    0.278020
    24  H    0.277195
    25  H    0.227791
    26  N    0.487471
    27  O   -0.459036
    28  O   -0.459374
 Sum of Mulliken charges =  -0.00000

 Dipole moment (field-independent basis, Debye):
    X=              1.2848    Y=              0.8693    Z=             -1.8188  Tot=              2.3905
 Quadrupole moment (field-independent basis, Debye-Ang):
   XX=           -135.4726   YY=           -101.2682   ZZ=           -101.5327
   XY=             28.5058   XZ=              2.6097   YZ=              0.5084

 Normal termination of Gaussian 16 at Thu May  6 21:16:54 2021.
