 Gaussian 16, Revision A.03,
 Gaussian 16:  EM64L-G16RevA.03 25-Dec-2016

 -------------
 #p 6-31g* mp2
 -------------

 ------------------------------------------------------
 Input file generated by CHIRIPA (05-May-2021 14:55:22)
 ------------------------------------------------------
 Symbolic Z-matrix:
 Charge =  0 Multiplicity = 1

                         Standard orientation:
 ---------------------------------------------------------------------
 Center     Atomic      Atomic             Coordinates (Angstroms)
 Number     Number       Type             X           Y           Z
 ---------------------------------------------------------------------
      1          6           0       -2.050005    1.986046    1.695353
      2          6           0       -1.792186    0.630718    1.925863
      3          6           0       -2.073550   -0.322751    0.942868
      4          6           0       -2.614753    0.116192   -0.264492
      5          6           0       -2.882870    1.459315   -0.524157
      6          6           0       -2.593565    2.395298    0.473233
      7          1           0       -1.828351    2.719932    2.464559
      8          1           0       -1.370083    0.310002    2.874028
      9          1           0       -1.883878   -1.378376    1.094848
     10          1           0       -3.303993    1.748617   -1.479341
     11          1           0       -2.794831    3.447195    0.291441
     12          7           0       -2.916824   -0.883947   -1.312765
     13          8           0       -3.393329   -0.471570   -2.368002
     14          8           0       -2.671360   -2.061295   -1.059315
     15          6           0        3.505414    0.303147   -0.190245
     16          6           0        4.938529    0.274305   -0.722538
     17          6           0        5.368621    1.607633   -1.334953
     18          1           0        2.822441    0.569760   -1.008420
     19          1           0        3.417176    1.098843    0.562402
     20          1           0        5.024389   -0.522010   -1.472956
     21          1           0        5.618149    0.007543    0.096956
     22          1           0        5.311375    2.409315   -0.591562
     23          1           0        4.714240    1.876753   -2.170394
     24          1           0        6.396244    1.564669   -1.709121
     25          6           0        3.060906   -1.022576    0.425059
     26          6           0        1.627791   -0.993734    0.957351
     27          6           0        1.197699   -2.327062    1.569766
     28          1           0        3.149143   -1.818272   -0.327588
     29          1           0        3.743879   -1.289189    1.243233
     30          1           0        0.948170   -0.726972    0.137859
     31          1           0        1.541931   -0.197420    1.707769
     32          1           0        1.852080   -2.596183    2.405208
     33          1           0        1.254945   -3.128744    0.826376
     34          1           0        0.170075   -2.284098    1.943935
 ---------------------------------------------------------------------

 SCF Done:  E(RHF) =  -669.534897598     A.U. after   15 cycles
 E2 =    -0.2092856641D+01 EUMP2 =    -0.67162775423886D+03

 The electronic state is 1-A.
 Alpha  occ. eigenvalues --  -20.60778 -20.60772 -15.85830 -11.31182 -11.27756
 Alpha  occ. eigenvalues --  -11.27732 -11.27497 -11.26766 -11.26753 -11.21849
 Alpha  occ. eigenvalues --  -11.21711 -11.21566 -11.21505 -11.21466 -11.21182
 Alpha  occ. eigenvalues --   -1.59854  -1.39407  -1.19361  -1.08756  -1.08611
 Alpha  occ. eigenvalues --   -1.04772  -1.03737  -0.96207  -0.95590  -0.87217
 Alpha  occ. eigenvalues --   -0.86160  -0.82426  -0.79799  -0.78418  -0.77474
 Alpha  occ. eigenvalues --   -0.72049  -0.71180  -0.70484  -0.65244  -0.65016
 Alpha  occ. eigenvalues --   -0.64763  -0.62199  -0.61121  -0.59561  -0.57817
 Alpha  occ. eigenvalues --   -0.55467  -0.55259  -0.53110  -0.53015  -0.52775
 Alpha  occ. eigenvalues --   -0.52553  -0.50112  -0.48806  -0.48803  -0.48118
 Alpha  occ. eigenvalues --   -0.46814  -0.45959  -0.45872  -0.44812  -0.44003
 Alpha  occ. eigenvalues --   -0.37337  -0.36307
 Alpha virt. eigenvalues --    0.05043   0.11222   0.16484   0.20236   0.22850
 Alpha virt. eigenvalues --    0.23946   0.26216   0.26453   0.27165   0.27969
 Alpha virt. eigenvalues --    0.29080   0.30151   0.31224   0.31507   0.31863

 Mulliken charges:
               1
     1  C   -0.171246
     2  C   -0.216962
     3  C   -0.172336
     4  C    0.157696
     5  C   -0.170918
     6  C   -0.218574
     7  H    0.225533
     8  H    0.223712
     9  H    0.280115
    10  H    0.275494
    11  H    0.223422
    12  N    0.487822
    13  O   -0.460541
    14  O   -0.460413
    15  C   -0.298186
    16  C   -0.299921
    17  C   -0.475796
    18  H    0.151594
    19  H    0.146870
    20  H    0.153823
    21  H    0.151537
    22  H    0.153752
    23  H    0.155998
    24  H    0.160917
    25  C   -0.299210
    26  C   -0.300722
    27  C   -0.476355
    28  H    0.153205
    29  H    0.148787
    30  H    0.157170
    31  H    0.145681
    32  H    0.155741
    33  H    0.164889
    34  H    0.147421
 Sum of Mulliken charges =  -0.00000

 Dipole moment (field-independent basis, Debye):
    X=              1.1162    Y=              3.4982    Z=              3.6117  Tot=              5.1506
 Quadrupole moment (field-independent basis, Debye-Ang):
   XX=           -100.5854   YY=            -92.1369   ZZ=            -94.9232
   XY=            -11.0914   XZ=             -8.5045   YZ=             -2.1274

 Normal termination of Gaussian 16 at Thu May  6 09:25:21 2021.
