 Gaussian 16, Revision A.03,
 Gaussian 16:  EM64L-G16RevA.03 25-Dec-2016

 -------------
 #p 6-31g* mp2
 -------------

 ------------------------------------------------------
 Input file generated by CHIRIPA (05-May-2021 14:51:07)
 ------------------------------------------------------
 Symbolic Z-matrix:
 Charge =  0 Multiplicity = 1

                         Standard orientation:
 ---------------------------------------------------------------------
 Center     Atomic      Atomic             Coordinates (Angstroms)
 Number     Number       Type             X           Y           Z
 ---------------------------------------------------------------------
      1          6           0       -3.034527    1.248646    0.060409
      2          6           0       -1.549027    1.074709    0.378244
      3          6           0       -0.823332    2.408153    0.560143
      4          1           0       -3.139637    1.852306   -0.851452
      5          1           0       -3.511129    1.819135    0.869599
      6          1           0       -1.075653    0.503524   -0.430633
      7          1           0       -1.447437    0.471231    1.289347
      8          1           0       -1.268931    2.980526    1.380162
      9          1           0       -0.895034    3.013003   -0.349591
     10          1           0        0.237209    2.260423    0.786612
     11          6           0       -3.773640   -0.075497   -0.124216
     12          6           0       -5.259141    0.098440   -0.442050
     13          6           0       -5.984836   -1.235005   -0.623949
     14          1           0       -3.297039   -0.645987   -0.933405
     15          1           0       -3.668531   -0.679157    0.787646
     16          1           0       -5.360730    0.701918   -1.353154
     17          1           0       -5.732515    0.669624    0.366827
     18          1           0       -5.913134   -1.839855    0.285785
     19          1           0       -5.539237   -1.807378   -1.443968
     20          1           0       -7.045377   -1.087274   -0.850418
     21          6           0        3.867787    0.019914    0.056091
     22          6           0        5.198439   -0.205124   -0.662732
     23          6           0        6.115279    1.017144   -0.605637
     24          1           0        3.357864    0.883794   -0.391830
     25          1           0        4.065270    0.282634    1.104601
     26          1           0        4.998462   -0.468696   -1.709228
     27          1           0        5.705165   -1.068688   -0.213173
     28          1           0        6.343966    1.279017    0.432498
     29          1           0        5.633246    1.882418   -1.072056
     30          1           0        7.060840    0.834364   -1.125604
     31          6           0        2.940381   -1.193062    0.007715
     32          6           0        1.609728   -0.968025    0.726538
     33          6           0        0.692889   -2.190292    0.669444
     34          1           0        2.742898   -1.455783   -1.040795
     35          1           0        3.450304   -2.056943    0.455636
     36          1           0        1.103002   -0.104461    0.276979
     37          1           0        1.809706   -0.704452    1.773034
     38          1           0        1.174922   -3.055566    1.135863
     39          1           0        0.464201   -2.452166   -0.368692
     40          1           0       -0.252672   -2.007512    1.189410
 ---------------------------------------------------------------------

 SCF Done:  E(RHF) =  -470.732354791     A.U. after   11 cycles
 E2 =    -0.1584058994D+01 EUMP2 =    -0.47231641378490D+03

 The electronic state is 1-A.
 Alpha  occ. eigenvalues --  -11.21607 -11.21600 -11.21588 -11.21473 -11.21411
 Alpha  occ. eigenvalues --  -11.21376 -11.21352 -11.21308 -11.21079 -11.21071
 Alpha  occ. eigenvalues --  -11.21059 -11.20993  -1.08466  -1.08371  -1.03609
 Alpha  occ. eigenvalues --   -1.03427  -0.96011  -0.95923  -0.87019  -0.86941
 Alpha  occ. eigenvalues --   -0.79698  -0.79491  -0.78351  -0.78115  -0.65134
 Alpha  occ. eigenvalues --   -0.64985  -0.61073  -0.60823  -0.59580  -0.59111
 Alpha  occ. eigenvalues --   -0.57753  -0.57361  -0.55289  -0.55213  -0.52737
 Alpha  occ. eigenvalues --   -0.52576  -0.52488  -0.52308  -0.49935  -0.49875
 Alpha  occ. eigenvalues --   -0.47921  -0.47865  -0.46759  -0.46482  -0.45891
 Alpha  occ. eigenvalues --   -0.45739  -0.45719  -0.45464  -0.43795  -0.43737
 Alpha virt. eigenvalues --    0.21333   0.23093   0.23627   0.24437   0.25592
 Alpha virt. eigenvalues --    0.26287   0.26702   0.27190   0.28747   0.29249
 Alpha virt. eigenvalues --    0.30311   0.31247   0.31564   0.31906   0.32438

 Mulliken charges:
               1
     1  C   -0.297621
     2  C   -0.303175
     3  C   -0.479599
     4  H    0.149465
     5  H    0.149401
     6  H    0.153342
     7  H    0.154782
     8  H    0.155713
     9  H    0.154831
    10  H    0.163103
    11  C   -0.298394
    12  C   -0.299643
    13  C   -0.475691
    14  H    0.149798
    15  H    0.149323
    16  H    0.151924
    17  H    0.151931
    18  H    0.155250
    19  H    0.155251
    20  H    0.160244
    21  C   -0.298636
    22  C   -0.299526
    23  C   -0.475721
    24  H    0.149276
    25  H    0.149389
    26  H    0.151834
    27  H    0.152020
    28  H    0.155163
    29  H    0.155182
    30  H    0.160196
    31  C   -0.297361
    32  C   -0.308709
    33  C   -0.476416
    34  H    0.148821
    35  H    0.149315
    36  H    0.163741
    37  H    0.150544
    38  H    0.154542
    39  H    0.153977
    40  H    0.162137
 Sum of Mulliken charges =  -0.00000

 Dipole moment (field-independent basis, Debye):
    X=             -0.0319    Y=              0.0165    Z=              0.0029  Tot=              0.0360
 Quadrupole moment (field-independent basis, Debye-Ang):
   XX=            -85.7551   YY=            -86.1734   ZZ=            -83.0293
   XY=             -1.2851   XZ=              0.0518   YZ=             -0.4151

 Normal termination of Gaussian 16 at Thu May  6 05:14:42 2021.
