 Gaussian 16, Revision A.03,
 Gaussian 16:  EM64L-G16RevA.03 25-Dec-2016

 -------------
 #p 6-31g* mp2
 -------------

 ------------------------------------------------------
 Input file generated by CHIRIPA (05-May-2021 14:51:13)
 ------------------------------------------------------
 Symbolic Z-matrix:
 Charge =  0 Multiplicity = 1

                         Standard orientation:
 ---------------------------------------------------------------------
 Center     Atomic      Atomic             Coordinates (Angstroms)
 Number     Number       Type             X           Y           Z
 ---------------------------------------------------------------------
      1          6           0        3.763197    0.959747   -0.232621
      2          6           0        2.659988    1.648845    0.571157
      3          6           0        2.186959    2.953019   -0.071625
      4          1           0        4.613659    1.646881   -0.339896
      5          1           0        3.395292    0.756846   -1.247940
      6          1           0        3.029394    1.849139    1.585079
      7          1           0        1.812131    0.959922    0.676695
      8          1           0        1.792900    2.766749   -1.075927
      9          1           0        3.017080    3.661018   -0.162382
     10          1           0        1.398253    3.428920    0.519407
     11          6           0        4.246551   -0.345378    0.397258
     12          6           0        5.349760   -1.034476   -0.406520
     13          6           0        5.822788   -2.338649    0.236262
     14          1           0        4.614456   -0.142476    1.412576
     15          1           0        3.396089   -1.032511    0.504533
     16          1           0        6.197617   -0.345553   -0.512058
     17          1           0        4.980354   -1.234770   -1.420442
     18          1           0        4.992668   -3.046649    0.327019
     19          1           0        6.216848   -2.152379    1.240564
     20          1           0        6.611495   -2.814551   -0.354771
     21          6           0       -3.339595   -0.682452   -0.085503
     22          6           0       -2.140132    0.212424   -0.399303
     23          6           0       -0.816388   -0.552747   -0.402015
     24          1           0       -3.187701   -1.158671    0.892807
     25          1           0       -3.385806   -1.494307   -0.824524
     26          1           0       -2.097005    1.023142    0.339271
     27          1           0       -2.294988    0.686717   -1.376893
     28          1           0       -0.834377   -1.351001   -1.151061
     29          1           0       -0.635269   -1.012663    0.574854
     30          1           0        0.027692    0.106094   -0.628548
     31          6           0       -4.670153    0.068083   -0.079135
     32          6           0       -5.869615   -0.826793    0.234667
     33          6           0       -7.193360   -0.061622    0.237379
     34          1           0       -4.623941    0.879937    0.659886
     35          1           0       -4.822047    0.544300   -1.057444
     36          1           0       -5.714760   -1.301086    1.212257
     37          1           0       -5.912743   -1.637513   -0.503908
     38          1           0       -7.374479    0.398293   -0.739491
     39          1           0       -7.175371    0.736631    0.986425
     40          1           0       -8.037440   -0.720464    0.463910
 ---------------------------------------------------------------------

 SCF Done:  E(RHF) =  -470.733232085     A.U. after   11 cycles
 E2 =    -0.1582603117D+01 EUMP2 =    -0.47231583520200D+03

 The electronic state is 1-A.
 Alpha  occ. eigenvalues --  -11.21642 -11.21617 -11.21568 -11.21528 -11.21429
 Alpha  occ. eigenvalues --  -11.21369 -11.21367 -11.21307 -11.21126 -11.21082
 Alpha  occ. eigenvalues --  -11.21063 -11.21042  -1.08459  -1.08393  -1.03573
 Alpha  occ. eigenvalues --   -1.03490  -0.96022  -0.95946  -0.87043  -0.86960
 Alpha  occ. eigenvalues --   -0.79652  -0.79535  -0.78269  -0.78203  -0.65098
 Alpha  occ. eigenvalues --   -0.65036  -0.61018  -0.60913  -0.59402  -0.59265
 Alpha  occ. eigenvalues --   -0.57642  -0.57532  -0.55309  -0.55231  -0.52738
 Alpha  occ. eigenvalues --   -0.52636  -0.52442  -0.52364  -0.49976  -0.49873
 Alpha  occ. eigenvalues --   -0.47988  -0.47833  -0.46686  -0.46553  -0.45811
 Alpha  occ. eigenvalues --   -0.45755  -0.45727  -0.45662  -0.43792  -0.43730
 Alpha virt. eigenvalues --    0.20912   0.23010   0.23750   0.25050   0.26308
 Alpha virt. eigenvalues --    0.26617   0.27172   0.27509   0.28055   0.28912
 Alpha virt. eigenvalues --    0.30756   0.31314   0.31691   0.31832   0.31982

 Mulliken charges:
               1
     1  C   -0.298306
     2  C   -0.306512
     3  C   -0.476100
     4  H    0.149566
     5  H    0.149233
     6  H    0.151932
     7  H    0.158549
     8  H    0.154798
     9  H    0.155380
    10  H    0.160205
    11  C   -0.298577
    12  C   -0.299615
    13  C   -0.475720
    14  H    0.149310
    15  H    0.150568
    16  H    0.151765
    17  H    0.151974
    18  H    0.155321
    19  H    0.155056
    20  H    0.160112
    21  C   -0.298521
    22  C   -0.299373
    23  C   -0.481757
    24  H    0.149741
    25  H    0.149555
    26  H    0.152472
    27  H    0.152099
    28  H    0.155203
    29  H    0.155147
    30  H    0.166196
    31  C   -0.298315
    32  C   -0.299676
    33  C   -0.475723
    34  H    0.149637
    35  H    0.149721
    36  H    0.151979
    37  H    0.151933
    38  H    0.155211
    39  H    0.155231
    40  H    0.160303
 Sum of Mulliken charges =  -0.00000

 Dipole moment (field-independent basis, Debye):
    X=             -0.0284    Y=             -0.0080    Z=              0.0016  Tot=              0.0296
 Quadrupole moment (field-independent basis, Debye-Ang):
   XX=            -85.6124   YY=            -85.6241   ZZ=            -83.6169
   XY=              1.2155   XZ=              0.3869   YZ=              0.7898

 Normal termination of Gaussian 16 at Wed May  5 15:21:39 2021.
