 Gaussian 16, Revision A.03,
 Gaussian 16:  EM64L-G16RevA.03 25-Dec-2016

 -------------
 #p 6-31g* mp2
 -------------

 ------------------------------------------------------
 Input file generated by CHIRIPA (05-May-2021 14:57:23)
 ------------------------------------------------------
 Symbolic Z-matrix:
 Charge =  0 Multiplicity = 1

                         Standard orientation:
 ---------------------------------------------------------------------
 Center     Atomic      Atomic             Coordinates (Angstroms)
 Number     Number       Type             X           Y           Z
 ---------------------------------------------------------------------
      1          6           0       -2.294848    2.463777    0.778752
      2          6           0       -1.652580    1.497831    1.560393
      3          6           0       -1.778743    0.139234    1.255690
      4          6           0       -2.558461   -0.219605    0.157253
      5          6           0       -3.210707    0.719122   -0.640655
      6          6           0       -3.070493    2.072030   -0.317345
      7          1           0       -2.191384    3.516958    1.022680
      8          1           0       -1.049563    1.799157    2.412226
      9          1           0       -1.292409   -0.629453    1.843923
     10          1           0       -3.805078    0.388078   -1.483597
     11          1           0       -3.570428    2.820007   -0.926149
     12          7           0       -2.699461   -1.654879   -0.175172
     13          8           0       -3.392089   -1.945125   -1.148137
     14          8           0       -2.114679   -2.462425    0.543533
     15          6           0        2.689619   -2.493727    0.243632
     16          6           0        1.575948   -1.972777   -0.423353
     17          6           0        1.479788   -0.602076   -0.681190
     18          6           0        2.520296    0.222500   -0.256093
     19          6           0        3.642681   -0.266372    0.410650
     20          6           0        3.717619   -1.640367    0.657774
     21          1           0        2.756076   -3.559800    0.439765
     22          1           0        0.776084   -2.633135   -0.746135
     23          1           0        0.628922   -0.172158   -1.195598
     24          1           0        4.424153    0.416902    0.720255
     25          1           0        4.583695   -2.042154    1.175967
     26          7           0        2.429729    1.675344   -0.523383
     27          8           0        3.359818    2.380693   -0.138606
     28          8           0        1.430369    2.081223   -1.112602
 ---------------------------------------------------------------------

 SCF Done:  E(RHF) =  -868.340274973     A.U. after   16 cycles
 E2 =    -0.2600815951D+01 EUMP2 =    -0.87094109092458D+03

 The electronic state is 1-A.
 Alpha  occ. eigenvalues --  -20.61258 -20.61230 -20.60887 -20.60876 -15.86266
 Alpha  occ. eigenvalues --  -15.85922 -11.31250 -11.31085 -11.27784 -11.27769
 Alpha  occ. eigenvalues --  -11.27635 -11.27548 -11.27363 -11.27235 -11.26650
 Alpha  occ. eigenvalues --  -11.26630 -11.26609 -11.26400  -1.60330  -1.59966
 Alpha  occ. eigenvalues --   -1.39887  -1.39521  -1.19379  -1.19214  -1.08820
 Alpha  occ. eigenvalues --   -1.08634  -1.04719  -1.04561  -0.95723  -0.95513
 Alpha  occ. eigenvalues --   -0.86126  -0.85955  -0.82575  -0.82338  -0.77687
 Alpha  occ. eigenvalues --   -0.77422  -0.72485  -0.72147  -0.71669  -0.71291
 Alpha  occ. eigenvalues --   -0.70438  -0.70289  -0.65018  -0.64846  -0.64696
 Alpha  occ. eigenvalues --   -0.64513  -0.62076  -0.61896  -0.55174  -0.55044
 Alpha  occ. eigenvalues --   -0.53178  -0.52900  -0.52771  -0.52536  -0.49266
 Alpha  occ. eigenvalues --   -0.49210  -0.48912  -0.48886  -0.45361  -0.44971
 Alpha  occ. eigenvalues --   -0.37328  -0.37159  -0.36487  -0.35921
 Alpha virt. eigenvalues --    0.04765   0.05079   0.11176   0.11664   0.16366
 Alpha virt. eigenvalues --    0.16653   0.21552   0.21736   0.27412   0.27452
 Alpha virt. eigenvalues --    0.28386   0.28542   0.31128   0.31470   0.32420

 Mulliken charges:
               1
     1  C   -0.160887
     2  C   -0.216186
     3  C   -0.173267
     4  C    0.150772
     5  C   -0.171738
     6  C   -0.215683
     7  H    0.230639
     8  H    0.225297
     9  H    0.273738
    10  H    0.274868
    11  H    0.225713
    12  N    0.485821
    13  O   -0.458584
    14  O   -0.466975
    15  C   -0.172098
    16  C   -0.220002
    17  C   -0.176293
    18  C    0.155538
    19  C   -0.173578
    20  C   -0.219086
    21  H    0.228724
    22  H    0.240066
    23  H    0.274873
    24  H    0.273448
    25  H    0.222635
    26  N    0.487380
    27  O   -0.462797
    28  O   -0.462338
 Sum of Mulliken charges =  -0.00000

 Dipole moment (field-independent basis, Debye):
    X=              0.6500    Y=              0.0671    Z=              2.1190  Tot=              2.2175
 Quadrupole moment (field-independent basis, Debye-Ang):
   XX=           -101.1259   YY=           -109.3038   ZZ=           -101.8911
   XY=            -27.2336   XZ=              4.2931   YZ=              1.6154

 Normal termination of Gaussian 16 at Thu May  6 08:10:50 2021.
