 Gaussian 16, Revision A.03,
 Gaussian 16:  EM64L-G16RevA.03 25-Dec-2016

 -------------
 #p 6-31g* mp2
 -------------

 ------------------------------------------------------
 Input file generated by CHIRIPA (05-May-2021 14:51:13)
 ------------------------------------------------------
 Symbolic Z-matrix:
 Charge =  0 Multiplicity = 1

                         Standard orientation:
 ---------------------------------------------------------------------
 Center     Atomic      Atomic             Coordinates (Angstroms)
 Number     Number       Type             X           Y           Z
 ---------------------------------------------------------------------
      1          6           0        2.328752   -1.193648    0.646037
      2          6           0        1.026880   -1.988680    0.540974
      3          6           0        0.844235   -2.978616    1.691826
      4          1           0        3.176559   -1.891963    0.668944
      5          1           0        2.343609   -0.652501    1.602246
      6          1           0        1.013865   -2.527071   -0.415363
      7          1           0        0.182085   -1.288383    0.518122
      8          1           0        0.831108   -2.454111    2.652723
      9          1           0        1.667614   -3.699837    1.713934
     10          1           0       -0.092736   -3.536224    1.596857
     11          6           0        2.525627   -0.199809   -0.497313
     12          6           0        3.827500    0.595223   -0.392250
     13          6           0        4.010145    1.585160   -1.543102
     14          1           0        2.510770   -0.740955   -1.453522
     15          1           0        1.677821    0.498507   -0.520221
     16          1           0        4.672295   -0.105074   -0.369398
     17          1           0        3.840515    1.133615    0.564087
     18          1           0        3.186765    2.306380   -1.565210
     19          1           0        4.023271    1.060654   -2.503999
     20          1           0        4.947116    2.142767   -1.448133
     21          6           0       -2.693169    0.330017   -0.689350
     22          6           0       -3.035883   -1.135635   -0.420293
     23          6           0       -3.566726   -1.855840   -1.660174
     24          1           0       -3.588623    0.847218   -1.060310
     25          1           0       -1.946022    0.383006   -1.493315
     26          1           0       -3.781137   -1.185908    0.383874
     27          1           0       -2.139557   -1.649361   -0.049748
     28          1           0       -2.824653   -1.835344   -2.464852
     29          1           0       -4.475559   -1.369258   -2.028766
     30          1           0       -3.805365   -2.902143   -1.445316
     31          6           0       -2.161211    1.063439    0.540626
     32          6           0       -1.818497    2.529092    0.271569
     33          6           0       -1.287654    3.249297    1.511450
     34          1           0       -2.908357    1.010450    1.344590
     35          1           0       -1.265757    0.546239    0.911587
     36          1           0       -2.714822    3.042818   -0.098975
     37          1           0       -1.073243    2.579365   -0.532598
     38          1           0       -0.378820    2.762714    1.880043
     39          1           0       -2.029727    3.228801    2.316128
     40          1           0       -1.049014    4.295599    1.296593
 ---------------------------------------------------------------------

 SCF Done:  E(RHF) =  -470.732825243     A.U. after   11 cycles
 E2 =    -0.1584345911D+01 EUMP2 =    -0.47231717115403D+03

 The electronic state is 1-A.
 Alpha  occ. eigenvalues --  -11.21654 -11.21651 -11.21640 -11.21558 -11.21474
 Alpha  occ. eigenvalues --  -11.21431 -11.21414 -11.21364 -11.21127 -11.21120
 Alpha  occ. eigenvalues --  -11.21110 -11.21051  -1.08521  -1.08433  -1.03597
 Alpha  occ. eigenvalues --   -1.03536  -0.96033  -0.96000  -0.87047  -0.87015
 Alpha  occ. eigenvalues --   -0.79688  -0.79595  -0.78408  -0.78178  -0.65388
 Alpha  occ. eigenvalues --   -0.64867  -0.61048  -0.60900  -0.59434  -0.59329
 Alpha  occ. eigenvalues --   -0.57649  -0.57605  -0.55331  -0.55282  -0.52727
 Alpha  occ. eigenvalues --   -0.52687  -0.52463  -0.52418  -0.49982  -0.49944
 Alpha  occ. eigenvalues --   -0.48053  -0.47902  -0.46886  -0.46644  -0.46162
 Alpha  occ. eigenvalues --   -0.45802  -0.45753  -0.45131  -0.43838  -0.43799
 Alpha virt. eigenvalues --    0.19565   0.22548   0.23731   0.24615   0.25726
 Alpha virt. eigenvalues --    0.26850   0.26961   0.27322   0.28157   0.29984
 Alpha virt. eigenvalues --    0.30708   0.31528   0.31590   0.31715   0.32341

 Mulliken charges:
               1
     1  C   -0.297263
     2  C   -0.311589
     3  C   -0.476361
     4  H    0.150122
     5  H    0.149266
     6  H    0.152025
     7  H    0.162297
     8  H    0.155422
     9  H    0.155665
    10  H    0.161066
    11  C   -0.299675
    12  C   -0.299643
    13  C   -0.475760
    14  H    0.149742
    15  H    0.149519
    16  H    0.152268
    17  H    0.152114
    18  H    0.155150
    19  H    0.155220
    20  H    0.160550
    21  C   -0.298219
    22  C   -0.306498
    23  C   -0.475331
    24  H    0.149910
    25  H    0.150042
    26  H    0.151566
    27  H    0.159351
    28  H    0.155332
    29  H    0.154976
    30  H    0.159993
    31  C   -0.305204
    32  C   -0.299808
    33  C   -0.475741
    34  H    0.150019
    35  H    0.154589
    36  H    0.152470
    37  H    0.151865
    38  H    0.154483
    39  H    0.155535
    40  H    0.160535
 Sum of Mulliken charges =  -0.00000

 Dipole moment (field-independent basis, Debye):
    X=              0.0101    Y=             -0.0089    Z=              0.0047  Tot=              0.0142
 Quadrupole moment (field-independent basis, Debye-Ang):
   XX=            -83.8467   YY=            -85.1683   ZZ=            -85.6609
   XY=             -1.1196   XZ=             -0.6432   YZ=              0.5024

 Normal termination of Gaussian 16 at Wed May  5 15:20:38 2021.
