 Gaussian 16, Revision A.03,
 Gaussian 16:  EM64L-G16RevA.03 25-Dec-2016

 -------------
 #p 6-31g* mp2
 -------------

 ------------------------------------------------------
 Input file generated by CHIRIPA (05-May-2021 14:51:11)
 ------------------------------------------------------
 Symbolic Z-matrix:
 Charge =  0 Multiplicity = 1

                         Standard orientation:
 ---------------------------------------------------------------------
 Center     Atomic      Atomic             Coordinates (Angstroms)
 Number     Number       Type             X           Y           Z
 ---------------------------------------------------------------------
      1          6           0        4.487330   -0.031909   -0.115941
      2          6           0        5.061435    1.355167    0.174589
      3          6           0        6.572736    1.427450   -0.045729
      4          1           0        4.988417   -0.770653    0.524460
      5          1           0        4.721165   -0.307911   -1.153505
      6          1           0        4.825389    1.629054    1.210873
      7          1           0        4.558788    2.090721   -0.466443
      8          1           0        6.823208    1.179808   -1.082328
      9          1           0        7.091323    0.715517    0.604517
     10          1           0        6.962169    2.427774    0.167704
     11          6           0        2.977552   -0.120020    0.099778
     12          6           0        2.403446   -1.507096   -0.190753
     13          6           0        0.892145   -1.579379    0.029565
     14          1           0        2.743716    0.155982    1.137342
     15          1           0        2.476464    0.618723   -0.540624
     16          1           0        2.906093   -2.242650    0.450279
     17          1           0        2.639492   -1.780983   -1.227036
     18          1           0        0.373558   -0.867446   -0.620681
     19          1           0        0.641673   -1.331737    1.066165
     20          1           0        0.502712   -2.579703   -0.183867
     21          6           0       -4.005251    0.678600   -0.373804
     22          6           0       -4.296965    1.882841    0.522126
     23          6           0       -4.842144    3.080557   -0.256368
     24          1           0       -3.284614    0.972527   -1.149198
     25          1           0       -4.926631    0.388167   -0.897353
     26          1           0       -3.375633    2.170054    1.044880
     27          1           0       -5.016846    1.585962    1.295592
     28          1           0       -5.775123    2.817057   -0.765014
     29          1           0       -4.124585    3.404468   -1.017151
     30          1           0       -5.043722    3.930180    0.403455
     31          6           0       -3.459631   -0.526671    0.389968
     32          6           0       -3.167916   -1.730912   -0.505962
     33          6           0       -2.622737   -2.928628    0.272532
     34          1           0       -2.538251   -0.236239    0.913516
     35          1           0       -4.180268   -0.820598    1.165361
     36          1           0       -2.448036   -1.434033   -1.279429
     37          1           0       -4.089249   -2.018125   -1.028716
     38          1           0       -3.340297   -3.252539    1.033315
     39          1           0       -1.689759   -2.665128    0.781178
     40          1           0       -2.421159   -3.778251   -0.387292
 ---------------------------------------------------------------------

 SCF Done:  E(RHF) =  -470.732649478     A.U. after   11 cycles
 E2 =    -0.1583134193D+01 EUMP2 =    -0.47231578367079D+03

 The electronic state is 1-A.
 Alpha  occ. eigenvalues --  -11.21647 -11.21630 -11.21562 -11.21488 -11.21446
 Alpha  occ. eigenvalues --  -11.21385 -11.21339 -11.21269 -11.21135 -11.21093
 Alpha  occ. eigenvalues --  -11.21043 -11.20874  -1.08475  -1.08353  -1.03595
 Alpha  occ. eigenvalues --   -1.03431  -0.96073  -0.95862  -0.87105  -0.86873
 Alpha  occ. eigenvalues --   -0.79678  -0.79489  -0.78288  -0.78167  -0.65105
 Alpha  occ. eigenvalues --   -0.64987  -0.60980  -0.60893  -0.59395  -0.59265
 Alpha  occ. eigenvalues --   -0.57644  -0.57512  -0.55340  -0.55214  -0.52766
 Alpha  occ. eigenvalues --   -0.52591  -0.52442  -0.52266  -0.50044  -0.49737
 Alpha  occ. eigenvalues --   -0.47981  -0.47805  -0.46746  -0.46472  -0.45856
 Alpha  occ. eigenvalues --   -0.45760  -0.45684  -0.45598  -0.43774  -0.43706
 Alpha virt. eigenvalues --    0.21263   0.22961   0.23765   0.24837   0.26138
 Alpha virt. eigenvalues --    0.26280   0.27336   0.27448   0.27898   0.29175
 Alpha virt. eigenvalues --    0.30523   0.30938   0.31648   0.31902   0.32380

 Mulliken charges:
               1
     1  C   -0.298321
     2  C   -0.299643
     3  C   -0.475727
     4  H    0.149784
     5  H    0.149614
     6  H    0.151955
     7  H    0.151909
     8  H    0.155228
     9  H    0.155246
    10  H    0.160342
    11  C   -0.298615
    12  C   -0.300462
    13  C   -0.479532
    14  H    0.149504
    15  H    0.149397
    16  H    0.152309
    17  H    0.152148
    18  H    0.156182
    19  H    0.154534
    20  H    0.165118
    21  C   -0.298072
    22  C   -0.299613
    23  C   -0.475632
    24  H    0.149015
    25  H    0.149372
    26  H    0.151899
    27  H    0.151862
    28  H    0.155119
    29  H    0.154988
    30  H    0.160103
    31  C   -0.299587
    32  C   -0.299473
    33  C   -0.481489
    34  H    0.150878
    35  H    0.149263
    36  H    0.152643
    37  H    0.151148
    38  H    0.153757
    39  H    0.164761
    40  H    0.158089
 Sum of Mulliken charges =  -0.00000

 Dipole moment (field-independent basis, Debye):
    X=              0.0614    Y=             -0.0099    Z=              0.0071  Tot=              0.0626
 Quadrupole moment (field-independent basis, Debye-Ang):
   XX=            -85.4076   YY=            -85.6197   ZZ=            -84.0055
   XY=              0.3250   XZ=             -0.0507   YZ=              0.0952

 Normal termination of Gaussian 16 at Wed May  5 19:50:32 2021.
