 Gaussian 16, Revision A.03,
 Gaussian 16:  EM64L-G16RevA.03 25-Dec-2016

 -------------
 #p 6-31g* mp2
 -------------

 ------------------------------------------------------
 Input file generated by CHIRIPA (05-May-2021 14:55:22)
 ------------------------------------------------------
 Symbolic Z-matrix:
 Charge =  0 Multiplicity = 1

                         Standard orientation:
 ---------------------------------------------------------------------
 Center     Atomic      Atomic             Coordinates (Angstroms)
 Number     Number       Type             X           Y           Z
 ---------------------------------------------------------------------
      1          6           0        6.272002    0.442859    0.038267
      2          6           0        5.369700    1.505300    0.154844
      3          6           0        3.993128    1.281741    0.056762
      4          6           0        3.551614   -0.022769   -0.159129
      5          6           0        4.425560   -1.102122   -0.279567
      6          6           0        5.797889   -0.855173   -0.178185
      7          1           0        7.339708    0.625610    0.115742
      8          1           0        5.735049    2.514408    0.322965
      9          1           0        3.272501    2.085879    0.143226
     10          1           0        4.031290   -2.097088   -0.446931
     11          1           0        6.496313   -1.682204   -0.269117
     12          7           0        2.096545   -0.271822   -0.264711
     13          8           0        1.732959   -1.430352   -0.455104
     14          8           0        1.347200    0.696217   -0.155075
     15          6           0       -5.600681   -0.017320    0.337639
     16          6           0       -6.468149    0.359519   -0.863810
     17          6           0       -7.961453    0.367305   -0.535515
     18          1           0       -5.902371   -1.008435    0.703177
     19          1           0       -5.793378    0.689761    1.156356
     20          1           0       -6.272853   -0.347235   -1.680494
     21          1           0       -6.164229    1.349770   -1.226648
     22          1           0       -8.176788    1.085615    0.262146
     23          1           0       -8.286028   -0.621032   -0.194278
     24          1           0       -8.563004    0.639269   -1.408459
     25          6           0       -4.105371   -0.029471    0.025184
     26          6           0       -3.237903   -0.406311    1.226632
     27          6           0       -1.744599   -0.414097    0.898338
     28          1           0       -3.912674   -0.736552   -0.793533
     29          1           0       -3.803680    0.961644   -0.340354
     30          1           0       -3.541822   -1.396561    1.589472
     31          1           0       -3.433199    0.300443    2.043317
     32          1           0       -1.420024    0.574240    0.557101
     33          1           0       -1.529265   -1.132407    0.100677
     34          1           0       -1.143047   -0.686061    1.771283
 ---------------------------------------------------------------------

 SCF Done:  E(RHF) =  -669.535859984     A.U. after   15 cycles
 E2 =    -0.2091505998D+01 EUMP2 =    -0.67162736598217D+03

 The electronic state is 1-A.
 Alpha  occ. eigenvalues --  -20.60914 -20.60909 -15.85936 -11.31283 -11.27846
 Alpha  occ. eigenvalues --  -11.27842 -11.27585 -11.26856 -11.26846 -11.20850
 Alpha  occ. eigenvalues --  -11.20466 -11.20459 -11.20195 -11.20091 -11.18887
 Alpha  occ. eigenvalues --   -1.59958  -1.39517  -1.19449  -1.08849  -1.07347
 Alpha  occ. eigenvalues --   -1.04849  -1.02327  -0.95692  -0.94727  -0.86248
 Alpha  occ. eigenvalues --   -0.85729  -0.82522  -0.78431  -0.77572  -0.77092
 Alpha  occ. eigenvalues --   -0.72153  -0.71274  -0.70558  -0.65105  -0.64851
 Alpha  occ. eigenvalues --   -0.63994  -0.62196  -0.59731  -0.58225  -0.56346
 Alpha  occ. eigenvalues --   -0.55352  -0.54017  -0.53180  -0.52940  -0.51438
 Alpha  occ. eigenvalues --   -0.51191  -0.48987  -0.48888  -0.48566  -0.46646
 Alpha  occ. eigenvalues --   -0.45500  -0.44929  -0.44584  -0.44515  -0.42584
 Alpha  occ. eigenvalues --   -0.37429  -0.36451
 Alpha virt. eigenvalues --    0.04955   0.11204   0.16453   0.21339   0.23850
 Alpha virt. eigenvalues --    0.25546   0.27254   0.27686   0.28203   0.28506
 Alpha virt. eigenvalues --    0.29378   0.30909   0.32384   0.32669   0.32738

 Mulliken charges:
               1
     1  C   -0.170651
     2  C   -0.218542
     3  C   -0.170829
     4  C    0.158432
     5  C   -0.170699
     6  C   -0.218576
     7  H    0.225918
     8  H    0.223743
     9  H    0.275636
    10  H    0.275824
    11  H    0.223761
    12  N    0.489398
    13  O   -0.459238
    14  O   -0.458436
    15  C   -0.297047
    16  C   -0.298814
    17  C   -0.475053
    18  H    0.147711
    19  H    0.147158
    20  H    0.151343
    21  H    0.150978
    22  H    0.153897
    23  H    0.154135
    24  H    0.158000
    25  C   -0.296822
    26  C   -0.302403
    27  C   -0.470026
    28  H    0.149411
    29  H    0.148948
    30  H    0.145710
    31  H    0.144990
    32  H    0.167396
    33  H    0.162990
    34  H    0.151758
 Sum of Mulliken charges =  -0.00000

 Dipole moment (field-independent basis, Debye):
    X=              5.5615    Y=              0.8967    Z=              0.2702  Tot=              5.6398
 Quadrupole moment (field-independent basis, Debye-Ang):
   XX=            -61.7398   YY=            -89.0897   ZZ=            -95.9564
   XY=              2.1617   XZ=              0.7866   YZ=              1.0049

 Normal termination of Gaussian 16 at Wed May  5 23:54:23 2021.
