 Gaussian 16, Revision A.03,
 Gaussian 16:  EM64L-G16RevA.03 25-Dec-2016

 -------------
 #p 6-31g* mp2
 -------------

 ------------------------------------------------------
 Input file generated by CHIRIPA (05-May-2021 14:55:22)
 ------------------------------------------------------
 Symbolic Z-matrix:
 Charge =  0 Multiplicity = 1

                         Standard orientation:
 ---------------------------------------------------------------------
 Center     Atomic      Atomic             Coordinates (Angstroms)
 Number     Number       Type             X           Y           Z
 ---------------------------------------------------------------------
      1          6           0        3.103183    2.496145   -0.376196
      2          6           0        1.972353    1.808399    0.076297
      3          6           0        1.982265    0.413976    0.176480
      4          6           0        3.145189   -0.263980   -0.185838
      5          6           0        4.287800    0.392739   -0.640204
      6          6           0        4.255266    1.787370   -0.732374
      7          1           0        3.086697    3.579446   -0.450908
      8          1           0        1.076236    2.356233    0.353598
      9          1           0        1.120877   -0.143601    0.523663
     10          1           0        5.166403   -0.180866   -0.909373
     11          1           0        5.134958    2.318847   -1.084112
     12          7           0        3.167656   -1.740302   -0.084020
     13          8           0        4.204596   -2.314369   -0.409350
     14          8           0        2.147901   -2.295424    0.319188
     15          6           0       -3.698395    0.202917    0.928793
     16          6           0       -2.186082   -0.021605    0.950819
     17          6           0       -1.554916    0.335903    2.296781
     18          1           0       -3.910089    1.254304    1.166941
     19          1           0       -4.162768   -0.397205    1.723529
     20          1           0       -1.724846    0.577697    0.155385
     21          1           0       -1.977955   -1.072535    0.712403
     22          1           0       -1.987873   -0.270910    3.098608
     23          1           0       -1.733326    1.388699    2.538425
     24          1           0       -0.473446    0.167855    2.290336
     25          6           0       -4.343808   -0.150017   -0.410090
     26          6           0       -5.856121    0.074505   -0.432116
     27          6           0       -6.487287   -0.283003   -1.778077
     28          1           0       -3.879435    0.450106   -1.204826
     29          1           0       -4.132114   -1.201404   -0.648238
     30          1           0       -6.064248    1.125436   -0.193700
     31          1           0       -6.317357   -0.524797    0.363318
     32          1           0       -6.308877   -1.335798   -2.019722
     33          1           0       -6.054329    0.323810   -2.579905
     34          1           0       -7.568758   -0.114953   -1.771633
 ---------------------------------------------------------------------

 SCF Done:  E(RHF) =  -669.535538232     A.U. after   15 cycles
 E2 =    -0.2091542655D+01 EUMP2 =    -0.67162708088728D+03

 The electronic state is 1-A.
 Alpha  occ. eigenvalues --  -20.60744 -20.60739 -15.85796 -11.31148 -11.27728
 Alpha  occ. eigenvalues --  -11.27687 -11.27471 -11.26746 -11.26726 -11.22076
 Alpha  occ. eigenvalues --  -11.21766 -11.21721 -11.21653 -11.21577 -11.21182
 Alpha  occ. eigenvalues --   -1.59819  -1.39373  -1.19326  -1.08734  -1.08725
 Alpha  occ. eigenvalues --   -1.04731  -1.03863  -0.96314  -0.95559  -0.87322
 Alpha  occ. eigenvalues --   -0.86127  -0.82392  -0.79925  -0.78524  -0.77440
 Alpha  occ. eigenvalues --   -0.72017  -0.71141  -0.70450  -0.65362  -0.64979
 Alpha  occ. eigenvalues --   -0.64742  -0.62171  -0.61239  -0.59653  -0.57910
 Alpha  occ. eigenvalues --   -0.55579  -0.55226  -0.53126  -0.53017  -0.52862
 Alpha  occ. eigenvalues --   -0.52593  -0.50231  -0.48773  -0.48770  -0.48243
 Alpha  occ. eigenvalues --   -0.46949  -0.46066  -0.45974  -0.44781  -0.44107
 Alpha  occ. eigenvalues --   -0.37312  -0.36325
 Alpha virt. eigenvalues --    0.05071   0.11304   0.16554   0.19602   0.22822
 Alpha virt. eigenvalues --    0.23753   0.26146   0.26254   0.27353   0.27755
 Alpha virt. eigenvalues --    0.29497   0.29854   0.31318   0.31517   0.31810

 Mulliken charges:
               1
     1  C   -0.170707
     2  C   -0.221866
     3  C   -0.180036
     4  C    0.159729
     5  C   -0.170367
     6  C   -0.218796
     7  H    0.225427
     8  H    0.224749
     9  H    0.286661
    10  H    0.275473
    11  H    0.223339
    12  N    0.487523
    13  O   -0.460501
    14  O   -0.460557
    15  C   -0.298359
    16  C   -0.305023
    17  C   -0.480717
    18  H    0.148219
    19  H    0.152544
    20  H    0.144329
    21  H    0.162889
    22  H    0.163087
    23  H    0.152862
    24  H    0.156832
    25  C   -0.298930
    26  C   -0.299972
    27  C   -0.475933
    28  H    0.148462
    29  H    0.153246
    30  H    0.151059
    31  H    0.153008
    32  H    0.156788
    33  H    0.154827
    34  H    0.160710
 Sum of Mulliken charges =  -0.00000

 Dipole moment (field-independent basis, Debye):
    X=             -0.2205    Y=              5.1085    Z=             -0.3394  Tot=              5.1245
 Quadrupole moment (field-independent basis, Debye-Ang):
   XX=            -90.7235   YY=            -97.2522   ZZ=            -95.4847
   XY=             16.8409   XZ=             -3.7071   YZ=             -1.5075

 Normal termination of Gaussian 16 at Thu May  6 01:27:14 2021.
