 Gaussian 16, Revision A.03,
 Gaussian 16:  EM64L-G16RevA.03 25-Dec-2016

 -------------
 #p 6-31g* mp2
 -------------

 ------------------------------------------------------
 Input file generated by CHIRIPA (05-May-2021 14:55:22)
 ------------------------------------------------------
 Symbolic Z-matrix:
 Charge =  0 Multiplicity = 1

                         Standard orientation:
 ---------------------------------------------------------------------
 Center     Atomic      Atomic             Coordinates (Angstroms)
 Number     Number       Type             X           Y           Z
 ---------------------------------------------------------------------
      1          6           0        1.617434    1.407958    0.672093
      2          6           0        1.658015    0.100555    1.167645
      3          6           0        2.727210   -0.744294    0.855236
      4          6           0        3.743398   -0.246784    0.040904
      5          6           0        3.731562    1.050888   -0.468212
      6          6           0        2.652513    1.878123   -0.142817
      7          1           0        0.783030    2.057416    0.919824
      8          1           0        0.855555   -0.267270    1.800739
      9          1           0        2.783859   -1.760789    1.225300
     10          1           0        4.546198    1.389219   -1.096956
     11          1           0        2.623642    2.893013   -0.529093
     12          7           0        4.880523   -1.131864   -0.296703
     13          8           0        5.763372   -0.669635   -1.016118
     14          8           0        4.867421   -2.271060    0.164489
     15          6           0       -4.071348    0.583994    0.258341
     16          6           0       -3.269124    1.517180   -0.649175
     17          6           0       -2.312666    2.420845    0.129524
     18          1           0       -4.639528    1.185145    0.981346
     19          1           0       -3.376243   -0.033961    0.843453
     20          1           0       -3.965551    2.132221   -1.233408
     21          1           0       -2.702937    0.913744   -1.370226
     22          1           0       -1.595229    1.821923    0.699766
     23          1           0       -2.865017    3.047324    0.837362
     24          1           0       -1.749309    3.079637   -0.538669
     25          6           0       -5.031975   -0.325661   -0.505499
     26          6           0       -5.834199   -1.258845    0.402017
     27          6           0       -6.790657   -2.162511   -0.376682
     28          1           0       -5.727081    0.292294   -1.090611
     29          1           0       -4.463796   -0.926812   -1.228504
     30          1           0       -6.400386   -0.655410    1.123068
     31          1           0       -5.137773   -1.873887    0.986250
     32          1           0       -6.238306   -2.788990   -1.084521
     33          1           0       -7.508094   -1.563588   -0.946925
     34          1           0       -7.354015   -2.821303    0.291511
 ---------------------------------------------------------------------

 SCF Done:  E(RHF) =  -669.535425196     A.U. after   15 cycles
 E2 =    -0.2090941478D+01 EUMP2 =    -0.67162636667350D+03

 The electronic state is 1-A.
 Alpha  occ. eigenvalues --  -20.60738 -20.60733 -15.85792 -11.31148 -11.27728
 Alpha  occ. eigenvalues --  -11.27720 -11.27406 -11.26732 -11.26713 -11.22456
 Alpha  occ. eigenvalues --  -11.22264 -11.22124 -11.22079 -11.21932 -11.21448
 Alpha  occ. eigenvalues --   -1.59814  -1.39368  -1.19321  -1.09108  -1.08712
 Alpha  occ. eigenvalues --   -1.04727  -1.04237  -0.96715  -0.95548  -0.87738
 Alpha  occ. eigenvalues --   -0.86122  -0.82387  -0.80312  -0.78885  -0.77437
 Alpha  occ. eigenvalues --   -0.72010  -0.71138  -0.70437  -0.65736  -0.64972
 Alpha  occ. eigenvalues --   -0.64735  -0.62079  -0.61636  -0.60095  -0.58299
 Alpha  occ. eigenvalues --   -0.56125  -0.55140  -0.53398  -0.53129  -0.53041
 Alpha  occ. eigenvalues --   -0.52818  -0.50633  -0.48769  -0.48765  -0.48618
 Alpha  occ. eigenvalues --   -0.47321  -0.46436  -0.46335  -0.44775  -0.44479
 Alpha  occ. eigenvalues --   -0.37284  -0.36337
 Alpha virt. eigenvalues --    0.05093   0.11299   0.16549   0.20194   0.22441
 Alpha virt. eigenvalues --    0.23865   0.25597   0.26297   0.26693   0.27472
 Alpha virt. eigenvalues --    0.28973   0.30416   0.30722   0.31070   0.31842

 Mulliken charges:
               1
     1  C   -0.173606
     2  C   -0.220640
     3  C   -0.170853
     4  C    0.158166
     5  C   -0.170799
     6  C   -0.219941
     7  H    0.233126
     8  H    0.222475
     9  H    0.275351
    10  H    0.275411
    11  H    0.223489
    12  N    0.488100
    13  O   -0.460541
    14  O   -0.460655
    15  C   -0.298338
    16  C   -0.299872
    17  C   -0.478944
    18  H    0.150807
    19  H    0.146631
    20  H    0.155593
    21  H    0.155189
    22  H    0.145827
    23  H    0.159281
    24  H    0.159886
    25  C   -0.299052
    26  C   -0.299999
    27  C   -0.476131
    28  H    0.151037
    29  H    0.151230
    30  H    0.152390
    31  H    0.151594
    32  H    0.156235
    33  H    0.155952
    34  H    0.161598
 Sum of Mulliken charges =  -0.00000

 Dipole moment (field-independent basis, Debye):
    X=             -4.2258    Y=              3.1253    Z=              1.1260  Tot=              5.3752
 Quadrupole moment (field-independent basis, Debye-Ang):
   XX=           -123.7860   YY=            -93.8420   ZZ=            -93.9959
   XY=             13.4341   XZ=              2.8027   YZ=             -2.7778

 Normal termination of Gaussian 16 at Thu May  6 07:49:41 2021.
