 Gaussian 16, Revision A.03,
 Gaussian 16:  EM64L-G16RevA.03 25-Dec-2016

 -------------
 #p 6-31g* mp2
 -------------

 ------------------------------------------------------
 Input file generated by CHIRIPA (05-May-2021 14:55:21)
 ------------------------------------------------------
 Symbolic Z-matrix:
 Charge =  0 Multiplicity = 1

                         Standard orientation:
 ---------------------------------------------------------------------
 Center     Atomic      Atomic             Coordinates (Angstroms)
 Number     Number       Type             X           Y           Z
 ---------------------------------------------------------------------
      1          6           0       -1.225902    0.403554   -0.302824
      2          6           0       -1.616435   -0.918500   -0.065803
      3          6           0       -2.968823   -1.245880    0.069906
      4          6           0       -3.908273   -0.221588   -0.037554
      5          6           0       -3.550647    1.104995   -0.273287
      6          6           0       -2.192550    1.409309   -0.405628
      7          1           0       -0.173117    0.648911   -0.406938
      8          1           0       -0.867910   -1.701639    0.014501
      9          1           0       -3.298929   -2.261086    0.253767
     10          1           0       -4.319857    1.863999   -0.348433
     11          1           0       -1.892168    2.436901   -0.589663
     12          7           0       -5.343008   -0.555961    0.104332
     13          8           0       -6.151211    0.364735    0.005519
     14          8           0       -5.632183   -1.732408    0.311670
     15          6           0        4.420779    0.921538    0.138160
     16          6           0        2.894545    0.967081    0.218933
     17          6           0        2.351152    2.391199    0.338960
     18          1           0        4.843372    1.402747    1.030795
     19          1           0        4.753253    1.515744   -0.724264
     20          1           0        2.564972    0.371830    1.080138
     21          1           0        2.475536    0.485538   -0.673907
     22          1           0        2.651513    2.992259   -0.525396
     23          1           0        2.741458    2.877906    1.238614
     24          1           0        1.258174    2.400437    0.395288
     25          6           0        4.979060   -0.495351    0.017843
     26          6           0        6.505293   -0.540894   -0.062930
     27          6           0        7.048687   -1.965011   -0.182957
     28          1           0        4.646585   -1.089556    0.880266
     29          1           0        4.556466   -0.976559   -0.874792
     30          1           0        6.924303   -0.059350    0.829910
     31          1           0        6.834866    0.054358   -0.924135
     32          1           0        6.658381   -2.451718   -1.082612
     33          1           0        6.748325   -2.566071    0.681399
     34          1           0        8.141665   -1.974248   -0.239285
 ---------------------------------------------------------------------

 SCF Done:  E(RHF) =  -669.535415077     A.U. after   15 cycles
 E2 =    -0.2091425391D+01 EUMP2 =    -0.67162684046787D+03

 The electronic state is 1-A.
 Alpha  occ. eigenvalues --  -20.60717 -20.60712 -15.85771 -11.31125 -11.27697
 Alpha  occ. eigenvalues --  -11.27692 -11.27373 -11.26701 -11.26686 -11.22887
 Alpha  occ. eigenvalues --  -11.22364 -11.22345 -11.22247 -11.22164 -11.21612
 Alpha  occ. eigenvalues --   -1.59793  -1.39347  -1.19294  -1.09357  -1.08686
 Alpha  occ. eigenvalues --   -1.04698  -1.04473  -0.96905  -0.95522  -0.87915
 Alpha  occ. eigenvalues --   -0.86093  -0.82362  -0.80565  -0.79127  -0.77412
 Alpha  occ. eigenvalues --   -0.71988  -0.71116  -0.70430  -0.65974  -0.64944
 Alpha  occ. eigenvalues --   -0.64711  -0.62048  -0.61850  -0.60362  -0.58552
 Alpha  occ. eigenvalues --   -0.56156  -0.55135  -0.53602  -0.53293  -0.53012
 Alpha  occ. eigenvalues --   -0.52786  -0.50820  -0.48875  -0.48746  -0.48743
 Alpha  occ. eigenvalues --   -0.47584  -0.46670  -0.46557  -0.44755  -0.44713
 Alpha  occ. eigenvalues --   -0.37263  -0.36307
 Alpha virt. eigenvalues --    0.05112   0.11330   0.16569   0.19499   0.22331
 Alpha virt. eigenvalues --    0.23925   0.25597   0.25982   0.26159   0.27373
 Alpha virt. eigenvalues --    0.29129   0.30008   0.30627   0.31117   0.31996

 Mulliken charges:
               1
     1  C   -0.179286
     2  C   -0.221325
     3  C   -0.170725
     4  C    0.158100
     5  C   -0.170587
     6  C   -0.221912
     7  H    0.240604
     8  H    0.223685
     9  H    0.275313
    10  H    0.275368
    11  H    0.223515
    12  N    0.488029
    13  O   -0.460616
    14  O   -0.460617
    15  C   -0.298219
    16  C   -0.305515
    17  C   -0.479516
    18  H    0.153252
    19  H    0.152173
    20  H    0.153950
    21  H    0.146140
    22  H    0.159525
    23  H    0.162937
    24  H    0.151793
    25  C   -0.299256
    26  C   -0.300399
    27  C   -0.476239
    28  H    0.150048
    29  H    0.149351
    30  H    0.153423
    31  H    0.153144
    32  H    0.155588
    33  H    0.155820
    34  H    0.162454
 Sum of Mulliken charges =  -0.00000

 Dipole moment (field-independent basis, Debye):
    X=              5.3637    Y=              1.2030    Z=             -0.4643  Tot=              5.5166
 Quadrupole moment (field-independent basis, Debye-Ang):
   XX=           -133.7318   YY=            -91.4551   ZZ=            -94.4334
   XY=             -6.4079   XZ=              2.1982   YZ=             -0.8278

 Normal termination of Gaussian 16 at Thu May  6 07:46:49 2021.
