 Gaussian 16, Revision A.03,
 Gaussian 16:  EM64L-G16RevA.03 25-Dec-2016

 -------------
 #p 6-31g* mp2
 -------------

 ------------------------------------------------------
 Input file generated by CHIRIPA (05-May-2021 14:57:22)
 ------------------------------------------------------
 Symbolic Z-matrix:
 Charge =  0 Multiplicity = 1

                         Standard orientation:
 ---------------------------------------------------------------------
 Center     Atomic      Atomic             Coordinates (Angstroms)
 Number     Number       Type             X           Y           Z
 ---------------------------------------------------------------------
      1          6           0        4.108079    2.520756   -0.406237
      2          6           0        2.905501    1.808652   -0.463099
      3          6           0        2.890243    0.424256   -0.268768
      4          6           0        4.101434   -0.218944   -0.018567
      5          6           0        5.315838    0.462654    0.044172
      6          6           0        5.307296    1.846673   -0.153229
      7          1           0        4.110687    3.596041   -0.558391
      8          1           0        1.972658    2.329526   -0.659414
      9          1           0        1.973581   -0.151639   -0.307416
     10          1           0        6.229776   -0.084262    0.241700
     11          1           0        6.242736    2.397123   -0.108507
     12          7           0        4.097880   -1.684342    0.188788
     13          8           0        5.178419   -2.227631    0.407669
     14          8           0        3.014622   -2.261885    0.128505
     15          6           0       -1.594638   -0.204507    0.266889
     16          6           0       -2.261537    0.913735    0.778063
     17          6           0       -3.650556    1.025124    0.665062
     18          6           0       -4.344424   -0.004982    0.032039
     19          6           0       -3.708616   -1.131570   -0.487420
     20          6           0       -2.319028   -1.221797   -0.363112
     21          1           0       -0.515394   -0.282818    0.359063
     22          1           0       -1.701543    1.705307    1.267823
     23          1           0       -4.192119    1.879840    1.051828
     24          1           0       -4.293998   -1.904515   -0.970435
     25          1           0       -1.803755   -2.091392   -0.761036
     26          7           0       -5.815217    0.101739   -0.093576
     27          8           0       -6.403593   -0.819407   -0.655661
     28          8           0       -6.351799    1.104512    0.372431
 ---------------------------------------------------------------------

 SCF Done:  E(RHF) =  -868.337376015     A.U. after   16 cycles
 E2 =    -0.2599421267D+01 EUMP2 =    -0.87093679728161D+03

 The electronic state is 1-A.
 Alpha  occ. eigenvalues --  -20.61614 -20.61578 -20.60879 -20.60870 -15.86653
 Alpha  occ. eigenvalues --  -15.85931 -11.32050 -11.31346 -11.28729 -11.28544
 Alpha  occ. eigenvalues --  -11.28296 -11.27936 -11.27869 -11.27732 -11.27664
 Alpha  occ. eigenvalues --  -11.27553 -11.27017 -11.26883  -1.60668  -1.59951
 Alpha  occ. eigenvalues --   -1.40226  -1.39503  -1.20207  -1.19523  -1.09581
 Alpha  occ. eigenvalues --   -1.08924  -1.05626  -1.04924  -0.96424  -0.95751
 Alpha  occ. eigenvalues --   -0.87015  -0.86325  -0.83264  -0.82574  -0.78326
 Alpha  occ. eigenvalues --   -0.77598  -0.72873  -0.72149  -0.71988  -0.71344
 Alpha  occ. eigenvalues --   -0.71274  -0.70654  -0.65860  -0.65624  -0.65179
 Alpha  occ. eigenvalues --   -0.64925  -0.62996  -0.62262  -0.56107  -0.55472
 Alpha  occ. eigenvalues --   -0.53929  -0.53702  -0.53260  -0.53015  -0.49641
 Alpha  occ. eigenvalues --   -0.49614  -0.48912  -0.48901  -0.45624  -0.44897
 Alpha  occ. eigenvalues --   -0.38153  -0.37530  -0.37225  -0.36521
 Alpha virt. eigenvalues --    0.04224   0.04917   0.10421   0.11124   0.15733
 Alpha virt. eigenvalues --    0.16349   0.18295   0.21937   0.24711   0.26592
 Alpha virt. eigenvalues --    0.27465   0.29466   0.29987   0.30859   0.32526

 Mulliken charges:
               1
     1  C   -0.170204
     2  C   -0.220062
     3  C   -0.178538
     4  C    0.160993
     5  C   -0.169482
     6  C   -0.217937
     7  H    0.228513
     8  H    0.222259
     9  H    0.272888
    10  H    0.278158
    11  H    0.226743
    12  N    0.487722
    13  O   -0.455942
    14  O   -0.464867
    15  C   -0.176187
    16  C   -0.220753
    17  C   -0.170741
    18  C    0.158954
    19  C   -0.170702
    20  C   -0.220047
    21  H    0.227357
    22  H    0.220391
    23  H    0.275422
    24  H    0.277311
    25  H    0.230529
    26  N    0.487926
    27  O   -0.459108
    28  O   -0.460598
 Sum of Mulliken charges =  -0.00000

 Dipole moment (field-independent basis, Debye):
    X=              5.3878    Y=              4.7688    Z=             -0.3206  Tot=              7.2022
 Quadrupole moment (field-independent basis, Debye-Ang):
   XX=           -143.5900   YY=           -103.5942   ZZ=           -105.1323
   XY=             23.7391   XZ=             -3.9087   YZ=              2.4566

 Normal termination of Gaussian 16 at Fri May  7 01:44:01 2021.
