 Gaussian 16, Revision A.03,
 Gaussian 16:  EM64L-G16RevA.03 25-Dec-2016

 -------------
 #p 6-31g* mp2
 -------------

 ------------------------------------------------------
 Input file generated by CHIRIPA (05-May-2021 14:55:24)
 ------------------------------------------------------
 Symbolic Z-matrix:
 Charge =  0 Multiplicity = 1

                         Standard orientation:
 ---------------------------------------------------------------------
 Center     Atomic      Atomic             Coordinates (Angstroms)
 Number     Number       Type             X           Y           Z
 ---------------------------------------------------------------------
      1          6           0        0.847357   -0.009818   -0.778763
      2          6           0        1.345438   -1.244697   -0.350382
      3          6           0        2.691079   -1.383799    0.002390
      4          6           0        3.514189   -0.262168   -0.085498
      5          6           0        3.047736    0.981488   -0.508619
      6          6           0        1.698595    1.097381   -0.856377
      7          1           0       -0.199328    0.089225   -1.050857
      8          1           0        0.686667   -2.106274   -0.289129
      9          1           0        3.102968   -2.328052    0.337281
     10          1           0        3.728795    1.822320   -0.559388
     11          1           0        1.314535    2.057636   -1.188723
     12          7           0        4.940612   -0.397144    0.285312
     13          8           0        5.645203    0.606236    0.199194
     14          8           0        5.327041   -1.503762    0.655050
     15          6           0       -3.889537    0.978695   -0.006522
     16          6           0       -2.616027    1.310001    0.772190
     17          6           0       -2.012212    2.656655    0.372533
     18          1           0       -3.664110    0.976440   -1.081754
     19          1           0       -4.628313    1.775626    0.156284
     20          1           0       -1.880371    0.511992    0.609072
     21          1           0       -2.844468    1.311279    1.845703
     22          1           0       -2.725951    3.467255    0.551717
     23          1           0       -1.756376    2.663426   -0.691939
     24          1           0       -1.102713    2.873511    0.941431
     25          6           0       -4.504953   -0.364494    0.381849
     26          6           0       -5.778463   -0.695800   -0.396863
     27          6           0       -6.382277   -2.042453    0.002794
     28          1           0       -3.766176   -1.161425    0.219044
     29          1           0       -4.730380   -0.362239    1.457081
     30          1           0       -5.550021   -0.697078   -1.470376
     31          1           0       -6.514119    0.102210   -0.233745
     32          1           0       -6.638114   -2.049225    1.067266
     33          1           0       -5.668539   -2.853053   -0.176391
     34          1           0       -7.291776   -2.259310   -0.566104
 ---------------------------------------------------------------------

 SCF Done:  E(RHF) =  -669.535332983     A.U. after   15 cycles
 E2 =    -0.2091886592D+01 EUMP2 =    -0.67162721957482D+03

 The electronic state is 1-A.
 Alpha  occ. eigenvalues --  -20.60755 -20.60750 -15.85809 -11.31180 -11.27747
 Alpha  occ. eigenvalues --  -11.27738 -11.27464 -11.26768 -11.26742 -11.22638
 Alpha  occ. eigenvalues --  -11.22330 -11.22297 -11.22202 -11.22167 -11.21665
 Alpha  occ. eigenvalues --   -1.59831  -1.39384  -1.19351  -1.09327  -1.08743
 Alpha  occ. eigenvalues --   -1.04752  -1.04402  -0.96848  -0.95579  -0.87862
 Alpha  occ. eigenvalues --   -0.86146  -0.82415  -0.80466  -0.79113  -0.77456
 Alpha  occ. eigenvalues --   -0.72027  -0.71154  -0.70503  -0.65976  -0.65001
 Alpha  occ. eigenvalues --   -0.64751  -0.62107  -0.61809  -0.60211  -0.58439
 Alpha  occ. eigenvalues --   -0.56178  -0.55221  -0.53535  -0.53257  -0.53064
 Alpha  occ. eigenvalues --   -0.52837  -0.50803  -0.48802  -0.48782  -0.48748
 Alpha  occ. eigenvalues --   -0.47512  -0.46646  -0.46581  -0.44789  -0.44646
 Alpha  occ. eigenvalues --   -0.37309  -0.36355
 Alpha virt. eigenvalues --    0.05042   0.11258   0.16427   0.18964   0.22630
 Alpha virt. eigenvalues --    0.23861   0.25352   0.25747   0.26849   0.28270
 Alpha virt. eigenvalues --    0.29089   0.30206   0.30885   0.31136   0.32232

 Mulliken charges:
               1
     1  C   -0.170393
     2  C   -0.220041
     3  C   -0.170802
     4  C    0.158698
     5  C   -0.171254
     6  C   -0.220537
     7  H    0.229044
     8  H    0.223166
     9  H    0.275577
    10  H    0.275622
    11  H    0.225167
    12  N    0.488047
    13  O   -0.460400
    14  O   -0.460451
    15  C   -0.299516
    16  C   -0.303804
    17  C   -0.478531
    18  H    0.146262
    19  H    0.153725
    20  H    0.145941
    21  H    0.158399
    22  H    0.161286
    23  H    0.146873
    24  H    0.164579
    25  C   -0.297460
    26  C   -0.300186
    27  C   -0.476016
    28  H    0.144849
    29  H    0.152757
    30  H    0.151656
    31  H    0.154027
    32  H    0.156713
    33  H    0.154535
    34  H    0.162468
 Sum of Mulliken charges =  -0.00000

 Dipole moment (field-independent basis, Debye):
    X=             -5.2096    Y=              0.5243    Z=             -1.2193  Tot=              5.3760
 Quadrupole moment (field-independent basis, Debye-Ang):
   XX=           -129.7526   YY=            -90.8425   ZZ=            -94.6101
   XY=              2.9373   XZ=             -4.9439   YZ=             -0.2115

 Normal termination of Gaussian 16 at Wed May  5 20:46:12 2021.
