 Gaussian 16, Revision A.03,
 Gaussian 16:  EM64L-G16RevA.03 25-Dec-2016

 -------------
 #p 6-31g* mp2
 -------------

 ------------------------------------------------------
 Input file generated by CHIRIPA (05-May-2021 14:51:12)
 ------------------------------------------------------
 Symbolic Z-matrix:
 Charge =  0 Multiplicity = 1

                         Standard orientation:
 ---------------------------------------------------------------------
 Center     Atomic      Atomic             Coordinates (Angstroms)
 Number     Number       Type             X           Y           Z
 ---------------------------------------------------------------------
      1          6           0        2.231737   -0.380194   -0.301056
      2          6           0        3.048021   -0.956519   -1.458430
      3          6           0        2.681417   -2.406551   -1.775926
      4          1           0        2.383477   -1.002171    0.591728
      5          1           0        1.162929   -0.443482   -0.548118
      6          1           0        4.115033   -0.890896   -1.209845
      7          1           0        2.894469   -0.332987   -2.348512
      8          1           0        1.624267   -2.485611   -2.049395
      9          1           0        2.851766   -3.046690   -0.904259
     10          1           0        3.276893   -2.798605   -2.606325
     11          6           0        2.586796    1.068675    0.028245
     12          6           0        1.770512    1.645001    1.185619
     13          6           0        2.137116    3.095033    1.503115
     14          1           0        3.655603    1.131963    0.275307
     15          1           0        2.435055    1.690653   -0.864539
     16          1           0        1.924063    1.021468    2.075700
     17          1           0        0.703500    1.579377    0.937033
     18          1           0        1.966767    3.735171    0.631447
     19          1           0        3.194265    3.174093    1.776584
     20          1           0        1.541639    3.487086    2.333513
     21          6           0       -2.426518   -1.065322    0.387756
     22          6           0       -1.400010   -1.349821    1.484716
     23          6           0       -1.446773   -2.796541    1.977270
     24          1           0       -3.432051   -1.292544    0.767516
     25          1           0       -2.249655   -1.746764   -0.455899
     26          1           0       -1.577889   -0.667111    2.325478
     27          1           0       -0.396820   -1.121713    1.102362
     28          1           0       -1.247416   -3.490358    1.154181
     29          1           0       -2.435195   -3.033172    2.384246
     30          1           0       -0.704817   -2.977940    2.761141
     31          6           0       -2.392014    0.376840   -0.114944
     32          6           0       -3.418523    0.661340   -1.211905
     33          6           0       -3.371758    2.108060   -1.704458
     34          1           0       -2.568878    1.058282    0.728710
     35          1           0       -1.386481    0.604062   -0.494706
     36          1           0       -4.421712    0.433232   -0.829550
     37          1           0       -3.240643   -0.021370   -2.052666
     38          1           0       -2.383338    2.344691   -2.111435
     39          1           0       -3.571116    2.801877   -0.881369
     40          1           0       -4.113715    2.289458   -2.488329
 ---------------------------------------------------------------------

 SCF Done:  E(RHF) =  -470.732680561     A.U. after   11 cycles
 E2 =    -0.1584703837D+01 EUMP2 =    -0.47231738439820D+03

 The electronic state is 1-A.
 Alpha  occ. eigenvalues --  -11.21663 -11.21642 -11.21562 -11.21460 -11.21458
 Alpha  occ. eigenvalues --  -11.21432 -11.21390 -11.21347 -11.21133 -11.21113
 Alpha  occ. eigenvalues --  -11.21055 -11.21006  -1.08511  -1.08402  -1.03555
 Alpha  occ. eigenvalues --   -1.03511  -0.96016  -0.95975  -0.87034  -0.86985
 Alpha  occ. eigenvalues --   -0.79631  -0.79582  -0.78534  -0.78026  -0.65286
 Alpha  occ. eigenvalues --   -0.64904  -0.60974  -0.60899  -0.59384  -0.59339
 Alpha  occ. eigenvalues --   -0.57647  -0.57561  -0.55323  -0.55251  -0.52721
 Alpha  occ. eigenvalues --   -0.52644  -0.52458  -0.52387  -0.49977  -0.49902
 Alpha  occ. eigenvalues --   -0.47975  -0.47897  -0.46791  -0.46683  -0.46407
 Alpha  occ. eigenvalues --   -0.45757  -0.45726  -0.44874  -0.43816  -0.43764
 Alpha virt. eigenvalues --    0.20390   0.23375   0.23782   0.24250   0.25012
 Alpha virt. eigenvalues --    0.26342   0.26806   0.27838   0.28141   0.30640
 Alpha virt. eigenvalues --    0.31288   0.31338   0.31550   0.31865   0.32117

 Mulliken charges:
               1
     1  C   -0.306007
     2  C   -0.298742
     3  C   -0.475860
     4  H    0.150582
     5  H    0.154929
     6  H    0.152359
     7  H    0.151857
     8  H    0.154409
     9  H    0.155593
    10  H    0.160683
    11  C   -0.297455
    12  C   -0.305774
    13  C   -0.475496
    14  H    0.149667
    15  H    0.149055
    16  H    0.152037
    17  H    0.158735
    18  H    0.155040
    19  H    0.154932
    20  H    0.160308
    21  C   -0.297668
    22  C   -0.309651
    23  C   -0.475193
    24  H    0.149669
    25  H    0.148561
    26  H    0.151171
    27  H    0.164328
    28  H    0.154948
    29  H    0.154628
    30  H    0.159640
    31  C   -0.304409
    32  C   -0.299371
    33  C   -0.475703
    34  H    0.150052
    35  H    0.153394
    36  H    0.152443
    37  H    0.151790
    38  H    0.154599
    39  H    0.155408
    40  H    0.160511
 Sum of Mulliken charges =  -0.00000

 Dipole moment (field-independent basis, Debye):
    X=              0.0261    Y=              0.0092    Z=             -0.0050  Tot=              0.0282
 Quadrupole moment (field-independent basis, Debye-Ang):
   XX=            -83.8293   YY=            -86.7939   ZZ=            -84.2158
   XY=             -0.5892   XZ=             -0.0859   YZ=              0.1101

 Normal termination of Gaussian 16 at Wed May  5 19:55:42 2021.
