 Gaussian 16, Revision A.03,
 Gaussian 16:  EM64L-G16RevA.03 25-Dec-2016

 -------------
 #p 6-31g* mp2
 -------------

 ------------------------------------------------------
 Input file generated by CHIRIPA (05-May-2021 14:53:15)
 ------------------------------------------------------
 Symbolic Z-matrix:
 Charge =  0 Multiplicity = 1

                         Standard orientation:
 ---------------------------------------------------------------------
 Center     Atomic      Atomic             Coordinates (Angstroms)
 Number     Number       Type             X           Y           Z
 ---------------------------------------------------------------------
      1          6           0       -3.678896    0.728538   -0.291509
      2          6           0       -3.019578    1.922421    0.399816
      3          6           0       -1.797940    2.443531   -0.357707
      4          1           0       -2.940903   -0.078125   -0.399232
      5          1           0       -3.974099    1.020035   -1.308996
      6          1           0       -2.726953    1.629168    1.416176
      7          1           0       -3.759279    2.726265    0.506078
      8          1           0       -2.077748    2.762868   -1.366831
      9          1           0       -1.039556    1.659537   -0.451561
     10          1           0       -1.342170    3.296909    0.154035
     11          6           0       -4.901587    0.196306    0.453800
     12          6           0       -5.560905   -0.997576   -0.237525
     13          6           0       -6.782543   -1.518686    0.519997
     14          1           0       -4.606384   -0.095191    1.471287
     15          1           0       -5.639581    1.002969    0.561523
     16          1           0       -4.821204   -1.801421   -0.343787
     17          1           0       -5.853530   -0.704323   -1.253886
     18          1           0       -7.540927   -0.734693    0.613852
     19          1           0       -6.502735   -1.838023    1.529122
     20          1           0       -7.238313   -2.372064    0.008256
     21          6           0        5.552144    0.723564    0.525955
     22          6           0        4.479984    1.508022    0.088212
     23          6           0        3.256204    0.917688   -0.241056
     24          6           0        3.139025   -0.466145   -0.120371
     25          6           0        4.188725   -1.274686    0.312849
     26          6           0        5.403355   -0.662843    0.636682
     27          1           0        6.499253    1.190504    0.779628
     28          1           0        4.592662    2.584956    0.001261
     29          1           0        2.409832    1.501194   -0.582515
     30          1           0        4.046128   -2.345771    0.389424
     31          1           0        6.234296   -1.274557    0.976370
     32          7           0        1.848308   -1.102491   -0.466076
     33          8           0        1.770632   -2.323724   -0.351223
     34          8           0        0.938759   -0.367975   -0.845344
 ---------------------------------------------------------------------

 SCF Done:  E(RHF) =  -669.536343319     A.U. after   15 cycles
 E2 =    -0.2090815621D+01 EUMP2 =    -0.67162715894064D+03

 The electronic state is 1-A.
 Alpha  occ. eigenvalues --  -20.60963 -20.60950 -15.85999 -11.31288 -11.27853
 Alpha  occ. eigenvalues --  -11.27842 -11.27588 -11.26855 -11.26844 -11.20860
 Alpha  occ. eigenvalues --  -11.20753 -11.20597 -11.20464 -11.20384 -11.20080
 Alpha  occ. eigenvalues --   -1.60022  -1.39579  -1.19457  -1.08867  -1.07585
 Alpha  occ. eigenvalues --   -1.04849  -1.02720  -0.95715  -0.95167  -0.86251
 Alpha  occ. eigenvalues --   -0.86190  -0.82549  -0.78796  -0.77606  -0.77376
 Alpha  occ. eigenvalues --   -0.72227  -0.71335  -0.70566  -0.65116  -0.64852
 Alpha  occ. eigenvalues --   -0.64208  -0.62196  -0.60108  -0.58555  -0.56780
 Alpha  occ. eigenvalues --   -0.55357  -0.54434  -0.53183  -0.52941  -0.51907
 Alpha  occ. eigenvalues --   -0.51584  -0.49155  -0.48974  -0.48903  -0.47104
 Alpha  occ. eigenvalues --   -0.45821  -0.45027  -0.44924  -0.44778  -0.42980
 Alpha  occ. eigenvalues --   -0.37437  -0.36450
 Alpha virt. eigenvalues --    0.04909   0.11205   0.16395   0.21210   0.23704
 Alpha virt. eigenvalues --    0.24987   0.26838   0.27466   0.27778   0.28460
 Alpha virt. eigenvalues --    0.29095   0.30680   0.31757   0.32411   0.32621

 Mulliken charges:
               1
     1  C   -0.301334
     2  C   -0.297029
     3  C   -0.488807
     4  H    0.163288
     5  H    0.147144
     6  H    0.149764
     7  H    0.146935
     8  H    0.151709
     9  H    0.180595
    10  H    0.149850
    11  C   -0.297753
    12  C   -0.299805
    13  C   -0.475273
    14  H    0.148453
    15  H    0.146199
    16  H    0.155706
    17  H    0.150737
    18  H    0.153154
    19  H    0.154437
    20  H    0.158912
    21  C   -0.170523
    22  C   -0.218741
    23  C   -0.170827
    24  C    0.157639
    25  C   -0.170860
    26  C   -0.218624
    27  H    0.225998
    28  H    0.224097
    29  H    0.277143
    30  H    0.275718
    31  H    0.223766
    32  N    0.494126
    33  O   -0.459079
    34  O   -0.466716
 Sum of Mulliken charges =  -0.00000

 Dipole moment (field-independent basis, Debye):
    X=              4.8166    Y=              2.0761    Z=              1.1694  Tot=              5.3738
 Quadrupole moment (field-independent basis, Debye-Ang):
   XX=            -67.2856   YY=            -93.3626   ZZ=            -95.6578
   XY=              2.6712   XZ=              4.8011   YZ=             -2.1807

 Normal termination of Gaussian 16 at Thu May  6 02:42:23 2021.
