 Gaussian 16, Revision A.03,
 Gaussian 16:  EM64L-G16RevA.03 25-Dec-2016

 -------------
 #p 6-31g* mp2
 -------------

 ------------------------------------------------------
 Input file generated by CHIRIPA (05-May-2021 14:53:12)
 ------------------------------------------------------
 Symbolic Z-matrix:
 Charge =  0 Multiplicity = 1

                         Standard orientation:
 ---------------------------------------------------------------------
 Center     Atomic      Atomic             Coordinates (Angstroms)
 Number     Number       Type             X           Y           Z
 ---------------------------------------------------------------------
      1          6           0       -3.064223    0.951026   -0.522970
      2          6           0       -3.019564    2.083774    0.503125
      3          6           0       -3.126514    3.467384   -0.138731
      4          1           0       -2.247012    1.086163   -1.244669
      5          1           0       -4.000324    1.019859   -1.094260
      6          1           0       -2.084456    2.012000    1.073246
      7          1           0       -3.836860    1.945818    1.222578
      8          1           0       -4.066156    3.563680   -0.692265
      9          1           0       -2.303796    3.630238   -0.842445
     10          1           0       -3.092493    4.262299    0.612809
     11          6           0       -2.958379   -0.438291    0.103387
     12          6           0       -3.003038   -1.571039   -0.922709
     13          6           0       -2.896088   -2.954649   -0.280853
     14          1           0       -2.022278   -0.507124    0.674677
     15          1           0       -3.775590   -0.573428    0.825086
     16          1           0       -2.185742   -1.433083   -1.642161
     17          1           0       -3.938146   -1.499265   -1.492829
     18          1           0       -3.718806   -3.117503    0.422862
     19          1           0       -1.956445   -3.050945    0.272682
     20          1           0       -2.930109   -3.749564   -1.032392
     21          6           0        0.874859   -2.103561    0.912107
     22          6           0        0.823257   -0.874101    1.577152
     23          6           0        1.637465    0.187426    1.171229
     24          6           0        2.495440   -0.016286    0.091566
     25          6           0        2.569771   -1.229312   -0.591319
     26          6           0        1.746415   -2.276937   -0.168101
     27          1           0        0.238808   -2.922780    1.234156
     28          1           0        0.147354   -0.736590    2.416374
     29          1           0        1.617740    1.149747    1.668186
     30          1           0        3.253659   -1.336205   -1.424560
     31          1           0        1.788610   -3.230650   -0.686459
     32          7           0        3.362247    1.100146   -0.347321
     33          8           0        4.109584    0.895193   -1.301324
     34          8           0        3.277903    2.159020    0.270990
 ---------------------------------------------------------------------

 SCF Done:  E(RHF) =  -669.535058106     A.U. after   15 cycles
 E2 =    -0.2093390922D+01 EUMP2 =    -0.67162844902834D+03

 The electronic state is 1-A.
 Alpha  occ. eigenvalues --  -20.60851 -20.60845 -15.85905 -11.31305 -11.27877
 Alpha  occ. eigenvalues --  -11.27869 -11.27608 -11.26896 -11.26883 -11.22148
 Alpha  occ. eigenvalues --  -11.21915 -11.21888 -11.21830 -11.21686 -11.21208
 Alpha  occ. eigenvalues --   -1.59926  -1.39478  -1.19485  -1.08911  -1.08813
 Alpha  occ. eigenvalues --   -1.04888  -1.03972  -0.96430  -0.95699  -0.87449
 Alpha  occ. eigenvalues --   -0.86281  -0.82529  -0.80047  -0.78665  -0.77565
 Alpha  occ. eigenvalues --   -0.72122  -0.71250  -0.70612  -0.65513  -0.65131
 Alpha  occ. eigenvalues --   -0.64858  -0.62227  -0.61379  -0.59808  -0.58047
 Alpha  occ. eigenvalues --   -0.55921  -0.55217  -0.53228  -0.53115  -0.52980
 Alpha  occ. eigenvalues --   -0.52834  -0.50360  -0.48882  -0.48875  -0.48359
 Alpha  occ. eigenvalues --   -0.47069  -0.46208  -0.46109  -0.44876  -0.44206
 Alpha  occ. eigenvalues --   -0.37410  -0.36460
 Alpha virt. eigenvalues --    0.04917   0.11044   0.16259   0.20099   0.22850
 Alpha virt. eigenvalues --    0.23766   0.25708   0.26119   0.26738   0.28335
 Alpha virt. eigenvalues --    0.29031   0.30278   0.31192   0.31694   0.31827

 Mulliken charges:
               1
     1  C   -0.298513
     2  C   -0.298830
     3  C   -0.476318
     4  H    0.152975
     5  H    0.150601
     6  H    0.147303
     7  H    0.151081
     8  H    0.155552
     9  H    0.158968
    10  H    0.161356
    11  C   -0.303356
    12  C   -0.298923
    13  C   -0.477264
    14  H    0.149215
    15  H    0.148111
    16  H    0.154651
    17  H    0.154531
    18  H    0.157062
    19  H    0.143711
    20  H    0.161887
    21  C   -0.169681
    22  C   -0.219009
    23  C   -0.172476
    24  C    0.158687
    25  C   -0.170700
    26  C   -0.219559
    27  H    0.228761
    28  H    0.225365
    29  H    0.276224
    30  H    0.276129
    31  H    0.224546
    32  N    0.488008
    33  O   -0.460047
    34  O   -0.460050
 Sum of Mulliken charges =  -0.00000

 Dipole moment (field-independent basis, Debye):
    X=             -3.0190    Y=             -3.8642    Z=              1.4672  Tot=              5.1185
 Quadrupole moment (field-independent basis, Debye-Ang):
   XX=           -108.8473   YY=            -94.4737   ZZ=            -92.2930
   XY=            -11.2084   XZ=              2.1236   YZ=              2.3439

 Normal termination of Gaussian 16 at Wed May  5 15:31:22 2021.
