 Gaussian 16, Revision A.03,
 Gaussian 16:  EM64L-G16RevA.03 25-Dec-2016

 -------------
 #p 6-31g* mp2
 -------------

 ------------------------------------------------------
 Input file generated by CHIRIPA (05-May-2021 14:55:25)
 ------------------------------------------------------
 Symbolic Z-matrix:
 Charge =  0 Multiplicity = 1

                         Standard orientation:
 ---------------------------------------------------------------------
 Center     Atomic      Atomic             Coordinates (Angstroms)
 Number     Number       Type             X           Y           Z
 ---------------------------------------------------------------------
      1          6           0        0.746177    0.394924    0.140044
      2          6           0        1.617664    1.039976    1.023752
      3          6           0        2.993368    0.797324    0.968017
      4          6           0        3.465448   -0.100456    0.011763
      5          6           0        2.622607   -0.758691   -0.882461
      6          6           0        1.250541   -0.500772   -0.808570
      7          1           0       -0.321090    0.589352    0.190392
      8          1           0        1.228783    1.736082    1.761486
      9          1           0        3.690495    1.282976    1.640010
     10          1           0        3.039919   -1.447366   -1.607027
     11          1           0        0.576086   -1.003166   -1.496142
     12          7           0        4.919918   -0.365422   -0.056852
     13          8           0        5.310783   -1.160790   -0.908469
     14          8           0        5.641527    0.227282    0.742285
     15          6           0       -3.928881   -0.659357    0.057195
     16          6           0       -5.120706   -1.591756    0.276671
     17          6           0       -4.704383   -3.052902    0.448491
     18          1           0       -3.371293   -0.989967   -0.829788
     19          1           0       -3.241184   -0.747830    0.909626
     20          1           0       -5.806632   -1.500523   -0.575266
     21          1           0       -5.675631   -1.258776    1.163123
     22          1           0       -4.037937   -3.164846    1.309838
     23          1           0       -4.169683   -3.407968   -0.438428
     24          1           0       -5.571840   -3.701872    0.604109
     25          6           0       -4.328996    0.804729   -0.116256
     26          6           0       -3.137172    1.737130   -0.335733
     27          6           0       -3.553494    3.198276   -0.507553
     28          1           0       -5.016692    0.893202   -0.968689
     29          1           0       -4.886584    1.135339    0.770727
     30          1           0       -2.582246    1.404149   -1.222184
     31          1           0       -2.451245    1.645896    0.516204
     32          1           0       -4.088195    3.553341    0.379366
     33          1           0       -4.219940    3.310219   -1.368901
     34          1           0       -2.686036    3.847244   -0.663171
 ---------------------------------------------------------------------

 SCF Done:  E(RHF) =  -669.535575082     A.U. after   15 cycles
 E2 =    -0.2091411837D+01 EUMP2 =    -0.67162698691895D+03

 The electronic state is 1-A.
 Alpha  occ. eigenvalues --  -20.60688 -20.60683 -15.85743 -11.31082 -11.27660
 Alpha  occ. eigenvalues --  -11.27655 -11.27303 -11.26652 -11.26640 -11.22941
 Alpha  occ. eigenvalues --  -11.22475 -11.22420 -11.22384 -11.22082 -11.21761
 Alpha  occ. eigenvalues --   -1.59765  -1.39319  -1.19251  -1.09482  -1.08640
 Alpha  occ. eigenvalues --   -1.04657  -1.04515  -0.96919  -0.95483  -0.87939
 Alpha  occ. eigenvalues --   -0.86050  -0.82330  -0.80628  -0.79315  -0.77379
 Alpha  occ. eigenvalues --   -0.71960  -0.71089  -0.70343  -0.66102  -0.64899
 Alpha  occ. eigenvalues --   -0.64664  -0.62012  -0.61904  -0.60319  -0.58549
 Alpha  occ. eigenvalues --   -0.56188  -0.55169  -0.53597  -0.53333  -0.52983
 Alpha  occ. eigenvalues --   -0.52747  -0.50861  -0.48904  -0.48717  -0.48704
 Alpha  occ. eigenvalues --   -0.47659  -0.46807  -0.46745  -0.44771  -0.44731
 Alpha  occ. eigenvalues --   -0.37214  -0.36270
 Alpha virt. eigenvalues --    0.05158   0.11384   0.16640   0.19806   0.22427
 Alpha virt. eigenvalues --    0.23526   0.24839   0.25369   0.27016   0.27628
 Alpha virt. eigenvalues --    0.29688   0.30453   0.30513   0.31143   0.31940

 Mulliken charges:
               1
     1  C   -0.178491
     2  C   -0.221936
     3  C   -0.170698
     4  C    0.157903
     5  C   -0.170662
     6  C   -0.221782
     7  H    0.240120
     8  H    0.222520
     9  H    0.275117
    10  H    0.275079
    11  H    0.223182
    12  N    0.488055
    13  O   -0.460786
    14  O   -0.460815
    15  C   -0.300236
    16  C   -0.300153
    17  C   -0.476433
    18  H    0.146208
    19  H    0.147304
    20  H    0.154291
    21  H    0.154297
    22  H    0.156085
    23  H    0.154923
    24  H    0.163475
    25  C   -0.297642
    26  C   -0.306433
    27  C   -0.475368
    28  H    0.153840
    29  H    0.153220
    30  H    0.150763
    31  H    0.145155
    32  H    0.158265
    33  H    0.159609
    34  H    0.162022
 Sum of Mulliken charges =  -0.00000

 Dipole moment (field-independent basis, Debye):
    X=             -5.4678    Y=              0.9654    Z=              0.2257  Tot=              5.5569
 Quadrupole moment (field-independent basis, Debye-Ang):
   XX=           -129.6727   YY=            -94.1491   ZZ=            -91.2431
   XY=              4.3588   XZ=              1.5427   YZ=              2.9998

 Normal termination of Gaussian 16 at Wed May  5 20:50:23 2021.
