 Gaussian 16, Revision A.03,
 Gaussian 16:  EM64L-G16RevA.03 25-Dec-2016

 -------------
 #p 6-31g* mp2
 -------------

 ------------------------------------------------------
 Input file generated by CHIRIPA (05-May-2021 14:57:23)
 ------------------------------------------------------
 Symbolic Z-matrix:
 Charge =  0 Multiplicity = 1

                         Standard orientation:
 ---------------------------------------------------------------------
 Center     Atomic      Atomic             Coordinates (Angstroms)
 Number     Number       Type             X           Y           Z
 ---------------------------------------------------------------------
      1          6           0       -6.188270   -0.153449   -0.458263
      2          6           0       -5.686874    0.795622    0.438614
      3          6           0       -4.330312    0.806056    0.776514
      4          6           0       -3.499779   -0.151400    0.196184
      5          6           0       -3.969282   -1.109847   -0.700607
      6          6           0       -5.329387   -1.101483   -1.024014
      7          1           0       -7.243456   -0.154253   -0.715123
      8          1           0       -6.351564    1.533071    0.879524
      9          1           0       -3.915634    1.529444    1.468013
     10          1           0       -3.282135   -1.832395   -1.123894
     11          1           0       -5.715998   -1.839733   -1.720838
     12          7           0       -2.061771   -0.150304    0.546233
     13          8           0       -1.350799   -1.004444    0.021255
     14          8           0       -1.672862    0.704674    1.338949
     15          6           0        5.576364   -1.504781    0.349688
     16          6           0        4.242163   -1.924567    0.335147
     17          6           0        3.214714   -1.015515    0.065851
     18          6           0        3.558935    0.311711   -0.185688
     19          6           0        4.878697    0.760562   -0.178343
     20          6           0        5.889819   -0.165917    0.093349
     21          1           0        6.368169   -2.217723    0.559814
     22          1           0        3.995778   -2.963725    0.533866
     23          1           0        2.173408   -1.313492    0.048292
     24          1           0        5.093200    1.802993   -0.380196
     25          1           0        6.925094    0.162925    0.103981
     26          7           0        2.479863    1.283309   -0.472047
     27          8           0        2.809384    2.447070   -0.690478
     28          8           0        1.324998    0.862688   -0.472642
 ---------------------------------------------------------------------

 SCF Done:  E(RHF) =  -868.336771080     A.U. after   16 cycles
 E2 =    -0.2600484497D+01 EUMP2 =    -0.87093725557635D+03

 The electronic state is 1-A.
 Alpha  occ. eigenvalues --  -20.59970 -20.59951 -20.59455 -20.59315 -15.85018
 Alpha  occ. eigenvalues --  -15.84433 -11.30620 -11.30064 -11.27231 -11.27199
 Alpha  occ. eigenvalues --  -11.27012 -11.26744 -11.26562 -11.26541 -11.26300
 Alpha  occ. eigenvalues --  -11.26277 -11.25819 -11.25741  -1.58990  -1.58473
 Alpha  occ. eigenvalues --   -1.38554  -1.38006  -1.18810  -1.18285  -1.08161
 Alpha  occ. eigenvalues --   -1.07648  -1.04254  -1.03722  -0.94962  -0.94423
 Alpha  occ. eigenvalues --   -0.85642  -0.85109  -0.81803  -0.81242  -0.76803
 Alpha  occ. eigenvalues --   -0.76228  -0.71250  -0.70731  -0.70221  -0.69928
 Alpha  occ. eigenvalues --   -0.69808  -0.69392  -0.64468  -0.64266  -0.63927
 Alpha  occ. eigenvalues --   -0.63739  -0.61603  -0.61042  -0.54753  -0.54252
 Alpha  occ. eigenvalues --   -0.52564  -0.52356  -0.52055  -0.51814  -0.48053
 Alpha  occ. eigenvalues --   -0.47965  -0.47454  -0.47318  -0.43914  -0.43328
 Alpha  occ. eigenvalues --   -0.36804  -0.36313  -0.35867  -0.35342
 Alpha virt. eigenvalues --    0.05751   0.06295   0.11784   0.12306   0.17198
 Alpha virt. eigenvalues --    0.17713   0.21858   0.22386   0.27754   0.28265
 Alpha virt. eigenvalues --    0.28762   0.29358   0.31385   0.31881   0.33007

 Mulliken charges:
               1
     1  C   -0.171622
     2  C   -0.218528
     3  C   -0.170511
     4  C    0.160612
     5  C   -0.170897
     6  C   -0.218508
     7  H    0.223572
     8  H    0.222089
     9  H    0.276325
    10  H    0.273471
    11  H    0.221171
    12  N    0.491445
    13  O   -0.463090
    14  O   -0.453504
    15  C   -0.171809
    16  C   -0.219934
    17  C   -0.174018
    18  C    0.156948
    19  C   -0.171946
    20  C   -0.219401
    21  H    0.221381
    22  H    0.221109
    23  H    0.291401
    24  H    0.272807
    25  H    0.219268
    26  N    0.486600
    27  O   -0.470274
    28  O   -0.444158
 Sum of Mulliken charges =  -0.00000

 Dipole moment (field-independent basis, Debye):
    X=             -1.5394    Y=             -3.4040    Z=             -0.1643  Tot=              3.7395
 Quadrupole moment (field-independent basis, Debye-Ang):
   XX=            -43.9382   YY=           -102.3769   ZZ=           -105.3324
   XY=             -8.5838   XZ=              5.4311   YZ=              3.6327

 Normal termination of Gaussian 16 at Fri May  7 07:58:42 2021.
