 Gaussian 16, Revision A.03,
 Gaussian 16:  EM64L-G16RevA.03 25-Dec-2016

 -------------
 #p 6-31g* mp2
 -------------

 ------------------------------------------------------
 Input file generated by CHIRIPA (05-May-2021 14:51:14)
 ------------------------------------------------------
 Symbolic Z-matrix:
 Charge =  0 Multiplicity = 1

                         Standard orientation:
 ---------------------------------------------------------------------
 Center     Atomic      Atomic             Coordinates (Angstroms)
 Number     Number       Type             X           Y           Z
 ---------------------------------------------------------------------
      1          6           0        2.474089   -0.291946   -0.754920
      2          6           0        2.652569   -1.793747   -0.980142
      3          6           0        1.483810   -2.420399   -1.741131
      4          1           0        1.540229   -0.118872   -0.202747
      5          1           0        2.359159    0.206488   -1.727417
      6          1           0        2.768513   -2.289023   -0.007582
      7          1           0        3.586210   -1.963280   -1.531676
      8          1           0        1.369529   -1.952993   -2.724529
      9          1           0        0.547187   -2.280588   -1.191775
     10          1           0        1.632085   -3.494354   -1.891114
     11          6           0        3.634391    0.348855    0.004555
     12          6           0        3.455911    1.850656    0.229777
     13          6           0        4.624670    2.477308    0.990766
     14          1           0        3.749322   -0.149579    0.977052
     15          1           0        4.568251    0.175781   -0.547618
     16          1           0        2.522271    2.020188    0.781311
     17          1           0        3.339967    2.345932   -0.742783
     18          1           0        5.561293    2.337497    0.441410
     19          1           0        4.738951    2.009902    1.974164
     20          1           0        4.476395    3.551263    1.140749
     21          6           0       -2.663396   -0.255490    0.990916
     22          6           0       -2.086163   -1.665045    0.856981
     23          6           0       -1.306978   -2.105028    2.096773
     24          1           0       -1.845165    0.452324    1.181816
     25          1           0       -3.320711   -0.218044    1.870649
     26          1           0       -1.431217   -1.700188   -0.023036
     27          1           0       -2.905842   -2.369559    0.666186
     28          1           0       -1.953277   -2.098327    2.980431
     29          1           0       -0.470274   -1.425154    2.287293
     30          1           0       -0.903130   -3.115477    1.979479
     31          6           0       -3.445084    0.198581   -0.240552
     32          6           0       -4.022318    1.608136   -0.106616
     33          6           0       -4.801501    2.048119   -1.346407
     34          1           0       -2.787768    0.161136   -1.120284
     35          1           0       -4.263315   -0.509233   -0.431451
     36          1           0       -3.202639    2.312650    0.084179
     37          1           0       -4.677263    1.643279    0.773400
     38          1           0       -5.638205    1.368245   -1.536928
     39          1           0       -4.155203    2.041418   -2.230067
     40          1           0       -5.205349    3.058569   -1.229114
 ---------------------------------------------------------------------

 SCF Done:  E(RHF) =  -470.733392104     A.U. after   11 cycles
 E2 =    -0.1582994370D+01 EUMP2 =    -0.47231638647384D+03

 The electronic state is 1-A.
 Alpha  occ. eigenvalues --  -11.21638 -11.21636 -11.21621 -11.21605 -11.21444
 Alpha  occ. eigenvalues --  -11.21428 -11.21383 -11.21363 -11.21132 -11.21094
 Alpha  occ. eigenvalues --  -11.21075 -11.21069  -1.08470  -1.08446  -1.03579
 Alpha  occ. eigenvalues --   -1.03534  -0.96019  -0.95991  -0.87034  -0.87010
 Alpha  occ. eigenvalues --   -0.79669  -0.79573  -0.78295  -0.78247  -0.65196
 Alpha  occ. eigenvalues --   -0.64996  -0.61126  -0.60800  -0.59391  -0.59354
 Alpha  occ. eigenvalues --   -0.57662  -0.57573  -0.55362  -0.55225  -0.52701
 Alpha  occ. eigenvalues --   -0.52693  -0.52451  -0.52415  -0.50054  -0.49866
 Alpha  occ. eigenvalues --   -0.48058  -0.47846  -0.46817  -0.46487  -0.45919
 Alpha  occ. eigenvalues --   -0.45778  -0.45746  -0.45562  -0.43813  -0.43807
 Alpha virt. eigenvalues --    0.19873   0.23308   0.23574   0.25018   0.25884
 Alpha virt. eigenvalues --    0.26326   0.27031   0.28009   0.28311   0.28872
 Alpha virt. eigenvalues --    0.30440   0.31445   0.31717   0.31745   0.31986

 Mulliken charges:
               1
     1  C   -0.299192
     2  C   -0.299028
     3  C   -0.484079
     4  H    0.149301
     5  H    0.149495
     6  H    0.152414
     7  H    0.152049
     8  H    0.155013
     9  H    0.162898
    10  H    0.160633
    11  C   -0.298377
    12  C   -0.299587
    13  C   -0.475734
    14  H    0.149773
    15  H    0.149923
    16  H    0.151494
    17  H    0.151939
    18  H    0.155289
    19  H    0.155324
    20  H    0.160328
    21  C   -0.297746
    22  C   -0.308500
    23  C   -0.476008
    24  H    0.149221
    25  H    0.149712
    26  H    0.159172
    27  H    0.152639
    28  H    0.155732
    29  H    0.154542
    30  H    0.160756
    31  C   -0.298528
    32  C   -0.299702
    33  C   -0.475749
    34  H    0.150104
    35  H    0.149766
    36  H    0.152044
    37  H    0.151868
    38  H    0.155183
    39  H    0.155361
    40  H    0.160256
 Sum of Mulliken charges =  -0.00000

 Dipole moment (field-independent basis, Debye):
    X=             -0.0055    Y=             -0.0088    Z=             -0.0014  Tot=              0.0105
 Quadrupole moment (field-independent basis, Debye-Ang):
   XX=            -84.6713   YY=            -85.1477   ZZ=            -84.8060
   XY=              0.2684   XZ=             -1.6738   YZ=             -0.2934

 Normal termination of Gaussian 16 at Wed May  5 15:23:25 2021.
