 Gaussian 16, Revision A.03,
 Gaussian 16:  EM64L-G16RevA.03 25-Dec-2016

 -------------
 #p 6-31g* mp2
 -------------

 ------------------------------------------------------
 Input file generated by CHIRIPA (05-May-2021 14:53:17)
 ------------------------------------------------------
 Symbolic Z-matrix:
 Charge =  0 Multiplicity = 1

                         Standard orientation:
 ---------------------------------------------------------------------
 Center     Atomic      Atomic             Coordinates (Angstroms)
 Number     Number       Type             X           Y           Z
 ---------------------------------------------------------------------
      1          6           0        2.725961    0.075560   -0.492294
      2          6           0        4.123486   -0.487629   -0.232051
      3          6           0        4.284753   -1.923497   -0.732122
      4          1           0        1.981270   -0.569383   -0.006055
      5          1           0        2.517268    0.036162   -1.570390
      6          1           0        4.330024   -0.445902    0.845083
      7          1           0        4.864950    0.158835   -0.718805
      8          1           0        4.105147   -1.978248   -1.810707
      9          1           0        3.567181   -2.586421   -0.237933
     10          1           0        5.291144   -2.306301   -0.535913
     11          6           0        2.549229    1.510188    0.002008
     12          6           0        1.151704    2.073377   -0.258236
     13          6           0        0.990437    3.509245    0.241836
     14          1           0        2.757922    1.549586    1.080104
     15          1           0        3.293920    2.155130   -0.484231
     16          1           0        0.410240    1.426912    0.228519
     17          1           0        0.945166    2.031649   -1.335369
     18          1           0        1.708009    4.172168   -0.252354
     19          1           0        1.170043    3.563996    1.320421
     20          1           0       -0.015954    3.892048    0.045626
     21          6           0       -3.937253    0.717709   -0.836212
     22          6           0       -3.629426   -0.553049   -1.333139
     23          6           0       -2.591721   -1.302856   -0.771439
     24          6           0       -1.879195   -0.748703    0.290875
     25          6           0       -2.161856    0.514542    0.808180
     26          6           0       -3.203779    1.246517    0.230980
     27          1           0       -4.745005    1.293250   -1.278574
     28          1           0       -4.197363   -0.966253   -2.161846
     29          1           0       -2.332204   -2.289143   -1.136552
     30          1           0       -1.577919    0.899850    1.635207
     31          1           0       -3.440618    2.233141    0.618954
     32          7           0       -0.778391   -1.533049    0.893726
     33          8           0       -0.165673   -1.022387    1.828840
     34          8           0       -0.549143   -2.643632    0.419712
 ---------------------------------------------------------------------

 SCF Done:  E(RHF) =  -669.535328995     A.U. after   15 cycles
 E2 =    -0.2094674002D+01 EUMP2 =    -0.67163000299657D+03

 The electronic state is 1-A.
 Alpha  occ. eigenvalues --  -20.61053 -20.61045 -15.86044 -11.31302 -11.27877
 Alpha  occ. eigenvalues --  -11.27873 -11.27607 -11.26861 -11.26851 -11.21229
 Alpha  occ. eigenvalues --  -11.21022 -11.20751 -11.20733 -11.20455 -11.20123
 Alpha  occ. eigenvalues --   -1.60101  -1.39658  -1.19486  -1.08897  -1.07759
 Alpha  occ. eigenvalues --   -1.04876  -1.02940  -0.95751  -0.95389  -0.86427
 Alpha  occ. eigenvalues --   -0.86271  -0.82587  -0.79052  -0.77684  -0.77519
 Alpha  occ. eigenvalues --   -0.72279  -0.71428  -0.70607  -0.65145  -0.64894
 Alpha  occ. eigenvalues --   -0.64341  -0.62240  -0.60327  -0.58827  -0.57003
 Alpha  occ. eigenvalues --   -0.55383  -0.54666  -0.53213  -0.52964  -0.52140
 Alpha  occ. eigenvalues --   -0.51817  -0.49385  -0.49043  -0.48988  -0.47349
 Alpha  occ. eigenvalues --   -0.46106  -0.45405  -0.45056  -0.44539  -0.43159
 Alpha  occ. eigenvalues --   -0.37432  -0.36415
 Alpha virt. eigenvalues --    0.04822   0.11101   0.16304   0.21022   0.23542
 Alpha virt. eigenvalues --    0.24766   0.27076   0.27324   0.27960   0.28354
 Alpha virt. eigenvalues --    0.29018   0.30489   0.31718   0.32064   0.32470

 Mulliken charges:
               1
     1  C   -0.307059
     2  C   -0.298323
     3  C   -0.477988
     4  H    0.167622
     5  H    0.143256
     6  H    0.154324
     7  H    0.146755
     8  H    0.150994
     9  H    0.166626
    10  H    0.156582
    11  C   -0.294781
    12  C   -0.305991
    13  C   -0.476246
    14  H    0.153164
    15  H    0.145634
    16  H    0.154994
    17  H    0.148865
    18  H    0.156480
    19  H    0.155536
    20  H    0.151291
    21  C   -0.170210
    22  C   -0.218641
    23  C   -0.170296
    24  C    0.162542
    25  C   -0.172707
    26  C   -0.219013
    27  H    0.226214
    28  H    0.223898
    29  H    0.275934
    30  H    0.276356
    31  H    0.224336
    32  N    0.487741
    33  O   -0.459994
    34  O   -0.457894
 Sum of Mulliken charges =  -0.00000

 Dipole moment (field-independent basis, Debye):
    X=             -4.0410    Y=              2.5453    Z=             -2.0117  Tot=              5.1822
 Quadrupole moment (field-independent basis, Debye-Ang):
   XX=            -80.9129   YY=            -97.7518   ZZ=            -93.7587
   XY=             -1.4481   XZ=              3.9225   YZ=              4.5627

 Normal termination of Gaussian 16 at Wed May  5 22:02:47 2021.
