 Gaussian 16, Revision A.03,
 Gaussian 16:  EM64L-G16RevA.03 25-Dec-2016

 -------------
 #p 6-31g* mp2
 -------------

 ------------------------------------------------------
 Input file generated by CHIRIPA (05-May-2021 14:53:11)
 ------------------------------------------------------
 Symbolic Z-matrix:
 Charge =  0 Multiplicity = 1

                         Standard orientation:
 ---------------------------------------------------------------------
 Center     Atomic      Atomic             Coordinates (Angstroms)
 Number     Number       Type             X           Y           Z
 ---------------------------------------------------------------------
      1          6           0       -2.623990   -1.263467    0.041575
      2          6           0       -1.276082   -1.462630   -0.652302
      3          6           0       -0.607544   -2.785398   -0.276621
      4          1           0       -2.478961   -1.306598    1.129716
      5          1           0       -3.289273   -2.098448   -0.218428
      6          1           0       -0.614004   -0.626806   -0.392174
      7          1           0       -1.424307   -1.418829   -1.738914
      8          1           0       -1.245730   -3.631361   -0.551695
      9          1           0       -0.430823   -2.834837    0.802697
     10          1           0        0.354599   -2.907238   -0.783865
     11          6           0       -3.304649    0.054421   -0.323943
     12          6           0       -4.652557    0.253584    0.369933
     13          6           0       -5.321095    1.576351   -0.005748
     14          1           0       -2.639366    0.889401   -0.063941
     15          1           0       -3.449678    0.097551   -1.412085
     16          1           0       -4.504332    0.209783    1.456545
     17          1           0       -5.314634   -0.582241    0.109806
     18          1           0       -5.497816    1.625791   -1.085066
     19          1           0       -4.682909    2.422314    0.269326
     20          1           0       -6.283238    1.698192    0.501496
     21          6           0        1.851019    2.940447   -0.130535
     22          6           0        1.598982    2.296019    1.085076
     23          6           0        1.852776    0.928846    1.229903
     24          6           0        2.360815    0.233670    0.133584
     25          6           0        2.622340    0.847374   -1.090452
     26          6           0        2.360995    2.215346   -1.212512
     27          1           0        1.650933    4.002810   -0.234197
     28          1           0        1.202934    2.856621    1.927048
     29          1           0        1.666844    0.404931    2.159613
     30          1           0        3.017201    0.261971   -1.911918
     31          1           0        2.557693    2.713195   -2.157764
     32          7           0        2.633492   -1.214117    0.274854
     33          8           0        3.081026   -1.804138   -0.706078
     34          8           0        2.394521   -1.731458    1.363838
 ---------------------------------------------------------------------

 SCF Done:  E(RHF) =  -669.535853357     A.U. after   15 cycles
 E2 =    -0.2093652928D+01 EUMP2 =    -0.67162950628523D+03

 The electronic state is 1-A.
 Alpha  occ. eigenvalues --  -20.60940 -20.60923 -15.85934 -11.31286 -11.27856
 Alpha  occ. eigenvalues --  -11.27842 -11.27587 -11.26868 -11.26849 -11.21586
 Alpha  occ. eigenvalues --  -11.21292 -11.21155 -11.21140 -11.21073 -11.20057
 Alpha  occ. eigenvalues --   -1.59979  -1.39536  -1.19462  -1.08859  -1.08214
 Alpha  occ. eigenvalues --   -1.04856  -1.03234  -0.95707  -0.95642  -0.86655
 Alpha  occ. eigenvalues --   -0.86255  -0.82533  -0.79317  -0.78016  -0.77585
 Alpha  occ. eigenvalues --   -0.72174  -0.71329  -0.70562  -0.65115  -0.64860
 Alpha  occ. eigenvalues --   -0.64850  -0.62203  -0.60634  -0.59048  -0.57253
 Alpha  occ. eigenvalues --   -0.55357  -0.54936  -0.53223  -0.52946  -0.52285
 Alpha  occ. eigenvalues --   -0.52070  -0.49600  -0.48939  -0.48918  -0.47618
 Alpha  occ. eigenvalues --   -0.46388  -0.45554  -0.45488  -0.44865  -0.43457
 Alpha  occ. eigenvalues --   -0.37396  -0.36454
 Alpha virt. eigenvalues --    0.04907   0.11176   0.16371   0.21320   0.22983
 Alpha virt. eigenvalues --    0.24530   0.26728   0.27264   0.27583   0.28064
 Alpha virt. eigenvalues --    0.28540   0.30909   0.31566   0.31902   0.32226

 Mulliken charges:
               1
     1  C   -0.296960
     2  C   -0.304234
     3  C   -0.486746
     4  H    0.148814
     5  H    0.150120
     6  H    0.147155
     7  H    0.149369
     8  H    0.151354
     9  H    0.164556
    10  H    0.174281
    11  C   -0.297348
    12  C   -0.299327
    13  C   -0.475071
    14  H    0.145827
    15  H    0.148891
    16  H    0.151086
    17  H    0.153008
    18  H    0.155082
    19  H    0.152078
    20  H    0.160146
    21  C   -0.170635
    22  C   -0.218218
    23  C   -0.172763
    24  C    0.160871
    25  C   -0.171154
    26  C   -0.217922
    27  H    0.226134
    28  H    0.223836
    29  H    0.275673
    30  H    0.276028
    31  H    0.224014
    32  N    0.489623
    33  O   -0.459930
    34  O   -0.457639
 Sum of Mulliken charges =  -0.00000

 Dipole moment (field-independent basis, Debye):
    X=             -0.7626    Y=              5.0403    Z=             -0.4658  Tot=              5.1189
 Quadrupole moment (field-independent basis, Debye-Ang):
   XX=            -99.9523   YY=            -93.3366   ZZ=            -89.8527
   XY=             12.6394   XZ=             -2.8382   YZ=              1.1401

 Normal termination of Gaussian 16 at Thu May  6 02:29:15 2021.
