 Gaussian 16, Revision A.03,
 Gaussian 16:  EM64L-G16RevA.03 25-Dec-2016

 -------------
 #p 6-31g* mp2
 -------------

 ------------------------------------------------------
 Input file generated by CHIRIPA (05-May-2021 14:55:21)
 ------------------------------------------------------
 Symbolic Z-matrix:
 Charge =  0 Multiplicity = 1

                         Standard orientation:
 ---------------------------------------------------------------------
 Center     Atomic      Atomic             Coordinates (Angstroms)
 Number     Number       Type             X           Y           Z
 ---------------------------------------------------------------------
      1          6           0       -0.695591   -1.055316    0.762056
      2          6           0       -1.151511    0.233696    1.057197
      3          6           0       -2.447844    0.625220    0.709666
      4          6           0       -3.265174   -0.301932    0.064957
      5          6           0       -2.839967   -1.593388   -0.242665
      6          6           0       -1.539786   -1.963143    0.114209
      7          1           0        0.312926   -1.351006    1.035655
      8          1           0       -0.498095    0.940822    1.560253
      9          1           0       -2.826422    1.616793    0.926183
     10          1           0       -3.514481   -2.276202   -0.744874
     11          1           0       -1.188399   -2.964871   -0.116255
     12          7           0       -4.639581    0.101034   -0.307903
     13          8           0       -5.340099   -0.734434   -0.875270
     14          8           0       -4.990298    1.244716   -0.025725
     15          6           0        3.634525    1.186639   -0.245369
     16          6           0        2.118120    1.311370   -0.093906
     17          6           0        1.623250    2.748052   -0.263733
     18          1           0        4.124996    1.834699    0.493820
     19          1           0        3.929312    1.562408   -1.234962
     20          1           0        1.826123    0.934194    0.894574
     21          1           0        1.631202    0.662791   -0.833415
     22          1           0        1.886069    3.131393   -1.254983
     23          1           0        2.082097    3.404339    0.482824
     24          1           0        0.536562    2.814257   -0.151551
     25          6           0        4.144433   -0.243673   -0.078239
     26          6           0        5.660838   -0.368404   -0.229702
     27          6           0        6.155708   -1.805086   -0.059875
     28          1           0        3.849646   -0.619442    0.911353
     29          1           0        3.653961   -0.891732   -0.817429
     30          1           0        6.147755    0.280176    0.509807
     31          1           0        5.952835    0.008772   -1.218182
     32          1           0        5.696860   -2.461372   -0.806433
     33          1           0        5.892889   -2.188427    0.931375
     34          1           0        7.242396   -1.871292   -0.172058
 ---------------------------------------------------------------------

 SCF Done:  E(RHF) =  -669.534694647     A.U. after   15 cycles
 E2 =    -0.2092932832D+01 EUMP2 =    -0.67162762747848D+03

 The electronic state is 1-A.
 Alpha  occ. eigenvalues --  -20.60727 -20.60722 -15.85781 -11.31135 -11.27712
 Alpha  occ. eigenvalues --  -11.27699 -11.27411 -11.26715 -11.26667 -11.22630
 Alpha  occ. eigenvalues --  -11.22317 -11.22263 -11.22203 -11.21931 -11.21708
 Alpha  occ. eigenvalues --   -1.59803  -1.39357  -1.19310  -1.09300  -1.08698
 Alpha  occ. eigenvalues --   -1.04729  -1.04347  -0.96787  -0.95538  -0.87799
 Alpha  occ. eigenvalues --   -0.86118  -0.82372  -0.80452  -0.79133  -0.77421
 Alpha  occ. eigenvalues --   -0.71999  -0.71127  -0.70404  -0.65945  -0.64959
 Alpha  occ. eigenvalues --   -0.64750  -0.62168  -0.61686  -0.60125  -0.58397
 Alpha  occ. eigenvalues --   -0.56058  -0.55201  -0.53499  -0.53237  -0.53007
 Alpha  occ. eigenvalues --   -0.52747  -0.50718  -0.48788  -0.48756  -0.48713
 Alpha  occ. eigenvalues --   -0.47467  -0.46645  -0.46566  -0.44766  -0.44616
 Alpha  occ. eigenvalues --   -0.37244  -0.36305
 Alpha virt. eigenvalues --    0.05091   0.11275   0.16504   0.19837   0.22496
 Alpha virt. eigenvalues --    0.23611   0.25019   0.25731   0.26372   0.28411
 Alpha virt. eigenvalues --    0.29133   0.30575   0.30990   0.31194   0.31764

 Mulliken charges:
               1
     1  C   -0.170426
     2  C   -0.217248
     3  C   -0.173435
     4  C    0.158376
     5  C   -0.170954
     6  C   -0.219875
     7  H    0.227431
     8  H    0.226873
     9  H    0.275271
    10  H    0.275366
    11  H    0.223202
    12  N    0.488085
    13  O   -0.460644
    14  O   -0.460581
    15  C   -0.298213
    16  C   -0.302411
    17  C   -0.478709
    18  H    0.151623
    19  H    0.153625
    20  H    0.138429
    21  H    0.157988
    22  H    0.161462
    23  H    0.156683
    24  H    0.159066
    25  C   -0.299312
    26  C   -0.300005
    27  C   -0.476264
    28  H    0.144745
    29  H    0.148962
    30  H    0.153693
    31  H    0.154457
    32  H    0.155221
    33  H    0.154494
    34  H    0.163024
 Sum of Mulliken charges =  -0.00000

 Dipole moment (field-independent basis, Debye):
    X=              5.0335    Y=             -1.3686    Z=              1.2102  Tot=              5.3548
 Quadrupole moment (field-independent basis, Debye-Ang):
   XX=           -126.6142   YY=            -90.6607   ZZ=            -93.5361
   XY=              4.6963   XZ=             -3.8548   YZ=              1.6804

 Normal termination of Gaussian 16 at Wed May  5 17:26:58 2021.
