 Gaussian 16, Revision A.03,
 Gaussian 16:  EM64L-G16RevA.03 25-Dec-2016

 -------------
 #p 6-31g* mp2
 -------------

 ------------------------------------------------------
 Input file generated by CHIRIPA (05-May-2021 14:53:15)
 ------------------------------------------------------
 Symbolic Z-matrix:
 Charge =  0 Multiplicity = 1

                         Standard orientation:
 ---------------------------------------------------------------------
 Center     Atomic      Atomic             Coordinates (Angstroms)
 Number     Number       Type             X           Y           Z
 ---------------------------------------------------------------------
      1          6           0       -3.951291    1.012741    0.087416
      2          6           0       -3.033871    1.962598   -0.683362
      3          6           0       -3.210809    3.423083   -0.266864
      4          1           0       -4.995841    1.315763   -0.067627
      5          1           0       -3.752623    1.114826    1.163290
      6          1           0       -3.233243    1.857747   -1.757547
      7          1           0       -1.991394    1.657164   -0.526621
      8          1           0       -2.992156    3.549070    0.798462
      9          1           0       -4.241060    3.750793   -0.439458
     10          1           0       -2.545457    4.084667   -0.830312
     11          6           0       -3.786048   -0.450893   -0.317797
     12          6           0       -4.703467   -1.400750    0.452981
     13          6           0       -4.526530   -2.861235    0.036484
     14          1           0       -3.984715   -0.552977   -1.393671
     15          1           0       -2.741497   -0.753914   -0.162754
     16          1           0       -5.745944   -1.095316    0.296240
     17          1           0       -4.504096   -1.295899    1.527166
     18          1           0       -3.496278   -3.188945    0.209078
     19          1           0       -4.745182   -2.987222   -1.028842
     20          1           0       -5.191881   -3.522819    0.599932
     21          6           0        0.587615   -0.810528    0.387329
     22          6           0        1.449005   -1.698879   -0.264868
     23          6           0        2.799924   -1.381812   -0.435263
     24          6           0        3.257783   -0.162331    0.061247
     25          6           0        2.424467    0.743710    0.715437
     26          6           0        1.077232    0.405787    0.874541
     27          1           0       -0.460380   -1.064934    0.515311
     28          1           0        1.071533   -2.644190   -0.644268
     29          1           0        3.488760   -2.051053   -0.936300
     30          1           0        2.829946    1.678602    1.082834
     31          1           0        0.410569    1.097630    1.381451
     32          7           0        4.685990    0.184374   -0.113166
     33          8           0        5.064717    1.265019    0.333384
     34          8           0        5.399650   -0.631090   -0.693119
 ---------------------------------------------------------------------

 SCF Done:  E(RHF) =  -669.535512547     A.U. after   15 cycles
 E2 =    -0.2091720471D+01 EUMP2 =    -0.67162723301809D+03

 The electronic state is 1-A.
 Alpha  occ. eigenvalues --  -20.60767 -20.60762 -15.85821 -11.31197 -11.27769
 Alpha  occ. eigenvalues --  -11.27764 -11.27501 -11.26791 -11.26772 -11.22549
 Alpha  occ. eigenvalues --  -11.22484 -11.22466 -11.22313 -11.21978 -11.21803
 Alpha  occ. eigenvalues --   -1.59842  -1.39396  -1.19371  -1.09404  -1.08763
 Alpha  occ. eigenvalues --   -1.04775  -1.04420  -0.96874  -0.95598  -0.87883
 Alpha  occ. eigenvalues --   -0.86172  -0.82432  -0.80479  -0.79224  -0.77473
 Alpha  occ. eigenvalues --   -0.72039  -0.71165  -0.70505  -0.66058  -0.65023
 Alpha  occ. eigenvalues --   -0.64767  -0.62131  -0.61816  -0.60230  -0.58480
 Alpha  occ. eigenvalues --   -0.56221  -0.55266  -0.53524  -0.53281  -0.53100
 Alpha  occ. eigenvalues --   -0.52866  -0.50820  -0.48821  -0.48793  -0.48767
 Alpha  occ. eigenvalues --   -0.47527  -0.46749  -0.46677  -0.44799  -0.44696
 Alpha  occ. eigenvalues --   -0.37340  -0.36375
 Alpha virt. eigenvalues --    0.05046   0.11186   0.16475   0.18578   0.22735
 Alpha virt. eigenvalues --    0.23074   0.25052   0.26278   0.27057   0.27137
 Alpha virt. eigenvalues --    0.29638   0.30428   0.30922   0.31365   0.31866

 Mulliken charges:
               1
     1  C   -0.298981
     2  C   -0.301885
     3  C   -0.476338
     4  H    0.154240
     5  H    0.147503
     6  H    0.155838
     7  H    0.147381
     8  H    0.153339
     9  H    0.158184
    10  H    0.163639
    11  C   -0.302629
    12  C   -0.300348
    13  C   -0.474990
    14  H    0.154457
    15  H    0.140585
    16  H    0.156295
    17  H    0.151917
    18  H    0.148926
    19  H    0.157782
    20  H    0.164220
    21  C   -0.175756
    22  C   -0.220684
    23  C   -0.170620
    24  C    0.158499
    25  C   -0.170788
    26  C   -0.221942
    27  H    0.235152
    28  H    0.223981
    29  H    0.275728
    30  H    0.275773
    31  H    0.224221
    32  N    0.488001
    33  O   -0.460366
    34  O   -0.460338
 Sum of Mulliken charges =  -0.00000

 Dipole moment (field-independent basis, Debye):
    X=             -5.2360    Y=             -1.1807    Z=              0.5505  Tot=              5.3956
 Quadrupole moment (field-independent basis, Debye-Ang):
   XX=           -126.4150   YY=            -91.6384   ZZ=            -93.7393
   XY=             -4.0869   XZ=              2.0208   YZ=              1.8579

 Normal termination of Gaussian 16 at Wed May  5 23:30:17 2021.
