 Gaussian 16, Revision A.03,
 Gaussian 16:  EM64L-G16RevA.03 25-Dec-2016

 -------------
 #p 6-31g* mp2
 -------------

 ------------------------------------------------------
 Input file generated by CHIRIPA (05-May-2021 14:53:17)
 ------------------------------------------------------
 Symbolic Z-matrix:
 Charge =  0 Multiplicity = 1

                         Standard orientation:
 ---------------------------------------------------------------------
 Center     Atomic      Atomic             Coordinates (Angstroms)
 Number     Number       Type             X           Y           Z
 ---------------------------------------------------------------------
      1          6           0        4.954186   -0.003759    0.252650
      2          6           0        5.583638   -0.107926   -1.136926
      3          6           0        7.067539    0.260584   -1.142856
      4          1           0        5.080636    1.020362    0.629654
      5          1           0        5.498930   -0.661012    0.944507
      6          1           0        5.036999    0.548280   -1.826270
      7          1           0        5.455505   -1.131868   -1.510746
      8          1           0        7.631445   -0.401040   -0.477376
      9          1           0        7.210561    1.288654   -0.794693
     10          1           0        7.497390    0.179252   -2.146088
     11          6           0        3.471011   -0.369041    0.274800
     12          6           0        2.841558   -0.264874    1.664376
     13          6           0        1.357658   -0.633383    1.670306
     14          1           0        2.926267    0.288212   -0.417057
     15          1           0        3.344560   -1.393162   -0.102204
     16          1           0        2.969691    0.759068    2.038196
     17          1           0        3.388197   -0.921080    2.353720
     18          1           0        1.214636   -1.661453    1.322144
     19          1           0        0.793752    0.028241    1.004826
     20          1           0        0.927807   -0.552052    2.673538
     21          6           0       -4.122781   -2.226455   -0.423877
     22          6           0       -5.035176   -1.168937   -0.348290
     23          6           0       -4.585677    0.149355   -0.227438
     24          6           0       -3.210688    0.374949   -0.184975
     25          6           0       -2.276747   -0.657383   -0.258035
     26          6           0       -2.748902   -1.967759   -0.378588
     27          1           0       -4.480763   -3.247461   -0.517641
     28          1           0       -6.102719   -1.366870   -0.383216
     29          1           0       -5.270051    0.986845   -0.166937
     30          1           0       -1.218569   -0.428739   -0.220626
     31          1           0       -2.038021   -2.787071   -0.437081
     32          7           0       -2.722831    1.766375   -0.057192
     33          8           0       -1.506398    1.938669   -0.021972
     34          8           0       -3.566121    2.658335    0.005323
 ---------------------------------------------------------------------

 SCF Done:  E(RHF) =  -669.535894793     A.U. after   15 cycles
 E2 =    -0.2091295655D+01 EUMP2 =    -0.67162719044860D+03

 The electronic state is 1-A.
 Alpha  occ. eigenvalues --  -20.60805 -20.60800 -15.85847 -11.31150 -11.27731
 Alpha  occ. eigenvalues --  -11.27680 -11.27471 -11.26739 -11.26717 -11.21515
 Alpha  occ. eigenvalues --  -11.21492 -11.21303 -11.21238 -11.21116 -11.20961
 Alpha  occ. eigenvalues --   -1.59871  -1.39428  -1.19327  -1.08737  -1.08333
 Alpha  occ. eigenvalues --   -1.04722  -1.03455  -0.95926  -0.95575  -0.86953
 Alpha  occ. eigenvalues --   -0.86124  -0.82412  -0.79534  -0.78154  -0.77459
 Alpha  occ. eigenvalues --   -0.72071  -0.71187  -0.70446  -0.64993  -0.64952
 Alpha  occ. eigenvalues --   -0.64730  -0.62099  -0.60829  -0.59278  -0.57532
 Alpha  occ. eigenvalues --   -0.55290  -0.55156  -0.53061  -0.52892  -0.52600
 Alpha  occ. eigenvalues --   -0.52287  -0.49859  -0.48820  -0.48818  -0.47838
 Alpha  occ. eigenvalues --   -0.46531  -0.45698  -0.45597  -0.44836  -0.43702
 Alpha  occ. eigenvalues --   -0.37314  -0.36319
 Alpha virt. eigenvalues --    0.05053   0.11314   0.16556   0.20942   0.23029
 Alpha virt. eigenvalues --    0.24215   0.25982   0.26661   0.27715   0.27885
 Alpha virt. eigenvalues --    0.29567   0.29896   0.31609   0.31998   0.32028

 Mulliken charges:
               1
     1  C   -0.298406
     2  C   -0.299830
     3  C   -0.475738
     4  H    0.151997
     5  H    0.148527
     6  H    0.153559
     7  H    0.150137
     8  H    0.154505
     9  H    0.156237
    10  H    0.159930
    11  C   -0.299835
    12  C   -0.298029
    13  C   -0.488601
    14  H    0.153973
    15  H    0.145249
    16  H    0.157564
    17  H    0.150575
    18  H    0.144785
    19  H    0.170208
    20  H    0.163316
    21  C   -0.170421
    22  C   -0.219038
    23  C   -0.170278
    24  C    0.155944
    25  C   -0.172750
    26  C   -0.221843
    27  H    0.225441
    28  H    0.223233
    29  H    0.275354
    30  H    0.285376
    31  H    0.223952
    32  N    0.488620
    33  O   -0.463894
    34  O   -0.459819
 Sum of Mulliken charges =  -0.00000

 Dipole moment (field-independent basis, Debye):
    X=             -1.7041    Y=             -4.7894    Z=             -0.4288  Tot=              5.1016
 Quadrupole moment (field-independent basis, Debye-Ang):
   XX=            -80.3653   YY=            -97.6900   ZZ=            -95.4743
   XY=             13.3599   XZ=              2.0010   YZ=              0.7774

 Normal termination of Gaussian 16 at Thu May  6 12:16:41 2021.
