 Gaussian 16, Revision A.03,
 Gaussian 16:  EM64L-G16RevA.03 25-Dec-2016

 -------------
 #p 6-31g* mp2
 -------------

 ------------------------------------------------------
 Input file generated by CHIRIPA (05-May-2021 14:55:23)
 ------------------------------------------------------
 Symbolic Z-matrix:
 Charge =  0 Multiplicity = 1

                         Standard orientation:
 ---------------------------------------------------------------------
 Center     Atomic      Atomic             Coordinates (Angstroms)
 Number     Number       Type             X           Y           Z
 ---------------------------------------------------------------------
      1          6           0       -1.504437    1.452497    0.279214
      2          6           0       -2.604129    1.611134    1.128938
      3          6           0       -3.719744    0.777038    1.009626
      4          6           0       -3.701858   -0.209752    0.025139
      5          6           0       -2.621396   -0.392751   -0.836489
      6          6           0       -1.516558    0.452823   -0.699063
      7          1           0       -0.641986    2.104902    0.378934
      8          1           0       -2.597487    2.386643    1.889588
      9          1           0       -4.584491    0.877839    1.654196
     10          1           0       -2.657218   -1.174792   -1.585186
     11          1           0       -0.663927    0.327317   -1.360360
     12          7           0       -4.877205   -1.098848   -0.110760
     13          8           0       -4.836794   -1.960634   -0.986163
     14          8           0       -5.816596   -0.917102    0.660699
     15          6           0        4.311151    0.795203   -0.263554
     16          6           0        2.804407    1.042404   -0.344772
     17          6           0        2.461608    2.475894   -0.751454
     18          1           0        4.753277    1.497717    0.456128
     19          1           0        4.765524    1.019317   -1.238600
     20          1           0        2.352815    0.816564    0.629742
     21          1           0        2.365788    0.339092   -1.064203
     22          1           0        2.885284    2.709483   -1.733562
     23          1           0        2.872238    3.189669   -0.029992
     24          1           0        1.379370    2.630580   -0.803344
     25          6           0        4.669705   -0.633365    0.141861
     26          6           0        6.176449   -0.880565    0.223078
     27          6           0        6.519248   -2.314055    0.629761
     28          1           0        4.215331   -0.857478    1.116906
     29          1           0        4.227578   -1.335878   -0.577822
     30          1           0        6.615068   -0.177254    0.942510
     31          1           0        6.628041   -0.654725   -0.751436
     32          1           0        6.108618   -3.027830   -0.091702
     33          1           0        6.095572   -2.547645    1.611869
     34          1           0        7.601486   -2.468741    0.681650
 ---------------------------------------------------------------------

 SCF Done:  E(RHF) =  -669.535477912     A.U. after   15 cycles
 E2 =    -0.2091293864D+01 EUMP2 =    -0.67162677177554D+03

 The electronic state is 1-A.
 Alpha  occ. eigenvalues --  -20.60726 -20.60721 -15.85779 -11.31136 -11.27704
 Alpha  occ. eigenvalues --  -11.27699 -11.27416 -11.26716 -11.26699 -11.22744
 Alpha  occ. eigenvalues --  -11.22373 -11.22229 -11.22127 -11.22022 -11.21487
 Alpha  occ. eigenvalues --   -1.59801  -1.39355  -1.19306  -1.09234  -1.08700
 Alpha  occ. eigenvalues --   -1.04709  -1.04365  -0.96812  -0.95537  -0.87824
 Alpha  occ. eigenvalues --   -0.86104  -0.82373  -0.80445  -0.78989  -0.77421
 Alpha  occ. eigenvalues --   -0.71997  -0.71124  -0.70442  -0.65857  -0.64959
 Alpha  occ. eigenvalues --   -0.64725  -0.62070  -0.61744  -0.60251  -0.58418
 Alpha  occ. eigenvalues --   -0.56073  -0.55229  -0.53504  -0.53200  -0.53035
 Alpha  occ. eigenvalues --   -0.52797  -0.50728  -0.48787  -0.48753  -0.48720
 Alpha  occ. eigenvalues --   -0.47467  -0.46539  -0.46427  -0.44763  -0.44604
 Alpha  occ. eigenvalues --   -0.37280  -0.36313
 Alpha virt. eigenvalues --    0.05108   0.11325   0.16589   0.18890   0.22488
 Alpha virt. eigenvalues --    0.23953   0.25142   0.25999   0.26461   0.27432
 Alpha virt. eigenvalues --    0.29010   0.29547   0.30721   0.31502   0.31600

 Mulliken charges:
               1
     1  C   -0.176243
     2  C   -0.219092
     3  C   -0.170886
     4  C    0.158415
     5  C   -0.171202
     6  C   -0.221488
     7  H    0.232675
     8  H    0.223533
     9  H    0.275337
    10  H    0.275429
    11  H    0.225659
    12  N    0.488042
    13  O   -0.460587
    14  O   -0.460571
    15  C   -0.298678
    16  C   -0.302834
    17  C   -0.480449
    18  H    0.151756
    19  H    0.151824
    20  H    0.152735
    21  H    0.149496
    22  H    0.161762
    23  H    0.159843
    24  H    0.150492
    25  C   -0.299040
    26  C   -0.300337
    27  C   -0.476188
    28  H    0.150773
    29  H    0.150318
    30  H    0.152681
    31  H    0.152786
    32  H    0.156057
    33  H    0.156049
    34  H    0.161932
 Sum of Mulliken charges =  -0.00000

 Dipole moment (field-independent basis, Debye):
    X=              4.4107    Y=              3.1120    Z=              0.4942  Tot=              5.4206
 Quadrupole moment (field-independent basis, Debye-Ang):
   XX=           -124.1670   YY=            -96.3688   ZZ=            -91.3209
   XY=            -13.3312   XZ=             -3.7920   YZ=              2.6717

 Normal termination of Gaussian 16 at Thu May  6 10:59:58 2021.
