 Gaussian 16, Revision A.03,
 Gaussian 16:  EM64L-G16RevA.03 25-Dec-2016

 -------------
 #p 6-31g* mp2
 -------------

 ------------------------------------------------------
 Input file generated by CHIRIPA (05-May-2021 14:53:17)
 ------------------------------------------------------
 Symbolic Z-matrix:
 Charge =  0 Multiplicity = 1

                         Standard orientation:
 ---------------------------------------------------------------------
 Center     Atomic      Atomic             Coordinates (Angstroms)
 Number     Number       Type             X           Y           Z
 ---------------------------------------------------------------------
      1          6           0       -4.836198    0.199768    0.215995
      2          6           0       -5.135773    0.941883   -1.086888
      3          6           0       -6.580507    1.435962   -1.167040
      4          1           0       -5.522577   -0.652747    0.311105
      5          1           0       -5.044760    0.865219    1.065154
      6          1           0       -4.925389    0.275691   -1.933376
      7          1           0       -4.448474    1.792619   -1.179001
      8          1           0       -6.799613    2.121298   -0.341869
      9          1           0       -7.279238    0.595752   -1.100531
     10          1           0       -6.772824    1.963595   -2.106443
     11          6           0       -3.395834   -0.300296    0.310948
     12          6           0       -3.096259   -1.042412    1.613831
     13          6           0       -1.651525   -1.536490    1.693983
     14          1           0       -3.187272   -0.965748   -0.538211
     15          1           0       -2.709455    0.552219    0.215838
     16          1           0       -3.783558   -1.893147    1.705944
     17          1           0       -3.306643   -0.376220    2.460320
     18          1           0       -0.952794   -0.696280    1.627474
     19          1           0       -1.432419   -2.221826    0.868812
     20          1           0       -1.459208   -2.064123    2.633386
     21          6           0        4.666961    1.955832    0.559911
     22          6           0        5.215795    0.927775   -0.213652
     23          6           0        4.421068   -0.139082   -0.643502
     24          6           0        3.075329   -0.146017   -0.279867
     25          6           0        2.499234    0.863410    0.489848
     26          6           0        3.312819    1.920431    0.908578
     27          1           0        5.291649    2.780772    0.889510
     28          1           0        6.267122    0.952648   -0.485934
     29          1           0        4.820123   -0.948074   -1.243256
     30          1           0        1.447879    0.811001    0.745436
     31          1           0        2.883879    2.717460    1.509243
     32          7           0        2.224004   -1.270245   -0.729044
     33          8           0        1.041227   -1.253040   -0.395310
     34          8           0        2.755634   -2.147332   -1.406336
 ---------------------------------------------------------------------

 SCF Done:  E(RHF) =  -669.535325990     A.U. after   15 cycles
 E2 =    -0.2091463181D+01 EUMP2 =    -0.67162678917027D+03

 The electronic state is 1-A.
 Alpha  occ. eigenvalues --  -20.60834 -20.60823 -15.85867 -11.31238 -11.27812
 Alpha  occ. eigenvalues --  -11.27803 -11.27550 -11.26824 -11.26814 -11.21171
 Alpha  occ. eigenvalues --  -11.20857 -11.20795 -11.20735 -11.20647 -11.19866
 Alpha  occ. eigenvalues --   -1.59903  -1.39457  -1.19411  -1.08807  -1.07803
 Alpha  occ. eigenvalues --   -1.04814  -1.02858  -0.95654  -0.95273  -0.86293
 Alpha  occ. eigenvalues --   -0.86212  -0.82478  -0.78942  -0.77647  -0.77453
 Alpha  occ. eigenvalues --   -0.72097  -0.71218  -0.70521  -0.65067  -0.64821
 Alpha  occ. eigenvalues --   -0.64446  -0.62167  -0.60265  -0.58696  -0.56878
 Alpha  occ. eigenvalues --   -0.55317  -0.54572  -0.53142  -0.52908  -0.51994
 Alpha  occ. eigenvalues --   -0.51669  -0.49289  -0.48859  -0.48785  -0.47203
 Alpha  occ. eigenvalues --   -0.45978  -0.45147  -0.45047  -0.44809  -0.43129
 Alpha  occ. eigenvalues --   -0.37390  -0.36417
 Alpha virt. eigenvalues --    0.05004   0.11234   0.16492   0.20832   0.23302
 Alpha virt. eigenvalues --    0.24297   0.26138   0.27502   0.27653   0.28236
 Alpha virt. eigenvalues --    0.29302   0.30447   0.31550   0.32321   0.32617

 Mulliken charges:
               1
     1  C   -0.297825
     2  C   -0.298964
     3  C   -0.475293
     4  H    0.149128
     5  H    0.146399
     6  H    0.153469
     7  H    0.149848
     8  H    0.153570
     9  H    0.155070
    10  H    0.158928
    11  C   -0.295836
    12  C   -0.301382
    13  C   -0.472896
    14  H    0.155646
    15  H    0.145228
    16  H    0.149735
    17  H    0.145056
    18  H    0.151718
    19  H    0.173681
    20  H    0.152201
    21  C   -0.170497
    22  C   -0.218702
    23  C   -0.170422
    24  C    0.157143
    25  C   -0.171527
    26  C   -0.219498
    27  H    0.225776
    28  H    0.223612
    29  H    0.275748
    30  H    0.278223
    31  H    0.223743
    32  N    0.492077
    33  O   -0.462812
    34  O   -0.460343
 Sum of Mulliken charges =  -0.00000

 Dipole moment (field-independent basis, Debye):
    X=              3.2063    Y=              3.8421    Z=              1.4617  Tot=              5.2133
 Quadrupole moment (field-independent basis, Debye-Ang):
   XX=            -75.1861   YY=            -94.9316   ZZ=            -95.5557
   XY=             11.1092   XZ=              2.2289   YZ=              0.4654

 Normal termination of Gaussian 16 at Thu May  6 20:29:31 2021.
