 Gaussian 16, Revision A.03,
 Gaussian 16:  EM64L-G16RevA.03 25-Dec-2016

 -------------
 #p 6-31g* mp2
 -------------

 ------------------------------------------------------
 Input file generated by CHIRIPA (05-May-2021 14:57:24)
 ------------------------------------------------------
 Symbolic Z-matrix:
 Charge =  0 Multiplicity = 1

                         Standard orientation:
 ---------------------------------------------------------------------
 Center     Atomic      Atomic             Coordinates (Angstroms)
 Number     Number       Type             X           Y           Z
 ---------------------------------------------------------------------
      1          6           0       -5.227676   -1.727280    0.476621
      2          6           0       -5.725320   -0.427475    0.615829
      3          6           0       -4.926834    0.676034    0.300812
      4          6           0       -3.629578    0.442118   -0.152731
      5          6           0       -3.105093   -0.840824   -0.301946
      6          6           0       -3.921454   -1.929449    0.018985
      7          1           0       -5.854903   -2.578731    0.723631
      8          1           0       -6.739365   -0.267462    0.971012
      9          1           0       -5.286795    1.692964    0.399299
     10          1           0       -2.090183   -0.968669   -0.658361
     11          1           0       -3.532325   -2.937777   -0.090098
     12          7           0       -2.774795    1.602476   -0.489356
     13          8           0       -1.635339    1.369663   -0.886943
     14          8           0       -3.260457    2.722805   -0.349241
     15          6           0        1.521948   -1.390908   -0.005017
     16          6           0        2.656726   -2.034589   -0.509471
     17          6           0        3.907655   -1.412428   -0.458086
     18          6           0        3.987834   -0.140663    0.107138
     19          6           0        2.875620    0.526537    0.618128
     20          6           0        1.634817   -0.114650    0.556185
     21          1           0        0.554129   -1.881608   -0.049035
     22          1           0        2.572055   -3.025766   -0.945870
     23          1           0        4.802390   -1.887903   -0.841215
     24          1           0        2.991478    1.514400    1.047221
     25          1           0        0.755234    0.387635    0.948726
     26          7           0        5.306776    0.528062    0.167126
     27          8           0        5.350860    1.648649    0.670097
     28          8           0        6.271506   -0.081041   -0.289961
 ---------------------------------------------------------------------

 SCF Done:  E(RHF) =  -868.337968418     A.U. after   16 cycles
 E2 =    -0.2599695084D+01 EUMP2 =    -0.87093766350200D+03

 The electronic state is 1-A.
 Alpha  occ. eigenvalues --  -20.61734 -20.61681 -20.60363 -20.60350 -15.86744
 Alpha  occ. eigenvalues --  -15.85407 -11.32080 -11.30744 -11.28723 -11.28575
 Alpha  occ. eigenvalues --  -11.28317 -11.27668 -11.27572 -11.27321 -11.27204
 Alpha  occ. eigenvalues --  -11.27133 -11.26418 -11.26205  -1.60774  -1.59433
 Alpha  occ. eigenvalues --   -1.40332  -1.38987  -1.20234  -1.18902  -1.09623
 Alpha  occ. eigenvalues --   -1.08331  -1.05638  -1.04279  -0.96471  -0.95175
 Alpha  occ. eigenvalues --   -0.87032  -0.85695  -0.83307  -0.81990  -0.78377
 Alpha  occ. eigenvalues --   -0.77017  -0.72957  -0.72095  -0.71630  -0.71338
 Alpha  occ. eigenvalues --   -0.70752  -0.70098  -0.65886  -0.65633  -0.64564
 Alpha  occ. eigenvalues --   -0.64275  -0.62997  -0.61614  -0.56108  -0.54908
 Alpha  occ. eigenvalues --   -0.53953  -0.53718  -0.52624  -0.52372  -0.49729
 Alpha  occ. eigenvalues --   -0.49705  -0.48387  -0.48383  -0.45734  -0.44399
 Alpha  occ. eigenvalues --   -0.38185  -0.37237  -0.36917  -0.35849
 Alpha virt. eigenvalues --    0.04132   0.05476   0.10399   0.11777   0.15643
 Alpha virt. eigenvalues --    0.16935   0.19026   0.21941   0.25138   0.27010
 Alpha virt. eigenvalues --    0.27910   0.29182   0.30657   0.31058   0.32780

 Mulliken charges:
               1
     1  C   -0.170089
     2  C   -0.217920
     3  C   -0.169851
     4  C    0.158983
     5  C   -0.176632
     6  C   -0.217932
     7  H    0.228513
     8  H    0.226805
     9  H    0.278168
    10  H    0.271183
    11  H    0.222679
    12  N    0.487741
    13  O   -0.465276
    14  O   -0.454495
    15  C   -0.171109
    16  C   -0.217954
    17  C   -0.172168
    18  C    0.159035
    19  C   -0.171410
    20  C   -0.211267
    21  H    0.213412
    22  H    0.219512
    23  H    0.273844
    24  H    0.277439
    25  H    0.232518
    26  N    0.487999
    27  O   -0.459536
    28  O   -0.462190
 Sum of Mulliken charges =  -0.00000

 Dipole moment (field-independent basis, Debye):
    X=             -8.0217    Y=             -6.2214    Z=              1.0408  Tot=             10.2048
 Quadrupole moment (field-independent basis, Debye-Ang):
   XX=           -115.9445   YY=           -103.3471   ZZ=           -105.4941
   XY=              0.5662   XZ=             -7.5110   YZ=              3.8003

 Normal termination of Gaussian 16 at Thu May  6 11:21:57 2021.
