 Gaussian 16, Revision A.03,
 Gaussian 16:  EM64L-G16RevA.03 25-Dec-2016

 -------------
 #p 6-31g* mp2
 -------------

 ------------------------------------------------------
 Input file generated by CHIRIPA (05-May-2021 14:55:21)
 ------------------------------------------------------
 Symbolic Z-matrix:
 Charge =  0 Multiplicity = 1

                         Standard orientation:
 ---------------------------------------------------------------------
 Center     Atomic      Atomic             Coordinates (Angstroms)
 Number     Number       Type             X           Y           Z
 ---------------------------------------------------------------------
      1          6           0       -0.484289   -1.541938    0.429919
      2          6           0       -1.446546   -2.156877   -0.377813
      3          6           0       -2.701719   -1.568696   -0.559840
      4          6           0       -2.962018   -0.359852    0.083766
      5          6           0       -2.024196    0.277388    0.894756
      6          6           0       -0.775671   -0.328906    1.062510
      7          1           0        0.488177   -2.005886    0.565778
      8          1           0       -1.223031   -3.098959   -0.870326
      9          1           0       -3.465106   -2.023091   -1.179665
     10          1           0       -2.276256    1.216237    1.372717
     11          1           0       -0.030303    0.150936    1.690382
     12          7           0       -4.287294    0.272417   -0.101383
     13          8           0       -4.491924    1.337634    0.476609
     14          8           0       -5.096321   -0.309200   -0.820990
     15          6           0        4.244539    0.407248   -0.254244
     16          6           0        4.582818   -1.011315    0.205353
     17          6           0        6.052343   -1.370171   -0.017165
     18          1           0        4.491025    0.509131   -1.319988
     19          1           0        4.882926    1.121573    0.283898
     20          1           0        3.943019   -1.722654   -0.332487
     21          1           0        4.335319   -1.109891    1.270081
     22          1           0        6.704102   -0.683527    0.532682
     23          1           0        6.309573   -1.299771   -1.078992
     24          1           0        6.272193   -2.388472    0.318378
     25          6           0        2.779067    0.780738   -0.038314
     26          6           0        2.440789    2.199302   -0.497911
     27          6           0        0.971264    2.558157   -0.275393
     28          1           0        2.140680    0.066413   -0.576456
     29          1           0        2.532582    0.678854    1.027430
     30          1           0        2.688288    2.297877   -1.562638
     31          1           0        3.080587    2.910640    0.039930
     32          1           0        0.714033    2.487757    0.786434
     33          1           0        0.319504    1.871512   -0.825239
     34          1           0        0.751413    3.576458   -0.610936
 ---------------------------------------------------------------------

 SCF Done:  E(RHF) =  -669.534435113     A.U. after   15 cycles
 E2 =    -0.2093669570D+01 EUMP2 =    -0.67162810468391D+03

 The electronic state is 1-A.
 Alpha  occ. eigenvalues --  -20.60722 -20.60717 -15.85774 -11.31139 -11.27685
 Alpha  occ. eigenvalues --  -11.27660 -11.27396 -11.26723 -11.26653 -11.22486
 Alpha  occ. eigenvalues --  -11.22341 -11.22268 -11.22165 -11.21767 -11.21640
 Alpha  occ. eigenvalues --   -1.59797  -1.39351  -1.19303  -1.09261  -1.08692
 Alpha  occ. eigenvalues --   -1.04715  -1.04263  -0.96718  -0.95529  -0.87734
 Alpha  occ. eigenvalues --   -0.86100  -0.82366  -0.80355  -0.79130  -0.77399
 Alpha  occ. eigenvalues --   -0.71991  -0.71121  -0.70390  -0.65890  -0.64948
 Alpha  occ. eigenvalues --   -0.64707  -0.62088  -0.61643  -0.60073  -0.58353
 Alpha  occ. eigenvalues --   -0.56003  -0.55184  -0.53389  -0.53304  -0.52920
 Alpha  occ. eigenvalues --   -0.52785  -0.50659  -0.48766  -0.48747  -0.48623
 Alpha  occ. eigenvalues --   -0.47381  -0.46612  -0.46547  -0.44756  -0.44547
 Alpha  occ. eigenvalues --   -0.37254  -0.36227
 Alpha virt. eigenvalues --    0.05081   0.11280   0.16479   0.19773   0.22510
 Alpha virt. eigenvalues --    0.23204   0.24819   0.25537   0.26710   0.28604
 Alpha virt. eigenvalues --    0.29390   0.30310   0.31123   0.31412   0.31651

 Mulliken charges:
               1
     1  C   -0.174334
     2  C   -0.219349
     3  C   -0.171863
     4  C    0.158306
     5  C   -0.171704
     6  C   -0.213828
     7  H    0.227331
     8  H    0.223047
     9  H    0.275205
    10  H    0.275700
    11  H    0.226611
    12  N    0.488077
    13  O   -0.460273
    14  O   -0.460692
    15  C   -0.298024
    16  C   -0.300446
    17  C   -0.475890
    18  H    0.152945
    19  H    0.152410
    20  H    0.147316
    21  H    0.149825
    22  H    0.157566
    23  H    0.157293
    24  H    0.161242
    25  C   -0.302983
    26  C   -0.299821
    27  C   -0.477974
    28  H    0.150782
    29  H    0.140967
    30  H    0.155475
    31  H    0.153800
    32  H    0.144672
    33  H    0.163441
    34  H    0.165172
 Sum of Mulliken charges =  -0.00000

 Dipole moment (field-independent basis, Debye):
    X=              4.8069    Y=             -2.1461    Z=              0.5585  Tot=              5.2937
 Quadrupole moment (field-independent basis, Debye-Ang):
   XX=           -123.1876   YY=            -90.5514   ZZ=            -92.5611
   XY=              6.7077   XZ=             -0.5401   YZ=              2.3053

 Normal termination of Gaussian 16 at Thu May  6 17:31:22 2021.
