 Gaussian 16, Revision A.03,
 Gaussian 16:  EM64L-G16RevA.03 25-Dec-2016

 -------------
 #p 6-31g* mp2
 -------------

 ------------------------------------------------------
 Input file generated by CHIRIPA (05-May-2021 14:51:08)
 ------------------------------------------------------
 Symbolic Z-matrix:
 Charge =  0 Multiplicity = 1

                         Standard orientation:
 ---------------------------------------------------------------------
 Center     Atomic      Atomic             Coordinates (Angstroms)
 Number     Number       Type             X           Y           Z
 ---------------------------------------------------------------------
      1          6           0        2.865598    0.040221    0.012356
      2          6           0        3.819997    0.136853   -1.178345
      3          6           0        4.368057    1.549410   -1.383545
      4          1           0        2.032177    0.740440   -0.136122
      5          1           0        3.389993    0.366662    0.921114
      6          1           0        3.294376   -0.190988   -2.084358
      7          1           0        4.651144   -0.563817   -1.027106
      8          1           0        4.916324    1.882550   -0.496402
      9          1           0        3.551848    2.257497   -1.559661
     10          1           0        5.048071    1.595728   -2.239872
     11          6           0        2.309363   -1.365768    0.230364
     12          6           0        1.354964   -1.462400    1.421065
     13          6           0        0.806904   -2.874957    1.626265
     14          1           0        1.784969   -1.692210   -0.678394
     15          1           0        3.142785   -2.065988    0.378841
     16          1           0        0.523818   -0.761731    1.269826
     17          1           0        1.880585   -1.134559    2.327077
     18          1           0        1.623114   -3.583044    1.802381
     19          1           0        0.258637   -3.208097    0.739122
     20          1           0        0.126890   -2.921276    2.482592
     21          6           0       -2.851930    0.308284   -0.744125
     22          6           0       -3.324852   -1.120433   -0.473763
     23          6           0       -3.851088   -1.816496   -1.729298
     24          1           0       -3.683415    0.889315   -1.166002
     25          1           0       -2.064599    0.287659   -1.510336
     26          1           0       -4.110091   -1.097249    0.292710
     27          1           0       -2.492199   -1.698079   -0.052303
     28          1           0       -3.071403   -1.869109   -2.496060
     29          1           0       -4.698485   -1.264866   -2.149087
     30          1           0       -4.183820   -2.836530   -1.513240
     31          6           0       -2.323032    1.017262    0.501405
     32          6           0       -1.850109    2.445980    0.231044
     33          6           0       -1.323874    3.142044    1.486579
     34          1           0       -3.110363    1.037889    1.267616
     35          1           0       -1.491547    0.436231    0.923281
     36          1           0       -2.682762    3.023627   -0.190416
     37          1           0       -1.064872    2.422797   -0.535430
     38          1           0       -0.476476    2.590414    1.906367
     39          1           0       -2.103559    3.194657    2.253340
     40          1           0       -0.991142    4.162077    1.270520
 ---------------------------------------------------------------------

 SCF Done:  E(RHF) =  -470.733437404     A.U. after   11 cycles
 E2 =    -0.1583552337D+01 EUMP2 =    -0.47231698974092D+03

 The electronic state is 1-A.
 Alpha  occ. eigenvalues --  -11.21663 -11.21647 -11.21639 -11.21627 -11.21468
 Alpha  occ. eigenvalues --  -11.21436 -11.21409 -11.21376 -11.21134 -11.21102
 Alpha  occ. eigenvalues --  -11.21096 -11.21082  -1.08503  -1.08454  -1.03586
 Alpha  occ. eigenvalues --   -1.03556  -0.96032  -0.96003  -0.87052  -0.87015
 Alpha  occ. eigenvalues --   -0.79676  -0.79596  -0.78358  -0.78228  -0.65306
 Alpha  occ. eigenvalues --   -0.64936  -0.60986  -0.60956  -0.59405  -0.59367
 Alpha  occ. eigenvalues --   -0.57660  -0.57597  -0.55341  -0.55276  -0.52724
 Alpha  occ. eigenvalues --   -0.52695  -0.52464  -0.52422  -0.50048  -0.49889
 Alpha  occ. eigenvalues --   -0.48016  -0.47924  -0.46866  -0.46556  -0.46087
 Alpha  occ. eigenvalues --   -0.45799  -0.45774  -0.45350  -0.43838  -0.43811
 Alpha virt. eigenvalues --    0.19335   0.22728   0.23682   0.24274   0.25889
 Alpha virt. eigenvalues --    0.26909   0.27048   0.27879   0.28009   0.29435
 Alpha virt. eigenvalues --    0.30780   0.31535   0.31652   0.31862   0.32348

 Mulliken charges:
               1
     1  C   -0.299004
     2  C   -0.299698
     3  C   -0.475744
     4  H    0.149354
     5  H    0.149906
     6  H    0.151876
     7  H    0.152205
     8  H    0.155369
     9  H    0.155225
    10  H    0.160423
    11  C   -0.297564
    12  C   -0.309709
    13  C   -0.476168
    14  H    0.149178
    15  H    0.150119
    16  H    0.159738
    17  H    0.152488
    18  H    0.155667
    19  H    0.155500
    20  H    0.160901
    21  C   -0.297598
    22  C   -0.301467
    23  C   -0.475692
    24  H    0.149956
    25  H    0.148741
    26  H    0.152234
    27  H    0.153313
    28  H    0.154870
    29  H    0.155326
    30  H    0.160506
    31  C   -0.308333
    32  C   -0.299339
    33  C   -0.476387
    34  H    0.150047
    35  H    0.158643
    36  H    0.152240
    37  H    0.151180
    38  H    0.156003
    39  H    0.155309
    40  H    0.160387
 Sum of Mulliken charges =  -0.00000

 Dipole moment (field-independent basis, Debye):
    X=              0.0078    Y=             -0.0075    Z=              0.0182  Tot=              0.0212
 Quadrupole moment (field-independent basis, Debye-Ang):
   XX=            -83.5463   YY=            -85.9287   ZZ=            -85.0970
   XY=             -1.2494   XZ=              0.0884   YZ=             -0.3288

 Normal termination of Gaussian 16 at Thu May  6 06:51:57 2021.
