 Gaussian 16, Revision A.03,
 Gaussian 16:  EM64L-G16RevA.03 25-Dec-2016

 -------------
 #p 6-31g* mp2
 -------------

 ------------------------------------------------------
 Input file generated by CHIRIPA (05-May-2021 14:57:24)
 ------------------------------------------------------
 Symbolic Z-matrix:
 Charge =  0 Multiplicity = 1

                         Standard orientation:
 ---------------------------------------------------------------------
 Center     Atomic      Atomic             Coordinates (Angstroms)
 Number     Number       Type             X           Y           Z
 ---------------------------------------------------------------------
      1          6           0       -1.797268    0.641277   -0.438375
      2          6           0       -2.102208   -0.652030   -0.001464
      3          6           0       -3.431134   -1.042382    0.188607
      4          6           0       -4.434659   -0.109691   -0.068911
      5          6           0       -4.162857    1.186135   -0.505086
      6          6           0       -2.826751    1.554621   -0.688351
      7          1           0       -0.762137    0.936019   -0.583383
      8          1           0       -1.304748   -1.363445    0.193454
      9          1           0       -3.695459   -2.037199    0.526082
     10          1           0       -4.979414    1.873183   -0.691144
     11          1           0       -2.592891    2.559692   -1.027742
     12          7           0       -5.845335   -0.511365    0.128705
     13          8           0       -6.711196    0.329017   -0.105131
     14          8           0       -6.058449   -1.658974    0.513692
     15          6           0        2.899583    2.145760    0.601151
     16          6           0        4.237478    2.229546    0.201729
     17          6           0        4.968894    1.071319   -0.077715
     18          6           0        4.328091   -0.159749    0.053175
     19          6           0        2.996524   -0.275974    0.449042
     20          6           0        2.284461    0.895472    0.723318
     21          1           0        2.338918    3.050634    0.816223
     22          1           0        4.717774    3.199183    0.106005
     23          1           0        6.005893    1.107288   -0.388776
     24          1           0        2.544971   -1.256810    0.535526
     25          1           0        1.245564    0.827375    1.033322
     26          7           0        5.092165   -1.392910   -0.239924
     27          8           0        4.504627   -2.465449   -0.117063
     28          8           0        6.264116   -1.263571   -0.586967
 ---------------------------------------------------------------------

 SCF Done:  E(RHF) =  -868.336884361     A.U. after   16 cycles
 E2 =    -0.2599849596D+01 EUMP2 =    -0.87093673395716D+03

 The electronic state is 1-A.
 Alpha  occ. eigenvalues --  -20.61455 -20.61445 -20.61176 -20.61170 -15.86515
 Alpha  occ. eigenvalues --  -15.86234 -11.32034 -11.31737 -11.28706 -11.28597
 Alpha  occ. eigenvalues --  -11.28429 -11.28309 -11.28306 -11.28153 -11.27769
 Alpha  occ. eigenvalues --  -11.27612 -11.27415 -11.27388  -1.60525  -1.60248
 Alpha  occ. eigenvalues --   -1.40075  -1.39797  -1.20238  -1.19930  -1.09602
 Alpha  occ. eigenvalues --   -1.09321  -1.05676  -1.05347  -0.96406  -0.96128
 Alpha  occ. eigenvalues --   -0.87067  -0.86752  -0.83248  -0.82946  -0.78267
 Alpha  occ. eigenvalues --   -0.77955  -0.72729  -0.72450  -0.71851  -0.71572
 Alpha  occ. eigenvalues --   -0.71344  -0.71097  -0.65894  -0.65720  -0.65581
 Alpha  occ. eigenvalues --   -0.65349  -0.63025  -0.62681  -0.56194  -0.55900
 Alpha  occ. eigenvalues --   -0.53970  -0.53779  -0.53639  -0.53448  -0.49499
 Alpha  occ. eigenvalues --   -0.49474  -0.49221  -0.49195  -0.45446  -0.45172
 Alpha  occ. eigenvalues --   -0.38220  -0.37951  -0.37280  -0.36941
 Alpha virt. eigenvalues --    0.04293   0.04550   0.10239   0.10673   0.15660
 Alpha virt. eigenvalues --    0.15923   0.18798   0.21896   0.25170   0.26253
 Alpha virt. eigenvalues --    0.27801   0.28906   0.29968   0.30663   0.32261

 Mulliken charges:
               1
     1  C   -0.177139
     2  C   -0.219273
     3  C   -0.169724
     4  C    0.159281
     5  C   -0.170142
     6  C   -0.218372
     7  H    0.223101
     8  H    0.221809
     9  H    0.278272
    10  H    0.277231
    11  H    0.223383
    12  N    0.487935
    13  O   -0.459113
    14  O   -0.458407
    15  C   -0.171443
    16  C   -0.218133
    17  C   -0.169030
    18  C    0.159296
    19  C   -0.170532
    20  C   -0.225717
    21  H    0.226501
    22  H    0.226506
    23  H    0.278672
    24  H    0.273940
    25  H    0.220248
    26  N    0.488118
    27  O   -0.459718
    28  O   -0.457552
 Sum of Mulliken charges =  -0.00000

 Dipole moment (field-independent basis, Debye):
    X=              2.3614    Y=              5.7540    Z=              0.3109  Tot=              6.2275
 Quadrupole moment (field-independent basis, Debye-Ang):
   XX=           -167.0828   YY=           -101.0930   ZZ=           -105.6318
   XY=             13.7844   XZ=              6.5722   YZ=             -2.1618

 Normal termination of Gaussian 16 at Thu May  6 09:47:25 2021.
