 Gaussian 16, Revision A.03,
 Gaussian 16:  EM64L-G16RevA.03 25-Dec-2016

 -------------
 #p 6-31g* mp2
 -------------

 ------------------------------------------------------
 Input file generated by CHIRIPA (05-May-2021 14:51:11)
 ------------------------------------------------------
 Symbolic Z-matrix:
 Charge =  0 Multiplicity = 1

                         Standard orientation:
 ---------------------------------------------------------------------
 Center     Atomic      Atomic             Coordinates (Angstroms)
 Number     Number       Type             X           Y           Z
 ---------------------------------------------------------------------
      1          6           0       -4.094495    0.464764    0.333303
      2          6           0       -4.973304    0.793996   -0.873878
      3          6           0       -5.983779    1.904325   -0.584218
      4          1           0       -4.735090    0.168979    1.175380
      5          1           0       -3.562412    1.372770    0.649227
      6          1           0       -5.502514   -0.114684   -1.188288
      7          1           0       -4.330532    1.088847   -1.713237
      8          1           0       -5.470203    2.825931   -0.291842
      9          1           0       -6.648845    1.615562    0.236090
     10          1           0       -6.601536    2.123608   -1.460660
     11          6           0       -3.079249   -0.643364    0.059340
     12          6           0       -2.200440   -0.972597    1.266520
     13          6           0       -1.189965   -2.082926    0.976860
     14          1           0       -3.611332   -1.551370   -0.256585
     15          1           0       -2.438654   -0.347580   -0.782738
     16          1           0       -2.843212   -1.267448    2.105879
     17          1           0       -1.671229   -0.063917    1.580930
     18          1           0       -0.524899   -1.794163    0.156553
     19          1           0       -1.703540   -3.004532    0.684484
     20          1           0       -0.572207   -2.302209    1.853302
     21          6           0        3.478090   -0.495319   -0.675715
     22          6           0        2.763139   -1.683227   -0.030964
     23          6           0        2.552790   -2.844905   -1.002588
     24          1           0        2.895564   -0.150572   -1.541022
     25          1           0        4.449694   -0.828790   -1.065815
     26          1           0        1.793769   -1.347308    0.359030
     27          1           0        3.347337   -2.025066    0.833024
     28          1           0        3.513154   -3.207714   -1.382946
     29          1           0        1.950759   -2.526104   -1.859633
     30          1           0        2.040060   -3.683333   -0.520919
     31          6           0        3.695654    0.673920    0.283073
     32          6           0        4.410604    1.861828   -0.361678
     33          6           0        4.620954    3.023504    0.609946
     34          1           0        2.724051    1.007390    0.673173
     35          1           0        4.278180    0.329172    1.148381
     36          1           0        3.826407    2.203666   -1.225666
     37          1           0        5.379975    1.525907   -0.751672
     38          1           0        5.222985    2.704704    1.466992
     39          1           0        3.660590    3.386314    0.990304
     40          1           0        5.133683    3.861934    0.128277
 ---------------------------------------------------------------------

 SCF Done:  E(RHF) =  -470.733053688     A.U. after   11 cycles
 E2 =    -0.1582704206D+01 EUMP2 =    -0.47231575789386D+03

 The electronic state is 1-A.
 Alpha  occ. eigenvalues --  -11.21637 -11.21626 -11.21599 -11.21500 -11.21437
 Alpha  occ. eigenvalues --  -11.21386 -11.21378 -11.21322 -11.21091 -11.21078
 Alpha  occ. eigenvalues --  -11.21073 -11.21018  -1.08464  -1.08403  -1.03575
 Alpha  occ. eigenvalues --   -1.03486  -0.96028  -0.95935  -0.87028  -0.86968
 Alpha  occ. eigenvalues --   -0.79663  -0.79526  -0.78282  -0.78208  -0.65151
 Alpha  occ. eigenvalues --   -0.64998  -0.61129  -0.60763  -0.59400  -0.59294
 Alpha  occ. eigenvalues --   -0.57627  -0.57555  -0.55409  -0.55136  -0.52717
 Alpha  occ. eigenvalues --   -0.52627  -0.52427  -0.52370  -0.50026  -0.49851
 Alpha  occ. eigenvalues --   -0.47954  -0.47861  -0.46797  -0.46456  -0.45848
 Alpha  occ. eigenvalues --   -0.45765  -0.45739  -0.45568  -0.43809  -0.43751
 Alpha virt. eigenvalues --    0.21497   0.23107   0.23623   0.24773   0.26414
 Alpha virt. eigenvalues --    0.26857   0.27191   0.27421   0.27859   0.28964
 Alpha virt. eigenvalues --    0.30697   0.31418   0.31618   0.31862   0.32257

 Mulliken charges:
               1
     1  C   -0.298300
     2  C   -0.299668
     3  C   -0.475723
     4  H    0.149809
     5  H    0.149425
     6  H    0.152033
     7  H    0.151855
     8  H    0.155176
     9  H    0.155252
    10  H    0.160335
    11  C   -0.298407
    12  C   -0.300183
    13  C   -0.480369
    14  H    0.149794
    15  H    0.149373
    16  H    0.152276
    17  H    0.151584
    18  H    0.160255
    19  H    0.155471
    20  H    0.160992
    21  C   -0.297844
    22  C   -0.306440
    23  C   -0.475731
    24  H    0.148784
    25  H    0.149392
    26  H    0.159126
    27  H    0.151502
    28  H    0.154914
    29  H    0.154155
    30  H    0.161638
    31  C   -0.298123
    32  C   -0.299589
    33  C   -0.475666
    34  H    0.148992
    35  H    0.149731
    36  H    0.151721
    37  H    0.152019
    38  H    0.155230
    39  H    0.154982
    40  H    0.160227
 Sum of Mulliken charges =  -0.00000

 Dipole moment (field-independent basis, Debye):
    X=             -0.0286    Y=             -0.0198    Z=              0.0136  Tot=              0.0373
 Quadrupole moment (field-independent basis, Debye-Ang):
   XX=            -84.2191   YY=            -85.5906   ZZ=            -84.9914
   XY=              0.5407   XZ=             -0.0132   YZ=             -0.9391

 Normal termination of Gaussian 16 at Wed May  5 21:28:57 2021.
