 Gaussian 16, Revision A.03,
 Gaussian 16:  EM64L-G16RevA.03 25-Dec-2016

 -------------
 #p 6-31g* mp2
 -------------

 ------------------------------------------------------
 Input file generated by CHIRIPA (05-May-2021 14:51:12)
 ------------------------------------------------------
 Symbolic Z-matrix:
 Charge =  0 Multiplicity = 1

                         Standard orientation:
 ---------------------------------------------------------------------
 Center     Atomic      Atomic             Coordinates (Angstroms)
 Number     Number       Type             X           Y           Z
 ---------------------------------------------------------------------
      1          6           0        2.828388   -0.160423   -0.823385
      2          6           0        2.643530   -1.639874   -0.484214
      3          6           0        2.743195   -2.544896   -1.712545
      4          1           0        2.071732    0.137150   -1.562213
      5          1           0        3.806532   -0.021098   -1.304237
      6          1           0        1.666610   -1.776152   -0.002893
      7          1           0        3.400594   -1.933912    0.254036
      8          1           0        3.722078   -2.438378   -2.191130
      9          1           0        1.978242   -2.279722   -2.449519
     10          1           0        2.608065   -3.598092   -1.447255
     11          6           0        2.731429    0.756969    0.394285
     12          6           0        2.916287    2.236420    0.055115
     13          6           0        2.816622    3.141442    1.283445
     14          1           0        1.753286    0.617644    0.875137
     15          1           0        3.488085    0.459395    1.133113
     16          1           0        2.159224    2.530458   -0.683135
     17          1           0        3.893207    2.372698   -0.426207
     18          1           0        3.581576    2.876268    2.020419
     19          1           0        1.837740    3.034924    1.762031
     20          1           0        2.951752    4.194638    1.018156
     21          6           0       -2.816672    0.414418   -0.057757
     22          6           0       -4.166601    0.752612   -0.691242
     23          6           0       -4.224657    2.181830   -1.231391
     24          1           0       -2.612541    1.123956    0.755773
     25          1           0       -2.023058    0.557844   -0.804082
     26          1           0       -4.957576    0.607261    0.055651
     27          1           0       -4.367630    0.042069   -1.503234
     28          1           0       -3.456231    2.336289   -1.995764
     29          1           0       -4.049529    2.904692   -0.428022
     30          1           0       -5.198395    2.402288   -1.679823
     31          6           0       -2.743145   -1.010965    0.486857
     32          6           0       -1.393216   -1.349158    1.120341
     33          6           0       -1.335161   -2.778375    1.660490
     34          1           0       -3.536759   -1.154391    1.233182
     35          1           0       -2.947276   -1.720501   -0.326674
     36          1           0       -1.192187   -0.638615    1.932333
     37          1           0       -0.602241   -1.203807    0.373449
     38          1           0       -1.510289   -3.501237    0.857121
     39          1           0       -2.103586   -2.932834    2.424864
     40          1           0       -0.361422   -2.998834    2.108922
 ---------------------------------------------------------------------

 SCF Done:  E(RHF) =  -470.733302070     A.U. after   11 cycles
 E2 =    -0.1583297169D+01 EUMP2 =    -0.47231659923822D+03

 The electronic state is 1-A.
 Alpha  occ. eigenvalues --  -11.21672 -11.21650 -11.21575 -11.21567 -11.21470
 Alpha  occ. eigenvalues --  -11.21411 -11.21384 -11.21316 -11.21125 -11.21111
 Alpha  occ. eigenvalues --  -11.21072 -11.21049  -1.08500  -1.08405  -1.03598
 Alpha  occ. eigenvalues --   -1.03505  -0.96035  -0.95961  -0.87049  -0.86979
 Alpha  occ. eigenvalues --   -0.79685  -0.79557  -0.78359  -0.78172  -0.65227
 Alpha  occ. eigenvalues --   -0.64963  -0.61118  -0.60799  -0.59427  -0.59301
 Alpha  occ. eigenvalues --   -0.57651  -0.57565  -0.55331  -0.55240  -0.52729
 Alpha  occ. eigenvalues --   -0.52655  -0.52460  -0.52385  -0.50001  -0.49888
 Alpha  occ. eigenvalues --   -0.48031  -0.47883  -0.46879  -0.46476  -0.46041
 Alpha  occ. eigenvalues --   -0.45793  -0.45739  -0.45349  -0.43841  -0.43763
 Alpha virt. eigenvalues --    0.20467   0.23299   0.23622   0.24580   0.25806
 Alpha virt. eigenvalues --    0.26636   0.26957   0.27539   0.28301   0.29413
 Alpha virt. eigenvalues --    0.30860   0.31461   0.31570   0.31769   0.32317

 Mulliken charges:
               1
     1  C   -0.297599
     2  C   -0.308329
     3  C   -0.475255
     4  H    0.148647
     5  H    0.149602
     6  H    0.160279
     7  H    0.151995
     8  H    0.155297
     9  H    0.154380
    10  H    0.160327
    11  C   -0.300884
    12  C   -0.299476
    13  C   -0.475667
    14  H    0.152467
    15  H    0.149389
    16  H    0.151923
    17  H    0.151742
    18  H    0.155033
    19  H    0.155239
    20  H    0.160154
    21  C   -0.298388
    22  C   -0.299686
    23  C   -0.475762
    24  H    0.149603
    25  H    0.148943
    26  H    0.152170
    27  H    0.152096
    28  H    0.155111
    29  H    0.155285
    30  H    0.160491
    31  C   -0.297712
    32  C   -0.307019
    33  C   -0.476530
    34  H    0.149898
    35  H    0.149872
    36  H    0.152289
    37  H    0.157511
    38  H    0.155434
    39  H    0.155640
    40  H    0.161487
 Sum of Mulliken charges =  -0.00000

 Dipole moment (field-independent basis, Debye):
    X=             -0.0336    Y=             -0.0138    Z=              0.0200  Tot=              0.0415
 Quadrupole moment (field-independent basis, Debye-Ang):
   XX=            -83.6822   YY=            -86.2813   ZZ=            -84.7582
   XY=              0.0323   XZ=             -0.1924   YZ=              0.0707

 Normal termination of Gaussian 16 at Wed May  5 23:10:30 2021.
