 Gaussian 16, Revision A.03,
 Gaussian 16:  EM64L-G16RevA.03 25-Dec-2016

 -------------
 #p 6-31g* mp2
 -------------

 ------------------------------------------------------
 Input file generated by CHIRIPA (05-May-2021 14:55:25)
 ------------------------------------------------------
 Symbolic Z-matrix:
 Charge =  0 Multiplicity = 1

                         Standard orientation:
 ---------------------------------------------------------------------
 Center     Atomic      Atomic             Coordinates (Angstroms)
 Number     Number       Type             X           Y           Z
 ---------------------------------------------------------------------
      1          6           0        4.127707    0.388450   -1.649533
      2          6           0        2.879389   -0.104018   -2.044118
      3          6           0        1.965257   -0.565953   -1.092527
      4          6           0        2.333988   -0.520688    0.251079
      5          6           0        3.570084   -0.035804    0.675633
      6          6           0        4.468470    0.420928   -0.293308
      7          1           0        4.831711    0.745272   -2.395491
      8          1           0        2.612046   -0.130435   -3.096675
      9          1           0        0.992114   -0.952301   -1.370279
     10          1           0        3.808106   -0.022049    1.732314
     11          1           0        5.437224    0.802852    0.016038
     12          7           0        1.374572   -1.006964    1.267670
     13          8           0        1.723468   -0.956468    2.445108
     14          8           0        0.291853   -1.429397    0.867787
     15          6           0       -3.608148    0.137493   -0.583034
     16          6           0       -3.993876   -1.222101    0.000667
     17          6           0       -4.830414   -2.063594   -0.963639
     18          1           0       -4.521046    0.685755   -0.853164
     19          1           0       -3.048813   -0.017220   -1.516095
     20          1           0       -4.551121   -1.064897    0.933073
     21          1           0       -3.079958   -1.767113    0.269615
     22          1           0       -4.278604   -2.249762   -1.890703
     23          1           0       -5.758124   -1.543556   -1.223476
     24          1           0       -5.095035   -3.031302   -0.526172
     25          6           0       -2.771658    0.990300    0.369189
     26          6           0       -2.385930    2.349894   -0.214512
     27          6           0       -1.549392    3.191388    0.749794
     28          1           0       -3.330993    1.145014    1.302250
     29          1           0       -1.858760    0.442039    0.639319
     30          1           0       -3.299847    2.894906   -0.483461
     31          1           0       -1.828685    2.192691   -1.146917
     32          1           0       -0.621682    2.671350    1.009632
     33          1           0       -2.101203    3.377555    1.676857
     34          1           0       -1.284771    4.159096    0.312327
 ---------------------------------------------------------------------

 SCF Done:  E(RHF) =  -669.536445974     A.U. after   15 cycles
 E2 =    -0.2091664587D+01 EUMP2 =    -0.67162811056126D+03

 The electronic state is 1-A.
 Alpha  occ. eigenvalues --  -20.61057 -20.61047 -15.86071 -11.31353 -11.27913
 Alpha  occ. eigenvalues --  -11.27904 -11.27637 -11.26906 -11.26896 -11.21065
 Alpha  occ. eigenvalues --  -11.20691 -11.20630 -11.20630 -11.20412 -11.20403
 Alpha  occ. eigenvalues --   -1.60105  -1.39663  -1.19516  -1.08927  -1.07664
 Alpha  occ. eigenvalues --   -1.04905  -1.02858  -0.95776  -0.95315  -0.86340
 Alpha  occ. eigenvalues --   -0.86308  -0.82612  -0.78904  -0.77685  -0.77431
 Alpha  occ. eigenvalues --   -0.72295  -0.71413  -0.70624  -0.65175  -0.64907
 Alpha  occ. eigenvalues --   -0.64287  -0.62253  -0.60263  -0.58689  -0.56917
 Alpha  occ. eigenvalues --   -0.55410  -0.54613  -0.53237  -0.52997  -0.52049
 Alpha  occ. eigenvalues --   -0.51744  -0.49278  -0.49064  -0.49046  -0.47234
 Alpha  occ. eigenvalues --   -0.45955  -0.45353  -0.45017  -0.44517  -0.43076
 Alpha  occ. eigenvalues --   -0.37490  -0.36503
 Alpha virt. eigenvalues --    0.04812   0.11144   0.16281   0.21131   0.23367
 Alpha virt. eigenvalues --    0.24877   0.26780   0.27383   0.28159   0.28247
 Alpha virt. eigenvalues --    0.28983   0.31067   0.31934   0.32394   0.32498

 Mulliken charges:
               1
     1  C   -0.170368
     2  C   -0.218380
     3  C   -0.170849
     4  C    0.157951
     5  C   -0.170630
     6  C   -0.218474
     7  H    0.226322
     8  H    0.224144
     9  H    0.275482
    10  H    0.276057
    11  H    0.224123
    12  N    0.489008
    13  O   -0.457424
    14  O   -0.461210
    15  C   -0.295029
    16  C   -0.304278
    17  C   -0.474903
    18  H    0.145283
    19  H    0.142252
    20  H    0.150889
    21  H    0.168240
    22  H    0.151273
    23  H    0.151959
    24  H    0.159705
    25  C   -0.309647
    26  C   -0.298197
    27  C   -0.473929
    28  H    0.148407
    29  H    0.171486
    30  H    0.149355
    31  H    0.144964
    32  H    0.153804
    33  H    0.156666
    34  H    0.155948
 Sum of Mulliken charges =  -0.00000

 Dipole moment (field-independent basis, Debye):
    X=              3.6433    Y=              1.5689    Z=             -3.4247  Tot=              5.2405
 Quadrupole moment (field-independent basis, Debye-Ang):
   XX=            -77.3790   YY=            -97.9432   ZZ=            -94.4339
   XY=              2.5916   XZ=             -6.1270   YZ=              2.8703

 Normal termination of Gaussian 16 at Thu May  6 20:57:58 2021.
