 Gaussian 16, Revision A.03,
 Gaussian 16:  EM64L-G16RevA.03 25-Dec-2016

 -------------
 #p 6-31g* mp2
 -------------

 ------------------------------------------------------
 Input file generated by CHIRIPA (05-May-2021 14:51:11)
 ------------------------------------------------------
 Symbolic Z-matrix:
 Charge =  0 Multiplicity = 1

                         Standard orientation:
 ---------------------------------------------------------------------
 Center     Atomic      Atomic             Coordinates (Angstroms)
 Number     Number       Type             X           Y           Z
 ---------------------------------------------------------------------
      1          6           0       -2.377160   -0.506993   -0.405031
      2          6           0       -2.799444   -1.976501   -0.390671
      3          6           0       -1.715970   -2.908269   -0.934444
      4          1           0       -2.122795   -0.215207   -1.433187
      5          1           0       -1.460084   -0.390426    0.188921
      6          1           0       -3.716221   -2.090027   -0.983332
      7          1           0       -3.053016   -2.264770    0.637540
      8          1           0       -0.801270   -2.824462   -0.338708
      9          1           0       -1.468244   -2.648726   -1.968789
     10          1           0       -2.038866   -3.953841   -0.915047
     11          6           0       -3.449789    0.436883    0.135610
     12          6           0       -3.027505    1.906392    0.121250
     13          6           0       -4.110978    2.838159    0.665023
     14          1           0       -4.366865    0.320317   -0.458342
     15          1           0       -3.704154    0.145097    1.163766
     16          1           0       -2.773933    2.194661   -0.906961
     17          1           0       -2.110727    2.019918    0.713911
     18          1           0       -4.358705    2.578617    1.699368
     19          1           0       -5.025679    2.754352    0.069287
     20          1           0       -3.788082    3.883732    0.645626
     21          6           0        2.863782   -0.706011   -0.043569
     22          6           0        2.246608   -1.556777    1.066964
     23          6           0        2.153935   -3.037027    0.695392
     24          1           0        2.266200   -0.819150   -0.958468
     25          1           0        3.866708   -1.090197   -0.275805
     26          1           0        1.245692   -1.170244    1.297995
     27          1           0        2.845619   -1.441450    1.979379
     28          1           0        3.148105   -3.444337    0.484848
     29          1           0        1.539087   -3.171590   -0.200407
     30          1           0        1.709851   -3.626735    1.503410
     31          6           0        2.963168    0.776121    0.312989
     32          6           0        3.580340    1.626886   -0.797542
     33          6           0        3.673013    3.107137   -0.425971
     34          1           0        1.960241    1.160307    0.545226
     35          1           0        3.560749    0.889259    1.227889
     36          1           0        2.981330    1.511560   -1.709958
     37          1           0        4.581256    1.240353   -1.028574
     38          1           0        4.287861    3.241700    0.469828
     39          1           0        2.678845    3.514446   -0.215428
     40          1           0        4.117098    3.696845   -1.233989
 ---------------------------------------------------------------------

 SCF Done:  E(RHF) =  -470.733231313     A.U. after   11 cycles
 E2 =    -0.1583187684D+01 EUMP2 =    -0.47231641899775D+03

 The electronic state is 1-A.
 Alpha  occ. eigenvalues --  -11.21647 -11.21635 -11.21629 -11.21594 -11.21456
 Alpha  occ. eigenvalues --  -11.21404 -11.21395 -11.21344 -11.21101 -11.21063
 Alpha  occ. eigenvalues --  -11.21057 -11.21054  -1.08476  -1.08430  -1.03580
 Alpha  occ. eigenvalues --   -1.03518  -0.96043  -0.95952  -0.87072  -0.86956
 Alpha  occ. eigenvalues --   -0.79651  -0.79575  -0.78291  -0.78244  -0.65190
 Alpha  occ. eigenvalues --   -0.64989  -0.61143  -0.60780  -0.59374  -0.59349
 Alpha  occ. eigenvalues --   -0.57652  -0.57572  -0.55521  -0.55073  -0.52708
 Alpha  occ. eigenvalues --   -0.52671  -0.52499  -0.52341  -0.50153  -0.49707
 Alpha  occ. eigenvalues --   -0.48033  -0.47823  -0.46692  -0.46564  -0.45937
 Alpha  occ. eigenvalues --   -0.45802  -0.45713  -0.45592  -0.43820  -0.43787
 Alpha virt. eigenvalues --    0.19854   0.23211   0.23551   0.25019   0.25232
 Alpha virt. eigenvalues --    0.26506   0.26987   0.27663   0.28888   0.29304
 Alpha virt. eigenvalues --    0.30603   0.31220   0.31585   0.31805   0.32040

 Mulliken charges:
               1
     1  C   -0.300680
     2  C   -0.299171
     3  C   -0.483431
     4  H    0.149550
     5  H    0.150525
     6  H    0.152060
     7  H    0.152054
     8  H    0.163869
     9  H    0.154395
    10  H    0.160663
    11  C   -0.298238
    12  C   -0.299659
    13  C   -0.475728
    14  H    0.149872
    15  H    0.149887
    16  H    0.151910
    17  H    0.151462
    18  H    0.155346
    19  H    0.155317
    20  H    0.160384
    21  C   -0.298254
    22  C   -0.302808
    23  C   -0.480057
    24  H    0.150617
    25  H    0.149631
    26  H    0.152751
    27  H    0.152316
    28  H    0.155764
    29  H    0.159877
    30  H    0.159923
    31  C   -0.298421
    32  C   -0.299646
    33  C   -0.475772
    34  H    0.149432
    35  H    0.149505
    36  H    0.152215
    37  H    0.151886
    38  H    0.155073
    39  H    0.155350
    40  H    0.160232
 Sum of Mulliken charges =  -0.00000

 Dipole moment (field-independent basis, Debye):
    X=             -0.0007    Y=             -0.0109    Z=             -0.0074  Tot=              0.0132
 Quadrupole moment (field-independent basis, Debye-Ang):
   XX=            -84.2076   YY=            -86.5621   ZZ=            -83.8975
   XY=              0.1786   XZ=              0.9334   YZ=             -0.5862

 Normal termination of Gaussian 16 at Wed May  5 18:16:24 2021.
