 Gaussian 16, Revision A.03,
 Gaussian 16:  EM64L-G16RevA.03 25-Dec-2016

 -------------
 #p 6-31g* mp2
 -------------

 ------------------------------------------------------
 Input file generated by CHIRIPA (05-May-2021 14:57:22)
 ------------------------------------------------------
 Symbolic Z-matrix:
 Charge =  0 Multiplicity = 1

                         Standard orientation:
 ---------------------------------------------------------------------
 Center     Atomic      Atomic             Coordinates (Angstroms)
 Number     Number       Type             X           Y           Z
 ---------------------------------------------------------------------
      1          6           0       -4.546514    1.893112    0.316546
      2          6           0       -5.063387    0.722572   -0.248431
      3          6           0       -4.223812   -0.357557   -0.536499
      4          6           0       -2.866306   -0.232328   -0.245321
      5          6           0       -2.321275    0.920671    0.317551
      6          6           0       -3.179517    1.988258    0.597239
      7          1           0       -5.205967    2.727311    0.537069
      8          1           0       -6.124601    0.645866   -0.467487
      9          1           0       -4.597436   -1.275432   -0.973911
     10          1           0       -1.259051    0.967476    0.524693
     11          1           0       -2.775327    2.896090    1.036006
     12          7           0       -1.967604   -1.369173   -0.545850
     13          8           0       -0.775314   -1.233806   -0.279846
     14          8           0       -2.472508   -2.374073   -1.041718
     15          6           0        4.187387    1.578879   -1.428147
     16          6           0        4.045434    0.219784   -1.726861
     17          6           0        3.397330   -0.639388   -0.834486
     18          6           0        2.901024   -0.103331    0.352786
     19          6           0        3.026748    1.246168    0.678877
     20          6           0        3.678488    2.086838   -0.228347
     21          1           0        4.692263    2.239118   -2.127133
     22          1           0        4.439659   -0.177474   -2.657890
     23          1           0        3.273574   -1.695614   -1.040614
     24          1           0        2.623314    1.612973    1.614886
     25          1           0        3.787279    3.141904    0.006271
     26          7           0        2.212981   -1.003105    1.305364
     27          8           0        1.784558   -0.506185    2.344672
     28          8           0        2.115143   -2.188229    0.994650
 ---------------------------------------------------------------------

 SCF Done:  E(RHF) =  -868.337242409     A.U. after   16 cycles
 E2 =    -0.2600824657D+01 EUMP2 =    -0.87093806706563D+03

 The electronic state is 1-A.
 Alpha  occ. eigenvalues --  -20.60327 -20.60297 -20.59863 -20.59720 -15.85376
 Alpha  occ. eigenvalues --  -15.84851 -11.30832 -11.30514 -11.27429 -11.27410
 Alpha  occ. eigenvalues --  -11.27208 -11.27193 -11.27044 -11.26946 -11.26475
 Alpha  occ. eigenvalues --  -11.26465 -11.26278 -11.26177  -1.59376  -1.58827
 Alpha  occ. eigenvalues --   -1.38933  -1.38388  -1.19022  -1.18714  -1.08402
 Alpha  occ. eigenvalues --   -1.08056  -1.04445  -1.04176  -0.95221  -0.94846
 Alpha  occ. eigenvalues --   -0.85840  -0.85559  -0.82067  -0.81691  -0.77096
 Alpha  occ. eigenvalues --   -0.76679  -0.71708  -0.71095  -0.70703  -0.70170
 Alpha  occ. eigenvalues --   -0.69953  -0.69843  -0.64679  -0.64460  -0.64375
 Alpha  occ. eigenvalues --   -0.64198  -0.61793  -0.61525  -0.54956  -0.54684
 Alpha  occ. eigenvalues --   -0.52765  -0.52550  -0.52472  -0.52283  -0.48353
 Alpha  occ. eigenvalues --   -0.48342  -0.47870  -0.47815  -0.44313  -0.43702
 Alpha  occ. eigenvalues --   -0.37017  -0.36703  -0.36050  -0.35794
 Alpha virt. eigenvalues --    0.05460   0.05918   0.11603   0.11836   0.16928
 Alpha virt. eigenvalues --    0.17321   0.21628   0.21930   0.27451   0.27806
 Alpha virt. eigenvalues --    0.28418   0.28920   0.30934   0.31537   0.32622

 Mulliken charges:
               1
     1  C   -0.171121
     2  C   -0.218735
     3  C   -0.170975
     4  C    0.158813
     5  C   -0.168477
     6  C   -0.218669
     7  H    0.224051
     8  H    0.222245
     9  H    0.275198
    10  H    0.275691
    11  H    0.221408
    12  N    0.491135
    13  O   -0.460416
    14  O   -0.460765
    15  C   -0.172238
    16  C   -0.219022
    17  C   -0.166010
    18  C    0.164332
    19  C   -0.176281
    20  C   -0.219067
    21  H    0.222507
    22  H    0.222310
    23  H    0.279857
    24  H    0.270166
    25  H    0.218809
    26  N    0.494234
    27  O   -0.471583
    28  O   -0.447397
 Sum of Mulliken charges =  -0.00000

 Dipole moment (field-independent basis, Debye):
    X=             -0.7925    Y=              6.8024    Z=             -2.3475  Tot=              7.2395
 Quadrupole moment (field-independent basis, Debye-Ang):
   XX=            -71.3212   YY=           -103.7598   ZZ=           -106.7834
   XY=             -0.8438   XZ=            -10.5257   YZ=              4.0458

 Normal termination of Gaussian 16 at Fri May  7 06:23:46 2021.
