 Gaussian 16, Revision A.03,
 Gaussian 16:  EM64L-G16RevA.03 25-Dec-2016

 -------------
 #p 6-31g* mp2
 -------------

 ------------------------------------------------------
 Input file generated by CHIRIPA (05-May-2021 14:57:25)
 ------------------------------------------------------
 Symbolic Z-matrix:
 Charge =  0 Multiplicity = 1

                         Standard orientation:
 ---------------------------------------------------------------------
 Center     Atomic      Atomic             Coordinates (Angstroms)
 Number     Number       Type             X           Y           Z
 ---------------------------------------------------------------------
      1          6           0        3.665874   -2.127209   -0.081889
      2          6           0        3.904544   -1.289772   -1.176539
      3          6           0        3.541413    0.059518   -1.130730
      4          6           0        2.938855    0.540193    0.030806
      5          6           0        2.687852   -0.268971    1.137848
      6          6           0        3.059358   -1.615038    1.069780
      7          1           0        3.951216   -3.174118   -0.126120
      8          1           0        4.375412   -1.684792   -2.072244
      9          1           0        3.714528    0.730065   -1.963687
     10          1           0        2.216783    0.153665    2.016990
     11          1           0        2.872782   -2.263072    1.921417
     12          7           0        2.549991    1.966921    0.091084
     13          8           0        2.020559    2.366030    1.125999
     14          8           0        2.781994    2.659065   -0.897728
     15          6           0       -4.944379    1.297686   -0.188177
     16          6           0       -5.157118   -0.077141   -0.333484
     17          6           0       -4.088844   -0.974411   -0.242683
     18          6           0       -2.815254   -0.459998   -0.004697
     19          6           0       -2.571215    0.904354    0.144566
     20          6           0       -3.654380    1.783189    0.049964
     21          1           0       -5.780023    1.987546   -0.260190
     22          1           0       -6.157869   -0.457028   -0.518495
     23          1           0       -4.225233   -2.043540   -0.351213
     24          1           0       -1.562247    1.253130    0.328292
     25          1           0       -3.486196    2.850397    0.163227
     26          7           0       -1.676438   -1.400140    0.093443
     27          8           0       -0.564003   -0.921687    0.303700
     28          8           0       -1.917833   -2.597674   -0.041752
 ---------------------------------------------------------------------

 SCF Done:  E(RHF) =  -868.339699865     A.U. after   16 cycles
 E2 =    -0.2599390541D+01 EUMP2 =    -0.87093909040589D+03

 The electronic state is 1-A.
 Alpha  occ. eigenvalues --  -20.60878 -20.60866 -20.60157 -20.60145 -15.85913
 Alpha  occ. eigenvalues --  -15.85184 -11.31057 -11.30095 -11.27648 -11.27530
 Alpha  occ. eigenvalues --  -11.27332 -11.26718 -11.26623 -11.26621 -11.26521
 Alpha  occ. eigenvalues --  -11.26374 -11.25662 -11.25537  -1.59951  -1.59230
 Alpha  occ. eigenvalues --   -1.39510  -1.38796  -1.19219  -1.18249  -1.08662
 Alpha  occ. eigenvalues --   -1.07747  -1.04579  -1.03612  -0.95530  -0.94655
 Alpha  occ. eigenvalues --   -0.85993  -0.85057  -0.82365  -0.81521  -0.77431
 Alpha  occ. eigenvalues --   -0.76602  -0.72163  -0.71430  -0.71263  -0.70523
 Alpha  occ. eigenvalues --   -0.70327  -0.69431  -0.64874  -0.64577  -0.63944
 Alpha  occ. eigenvalues --   -0.63670  -0.61916  -0.61008  -0.55108  -0.54192
 Alpha  occ. eigenvalues --   -0.52937  -0.52663  -0.51909  -0.51754  -0.48906
 Alpha  occ. eigenvalues --   -0.48867  -0.48194  -0.48143  -0.44966  -0.44304
 Alpha  occ. eigenvalues --   -0.37207  -0.36203  -0.36175  -0.35110
 Alpha virt. eigenvalues --    0.05064   0.05940   0.11476   0.12499   0.16597
 Alpha virt. eigenvalues --    0.17515   0.21640   0.22440   0.27580   0.28276
 Alpha virt. eigenvalues --    0.28503   0.29308   0.31146   0.31905   0.32685

 Mulliken charges:
               1
     1  C   -0.167864
     2  C   -0.218672
     3  C   -0.171644
     4  C    0.158556
     5  C   -0.152248
     6  C   -0.209568
     7  H    0.223015
     8  H    0.218867
     9  H    0.270402
    10  H    0.271797
    11  H    0.222083
    12  N    0.487717
    13  O   -0.467392
    14  O   -0.464980
    15  C   -0.170468
    16  C   -0.218997
    17  C   -0.171417
    18  C    0.156618
    19  C   -0.172196
    20  C   -0.219330
    21  H    0.225882
    22  H    0.222531
    23  H    0.273723
    24  H    0.282904
    25  H    0.228198
    26  N    0.491808
    27  O   -0.466359
    28  O   -0.462966
 Sum of Mulliken charges =  -0.00000

 Dipole moment (field-independent basis, Debye):
    X=             -2.7978    Y=             -1.7930    Z=             -0.4507  Tot=              3.3534
 Quadrupole moment (field-independent basis, Debye-Ang):
   XX=            -73.4132   YY=           -111.3651   ZZ=           -101.5192
   XY=            -19.6491   XZ=             -0.5674   YZ=             -0.2520

 Normal termination of Gaussian 16 at Thu May  6 00:22:07 2021.
