 Gaussian 16, Revision A.03,
 Gaussian 16:  EM64L-G16RevA.03 25-Dec-2016

 -------------
 #p 6-31g* mp2
 -------------

 ------------------------------------------------------
 Input file generated by CHIRIPA (05-May-2021 14:53:18)
 ------------------------------------------------------
 Symbolic Z-matrix:
 Charge =  0 Multiplicity = 1

                         Standard orientation:
 ---------------------------------------------------------------------
 Center     Atomic      Atomic             Coordinates (Angstroms)
 Number     Number       Type             X           Y           Z
 ---------------------------------------------------------------------
      1          6           0        1.927405    1.434683    0.293472
      2          6           0        0.668405    1.974219   -0.386088
      3          6           0       -0.120338    2.933023    0.506310
      4          1           0        1.643813    0.922924    1.223324
      5          1           0        2.568910    2.278149    0.584042
      6          1           0        0.030109    1.129922   -0.676529
      7          1           0        0.955009    2.484587   -1.314527
      8          1           0        0.495580    3.793922    0.785768
      9          1           0       -0.434575    2.431560    1.427391
     10          1           0       -1.016291    3.306669    0.000822
     11          6           0        2.726574    0.474795   -0.586114
     12          6           0        3.985575   -0.064742    0.093447
     13          6           0        4.774318   -1.023545   -0.798951
     14          1           0        2.085070   -0.368672   -0.876684
     15          1           0        3.010167    0.986554   -1.515965
     16          1           0        3.698971   -0.575109    1.021886
     17          1           0        4.623871    0.779556    0.383887
     18          1           0        5.088555   -0.522083   -1.720033
     19          1           0        4.158400   -1.884445   -1.078410
     20          1           0        5.670270   -1.397192   -0.293464
     21          6           0        0.194689   -1.818440    1.193570
     22          6           0       -0.065960   -2.027605   -0.164676
     23          6           0       -1.178190   -1.438342   -0.773168
     24          6           0       -2.012536   -0.642199    0.009974
     25          6           0       -1.779566   -0.414836    1.365453
     26          6           0       -0.661436   -1.014142    1.952960
     27          1           0        1.060988   -2.280095    1.658111
     28          1           0        0.597194   -2.651753   -0.756884
     29          1           0       -1.403554   -1.583533   -1.822716
     30          1           0       -2.458788    0.212415    1.929926
     31          1           0       -0.461483   -0.849948    3.007998
     32          7           0       -3.193127   -0.013057   -0.623101
     33          8           0       -3.912857    0.684066    0.088688
     34          8           0       -3.376389   -0.228971   -1.819109
 ---------------------------------------------------------------------

 SCF Done:  E(RHF) =  -669.532305032     A.U. after   15 cycles
 E2 =    -0.2099120420D+01 EUMP2 =    -0.67163142545176D+03

 The electronic state is 1-A.
 Alpha  occ. eigenvalues --  -20.60893 -20.60887 -15.85946 -11.31346 -11.27955
 Alpha  occ. eigenvalues --  -11.27933 -11.27726 -11.27003 -11.26982 -11.22155
 Alpha  occ. eigenvalues --  -11.21699 -11.21628 -11.21487 -11.21425 -11.20976
 Alpha  occ. eigenvalues --   -1.59967  -1.39517  -1.19606  -1.08992  -1.08647
 Alpha  occ. eigenvalues --   -1.05010  -1.03776  -0.96239  -0.95768  -0.87258
 Alpha  occ. eigenvalues --   -0.86381  -0.82611  -0.79871  -0.78474  -0.77640
 Alpha  occ. eigenvalues --   -0.72166  -0.71309  -0.70677  -0.65482  -0.65226
 Alpha  occ. eigenvalues --   -0.64948  -0.62345  -0.61273  -0.59611  -0.57825
 Alpha  occ. eigenvalues --   -0.55578  -0.55483  -0.53283  -0.53079  -0.52884
 Alpha  occ. eigenvalues --   -0.52654  -0.50201  -0.48931  -0.48915  -0.48170
 Alpha  occ. eigenvalues --   -0.46969  -0.46036  -0.45873  -0.44899  -0.43984
 Alpha  occ. eigenvalues --   -0.37422  -0.36465
 Alpha virt. eigenvalues --    0.04833   0.10873   0.16195   0.19845   0.23370
 Alpha virt. eigenvalues --    0.23531   0.25758   0.26406   0.27387   0.28421
 Alpha virt. eigenvalues --    0.28748   0.29862   0.31308   0.31728   0.32285

 Mulliken charges:
               1
     1  C   -0.296799
     2  C   -0.305800
     3  C   -0.477537
     4  H    0.146090
     5  H    0.148346
     6  H    0.158900
     7  H    0.152392
     8  H    0.154097
     9  H    0.148600
    10  H    0.167561
    11  C   -0.302267
    12  C   -0.299214
    13  C   -0.474250
    14  H    0.149318
    15  H    0.150993
    16  H    0.142770
    17  H    0.155082
    18  H    0.158867
    19  H    0.147549
    20  H    0.161132
    21  C   -0.168297
    22  C   -0.215545
    23  C   -0.177100
    24  C    0.161136
    25  C   -0.169307
    26  C   -0.217724
    27  H    0.227995
    28  H    0.225494
    29  H    0.276814
    30  H    0.277099
    31  H    0.225102
    32  N    0.488372
    33  O   -0.459866
    34  O   -0.460004
 Sum of Mulliken charges =  -0.00000

 Dipole moment (field-independent basis, Debye):
    X=              3.9790    Y=             -2.2673    Z=              2.2121  Tot=              5.0859
 Quadrupole moment (field-independent basis, Debye-Ang):
   XX=           -112.2757   YY=            -91.5687   ZZ=            -91.1624
   XY=              2.1326   XZ=             -5.6692   YZ=             -0.1965

 Normal termination of Gaussian 16 at Thu May  6 02:50:52 2021.
