 Gaussian 16, Revision A.03,
 Gaussian 16:  EM64L-G16RevA.03 25-Dec-2016

 -------------
 #p 6-31g* mp2
 -------------

 ------------------------------------------------------
 Input file generated by CHIRIPA (05-May-2021 14:51:13)
 ------------------------------------------------------
 Symbolic Z-matrix:
 Charge =  0 Multiplicity = 1

                         Standard orientation:
 ---------------------------------------------------------------------
 Center     Atomic      Atomic             Coordinates (Angstroms)
 Number     Number       Type             X           Y           Z
 ---------------------------------------------------------------------
      1          6           0       -2.919913    0.061046   -0.462911
      2          6           0       -2.556375    1.298069   -1.284859
      3          6           0       -1.047135    1.468086   -1.461170
      4          1           0       -2.439564    0.129420    0.522754
      5          1           0       -2.504190   -0.830768   -0.952029
      6          1           0       -2.973839    2.187141   -0.795072
      7          1           0       -3.037801    1.226835   -2.268612
      8          1           0       -0.618426    0.598869   -1.970356
      9          1           0       -0.554100    1.564631   -0.488444
     10          1           0       -0.809706    2.358443   -2.051722
     11          6           0       -4.425178   -0.122511   -0.277948
     12          6           0       -4.788717   -1.359534    0.544000
     13          6           0       -6.297956   -1.529550    0.720311
     14          1           0       -4.840902    0.769303    0.211171
     15          1           0       -4.905528   -0.190884   -1.263612
     16          1           0       -4.307291   -1.288299    1.527754
     17          1           0       -4.371253   -2.248605    0.054213
     18          1           0       -6.790991   -1.626095   -0.252415
     19          1           0       -6.726666   -0.660333    1.229498
     20          1           0       -6.535386   -2.419907    1.310863
     21          6           0        3.173915    0.213782    0.919330
     22          6           0        2.334365    1.448239    0.588789
     23          6           0        1.341512    1.801829    1.696494
     24          1           0        2.505204   -0.638890    1.100215
     25          1           0        3.717555    0.389277    1.857975
     26          1           0        1.793542    1.271001   -0.349674
     27          1           0        3.005161    2.298026    0.408482
     28          1           0        1.867569    2.005123    2.634863
     29          1           0        0.649067    0.972262    1.872398
     30          1           0        0.751808    2.687284    1.439437
     31          6           0        4.171176   -0.152318   -0.178471
     32          6           0        5.010727   -1.386775    0.152070
     33          6           0        6.003580   -1.740364   -0.955636
     34          1           0        3.627537   -0.327812   -1.117116
     35          1           0        4.839888    0.700355   -0.359356
     36          1           0        4.339932   -2.236562    0.332377
     37          1           0        5.551550   -1.209538    1.090533
     38          1           0        6.696024   -0.910798   -1.131539
     39          1           0        5.477522   -1.943658   -1.894004
     40          1           0        6.593283   -2.625820   -0.698579
 ---------------------------------------------------------------------

 SCF Done:  E(RHF) =  -470.732508346     A.U. after   11 cycles
 E2 =    -0.1583397000D+01 EUMP2 =    -0.47231590534643D+03

 The electronic state is 1-A.
 Alpha  occ. eigenvalues --  -11.21607 -11.21587 -11.21578 -11.21508 -11.21411
 Alpha  occ. eigenvalues --  -11.21367 -11.21351 -11.21307 -11.21100 -11.21074
 Alpha  occ. eigenvalues --  -11.21053 -11.21000  -1.08439  -1.08389  -1.03580
 Alpha  occ. eigenvalues --   -1.03463  -0.96053  -0.95904  -0.87025  -0.86966
 Alpha  occ. eigenvalues --   -0.79648  -0.79525  -0.78266  -0.78185  -0.65129
 Alpha  occ. eigenvalues --   -0.64983  -0.61160  -0.60750  -0.59356  -0.59338
 Alpha  occ. eigenvalues --   -0.57702  -0.57478  -0.55471  -0.55046  -0.52698
 Alpha  occ. eigenvalues --   -0.52655  -0.52417  -0.52340  -0.49970  -0.49831
 Alpha  occ. eigenvalues --   -0.48011  -0.47801  -0.46632  -0.46557  -0.45865
 Alpha  occ. eigenvalues --   -0.45734  -0.45698  -0.45555  -0.43786  -0.43755
 Alpha virt. eigenvalues --    0.21567   0.23052   0.23610   0.25051   0.25986
 Alpha virt. eigenvalues --    0.26371   0.27184   0.27432   0.28050   0.29188
 Alpha virt. eigenvalues --    0.30914   0.31063   0.31638   0.31757   0.32355

 Mulliken charges:
               1
     1  C   -0.298780
     2  C   -0.299535
     3  C   -0.484909
     4  H    0.149739
     5  H    0.149136
     6  H    0.151805
     7  H    0.151617
     8  H    0.153549
     9  H    0.168328
    10  H    0.159984
    11  C   -0.298245
    12  C   -0.299667
    13  C   -0.475708
    14  H    0.149672
    15  H    0.149715
    16  H    0.151956
    17  H    0.151790
    18  H    0.155177
    19  H    0.155256
    20  H    0.160253
    21  C   -0.297657
    22  C   -0.306287
    23  C   -0.480634
    24  H    0.149485
    25  H    0.149089
    26  H    0.160949
    27  H    0.151691
    28  H    0.157119
    29  H    0.154892
    30  H    0.160410
    31  C   -0.298306
    32  C   -0.299630
    33  C   -0.475679
    34  H    0.149672
    35  H    0.149595
    36  H    0.151873
    37  H    0.151854
    38  H    0.155154
    39  H    0.155127
    40  H    0.160149
 Sum of Mulliken charges =  -0.00000

 Dipole moment (field-independent basis, Debye):
    X=              0.0040    Y=              0.0149    Z=              0.0022  Tot=              0.0155
 Quadrupole moment (field-independent basis, Debye-Ang):
   XX=            -86.1130   YY=            -84.3328   ZZ=            -84.4776
   XY=              0.4886   XZ=              1.0543   YZ=              0.5479

 Normal termination of Gaussian 16 at Thu May  6 00:47:37 2021.
