 Gaussian 16, Revision A.03,
 Gaussian 16:  EM64L-G16RevA.03 25-Dec-2016

 -------------
 #p 6-31g* mp2
 -------------

 ------------------------------------------------------
 Input file generated by CHIRIPA (05-May-2021 14:57:25)
 ------------------------------------------------------
 Symbolic Z-matrix:
 Charge =  0 Multiplicity = 1

                         Standard orientation:
 ---------------------------------------------------------------------
 Center     Atomic      Atomic             Coordinates (Angstroms)
 Number     Number       Type             X           Y           Z
 ---------------------------------------------------------------------
      1          6           0        3.624577   -1.808937   -0.300671
      2          6           0        3.290432   -1.194767   -1.512143
      3          6           0        2.608332    0.025528   -1.525138
      4          6           0        2.274382    0.606277   -0.302641
      5          6           0        2.593327    0.019135    0.920808
      6          6           0        3.275573   -1.201097    0.909803
      7          1           0        4.154505   -2.756867   -0.299898
      8          1           0        3.560199   -1.664524   -2.453737
      9          1           0        2.337320    0.522855   -2.448521
     10          1           0        2.310989    0.511636    1.843384
     11          1           0        3.533783   -1.675779    1.852168
     12          7           0        1.552196    1.898116   -0.303695
     13          8           0        1.269316    2.389305    0.786878
     14          8           0        1.282702    2.395009   -1.395074
     15          6           0       -4.108300   -0.235498   -1.541480
     16          6           0       -4.076627    0.730560   -0.530416
     17          6           0       -3.130831    0.653094    0.496237
     18          6           0       -2.227618   -0.408629    0.480734
     19          6           0       -2.233819   -1.386633   -0.512624
     20          6           0       -3.188417   -1.289154   -1.529378
     21          1           0       -4.846435   -0.167547   -2.335165
     22          1           0       -4.789791    1.549947   -0.537265
     23          1           0       -3.083939    1.387309    1.291314
     24          1           0       -1.509952   -2.191803   -0.478936
     25          1           0       -3.210670   -2.040840   -2.313290
     26          7           0       -1.221687   -0.501233    1.562366
     27          8           0       -0.436889   -1.446436    1.526031
     28          8           0       -1.237084    0.373141    2.426004
 ---------------------------------------------------------------------

 SCF Done:  E(RHF) =  -868.338503880     A.U. after   16 cycles
 E2 =    -0.2601371410D+01 EUMP2 =    -0.87093987529078D+03

 The electronic state is 1-A.
 Alpha  occ. eigenvalues --  -20.60681 -20.60609 -20.60129 -20.60062 -15.85649
 Alpha  occ. eigenvalues --  -15.85133 -11.30901 -11.30291 -11.27518 -11.27411
 Alpha  occ. eigenvalues --  -11.27213 -11.26988 -11.26760 -11.26662 -11.26502
 Alpha  occ. eigenvalues --  -11.26416 -11.25966 -11.25753  -1.59711  -1.59188
 Alpha  occ. eigenvalues --   -1.39260  -1.38736  -1.19070  -1.18486  -1.08498
 Alpha  occ. eigenvalues --   -1.07942  -1.04457  -1.03850  -0.95353  -0.94793
 Alpha  occ. eigenvalues --   -0.85865  -0.85283  -0.82187  -0.81620  -0.77244
 Alpha  occ. eigenvalues --   -0.76677  -0.71897  -0.71370  -0.71125  -0.70412
 Alpha  occ. eigenvalues --   -0.70192  -0.69629  -0.64733  -0.64475  -0.64150
 Alpha  occ. eigenvalues --   -0.63883  -0.61809  -0.61204  -0.54985  -0.54428
 Alpha  occ. eigenvalues --   -0.52792  -0.52558  -0.52206  -0.51962  -0.48685
 Alpha  occ. eigenvalues --   -0.48642  -0.48130  -0.48102  -0.44715  -0.44122
 Alpha  occ. eigenvalues --   -0.37059  -0.36501  -0.36044  -0.35346
 Alpha virt. eigenvalues --    0.05117   0.05989   0.11606   0.12231   0.16787
 Alpha virt. eigenvalues --    0.17347   0.21704   0.22245   0.27615   0.28181
 Alpha virt. eigenvalues --    0.28604   0.29152   0.31221   0.31731   0.32855

 Mulliken charges:
               1
     1  C   -0.171047
     2  C   -0.221091
     3  C   -0.173517
     4  C    0.149511
     5  C   -0.154610
     6  C   -0.212662
     7  H    0.222124
     8  H    0.217772
     9  H    0.270357
    10  H    0.284120
    11  H    0.224906
    12  N    0.485022
    13  O   -0.454742
    14  O   -0.467790
    15  C   -0.169587
    16  C   -0.217567
    17  C   -0.165654
    18  C    0.156776
    19  C   -0.171356
    20  C   -0.218491
    21  H    0.225032
    22  H    0.224596
    23  H    0.279641
    24  H    0.272396
    25  H    0.220965
    26  N    0.486354
    27  O   -0.468823
    28  O   -0.452634
 Sum of Mulliken charges =  -0.00000

 Dipole moment (field-independent basis, Debye):
    X=             -1.1601    Y=             -4.1089    Z=             -3.4124  Tot=              5.4657
 Quadrupole moment (field-independent basis, Debye-Ang):
   XX=            -78.0932   YY=           -108.3991   ZZ=           -103.2733
   XY=            -10.4798   XZ=              6.0662   YZ=              5.2941

 Normal termination of Gaussian 16 at Thu May  6 13:03:47 2021.
