 Gaussian 16, Revision A.03,
 Gaussian 16:  EM64L-G16RevA.03 25-Dec-2016

 -------------
 #p 6-31g* mp2
 -------------

 ------------------------------------------------------
 Input file generated by CHIRIPA (05-May-2021 14:53:12)
 ------------------------------------------------------
 Symbolic Z-matrix:
 Charge =  0 Multiplicity = 1

                         Standard orientation:
 ---------------------------------------------------------------------
 Center     Atomic      Atomic             Coordinates (Angstroms)
 Number     Number       Type             X           Y           Z
 ---------------------------------------------------------------------
      1          6           0        4.640230   -0.239107    0.307166
      2          6           0        5.869663   -0.880648   -0.336966
      3          6           0        6.867197   -1.411907    0.692832
      4          1           0        4.963581    0.580560    0.963319
      5          1           0        4.144681   -0.978410    0.951570
      6          1           0        6.361962   -0.140769   -0.981044
      7          1           0        5.543334   -1.698759   -0.991810
      8          1           0        6.397736   -2.169378    1.328792
      9          1           0        7.221015   -0.602536    1.339618
     10          1           0        7.738333   -1.866304    0.210644
     11          6           0        3.633754    0.296760   -0.709486
     12          6           0        2.404322    0.938301   -0.065353
     13          6           0        1.406788    1.469560   -1.095151
     14          1           0        4.129304    1.036063   -1.353890
     15          1           0        3.310403   -0.522907   -1.365638
     16          1           0        2.730651    1.756411    0.589490
     17          1           0        1.912022    0.198422    0.578725
     18          1           0        1.052969    0.660189   -1.741938
     19          1           0        1.876249    2.227031   -1.731111
     20          1           0        0.535652    1.923957   -0.612963
     21          6           0       -1.901566    2.007861    0.845163
     22          6           0       -2.250016    1.820973   -0.496544
     23          6           0       -2.986998    0.699699   -0.889162
     24          6           0       -3.360649   -0.218810    0.090642
     25          6           0       -3.028751   -0.060598    1.435299
     26          6           0       -2.291359    1.068135    1.805110
     27          1           0       -1.328901    2.881791    1.141300
     28          1           0       -1.948657    2.549133   -1.244214
     29          1           0       -3.270230    0.530319   -1.920912
     30          1           0       -3.343495   -0.803776    2.157824
     31          1           0       -2.022161    1.210686    2.847826
     32          7           0       -4.141077   -1.409802   -0.312933
     33          8           0       -4.458161   -2.204395    0.569517
     34          8           0       -4.420914   -1.526157   -1.504062
 ---------------------------------------------------------------------

 SCF Done:  E(RHF) =  -669.534214949     A.U. after   15 cycles
 E2 =    -0.2092568342D+01 EUMP2 =    -0.67162678329095D+03

 The electronic state is 1-A.
 Alpha  occ. eigenvalues --  -20.60791 -20.60785 -15.85843 -11.31223 -11.27781
 Alpha  occ. eigenvalues --  -11.27762 -11.27524 -11.26814 -11.26788 -11.22070
 Alpha  occ. eigenvalues --  -11.21829 -11.21735 -11.21653 -11.21541 -11.21265
 Alpha  occ. eigenvalues --   -1.59865  -1.39418  -1.19398  -1.08818  -1.08748
 Alpha  occ. eigenvalues --   -1.04801  -1.03876  -0.96339  -0.95625  -0.87370
 Alpha  occ. eigenvalues --   -0.86195  -0.82453  -0.79953  -0.78568  -0.77494
 Alpha  occ. eigenvalues --   -0.72063  -0.71188  -0.70518  -0.65389  -0.65058
 Alpha  occ. eigenvalues --   -0.64819  -0.62153  -0.61269  -0.59750  -0.57966
 Alpha  occ. eigenvalues --   -0.55613  -0.55308  -0.53541  -0.52925  -0.52808
 Alpha  occ. eigenvalues --   -0.52528  -0.50260  -0.48822  -0.48816  -0.48266
 Alpha  occ. eigenvalues --   -0.46974  -0.46114  -0.46026  -0.44821  -0.44158
 Alpha  occ. eigenvalues --   -0.37304  -0.36354
 Alpha virt. eigenvalues --    0.05000   0.11186   0.16439   0.20981   0.22620
 Alpha virt. eigenvalues --    0.24140   0.26329   0.26732   0.27097   0.27746
 Alpha virt. eigenvalues --    0.28497   0.30659   0.31067   0.31704   0.31950

 Mulliken charges:
               1
     1  C   -0.298519
     2  C   -0.299972
     3  C   -0.475896
     4  H    0.148716
     5  H    0.150178
     6  H    0.151957
     7  H    0.153229
     8  H    0.155735
     9  H    0.154772
    10  H    0.161189
    11  C   -0.298753
    12  C   -0.299294
    13  C   -0.479074
    14  H    0.149543
    15  H    0.151902
    16  H    0.148521
    17  H    0.153720
    18  H    0.158142
    19  H    0.152894
    20  H    0.156933
    21  C   -0.171614
    22  C   -0.214712
    23  C   -0.172443
    24  C    0.158650
    25  C   -0.171453
    26  C   -0.218809
    27  H    0.226261
    28  H    0.225527
    29  H    0.275802
    30  H    0.275662
    31  H    0.223808
    32  N    0.488011
    33  O   -0.460372
    34  O   -0.460241
 Sum of Mulliken charges =  -0.00000

 Dipole moment (field-independent basis, Debye):
    X=              2.7513    Y=              4.1427    Z=              1.4214  Tot=              5.1722
 Quadrupole moment (field-independent basis, Debye-Ang):
   XX=           -114.3868   YY=            -96.2355   ZZ=            -90.4159
   XY=            -14.2114   XZ=             -5.1449   YZ=             -1.2957

 Normal termination of Gaussian 16 at Wed May  5 17:00:24 2021.
