 Gaussian 16, Revision A.03,
 Gaussian 16:  EM64L-G16RevA.03 25-Dec-2016

 -------------
 #p 6-31g* mp2
 -------------

 ------------------------------------------------------
 Input file generated by CHIRIPA (05-May-2021 14:51:08)
 ------------------------------------------------------
 Symbolic Z-matrix:
 Charge =  0 Multiplicity = 1

                         Standard orientation:
 ---------------------------------------------------------------------
 Center     Atomic      Atomic             Coordinates (Angstroms)
 Number     Number       Type             X           Y           Z
 ---------------------------------------------------------------------
      1          6           0       -4.817428   -0.089928    0.215768
      2          6           0       -5.475020   -1.309337   -0.431225
      3          6           0       -6.970787   -1.404410   -0.128843
      4          1           0       -4.971285   -0.131858    1.302743
      5          1           0       -5.322247    0.820273   -0.136491
      6          1           0       -4.968212   -2.216884   -0.078918
      7          1           0       -5.319414   -1.264598   -1.516767
      8          1           0       -7.495211   -0.516181   -0.495761
      9          1           0       -7.142014   -1.473877    0.950257
     10          1           0       -7.420759   -2.283293   -0.601018
     11          6           0       -3.322122    0.018889   -0.077399
     12          6           0       -2.664530    1.238297    0.569593
     13          6           0       -1.168762    1.333371    0.267211
     14          1           0       -2.817302   -0.891313    0.274860
     15          1           0       -3.168265    0.060818   -1.164374
     16          1           0       -2.820136    1.193559    1.655135
     17          1           0       -3.171338    2.145844    0.217286
     18          1           0       -0.997536    1.402838   -0.811889
     19          1           0       -0.644338    0.445141    0.634130
     20          1           0       -0.718791    2.212254    0.739387
     21          6           0        4.170500   -0.709386    0.066469
     22          6           0        5.625593   -1.159119   -0.069288
     23          6           0        5.811037   -2.651806    0.205103
     24          1           0        3.813530   -0.944748    1.078458
     25          1           0        3.548019   -1.290846   -0.627660
     26          1           0        6.245350   -0.576018    0.623902
     27          1           0        5.979201   -0.922486   -1.081010
     28          1           0        5.217041   -3.248798   -0.494446
     29          1           0        5.484702   -2.900362    1.220152
     30          1           0        6.858593   -2.951747    0.102524
     31          6           0        3.969050    0.780425   -0.204838
     32          6           0        2.513957    1.230159   -0.069081
     33          6           0        2.328513    2.722846   -0.343472
     34          1           0        4.591530    1.361886    0.489292
     35          1           0        4.326020    1.015787   -1.216827
     36          1           0        2.160349    0.993525    0.942642
     37          1           0        1.894200    0.647058   -0.762270
     38          1           0        2.654848    2.971402   -1.358521
     39          1           0        2.922509    3.319839    0.356078
     40          1           0        1.280956    3.022786   -0.240893
 ---------------------------------------------------------------------

 SCF Done:  E(RHF) =  -470.732427183     A.U. after   11 cycles
 E2 =    -0.1583190196D+01 EUMP2 =    -0.47231561737917D+03

 The electronic state is 1-A.
 Alpha  occ. eigenvalues --  -11.21603 -11.21585 -11.21564 -11.21458 -11.21406
 Alpha  occ. eigenvalues --  -11.21347 -11.21341 -11.21270 -11.21073 -11.21046
 Alpha  occ. eigenvalues --  -11.21041 -11.20900  -1.08434  -1.08353  -1.03565
 Alpha  occ. eigenvalues --   -1.03417  -0.96052  -0.95837  -0.87040  -0.86888
 Alpha  occ. eigenvalues --   -0.79653  -0.79471  -0.78267  -0.78136  -0.65064
 Alpha  occ. eigenvalues --   -0.64986  -0.60952  -0.60828  -0.59648  -0.59066
 Alpha  occ. eigenvalues --   -0.57618  -0.57488  -0.55296  -0.55170  -0.52970
 Alpha  occ. eigenvalues --   -0.52466  -0.52410  -0.52095  -0.49936  -0.49843
 Alpha  occ. eigenvalues --   -0.48060  -0.47686  -0.46648  -0.46516  -0.45840
 Alpha  occ. eigenvalues --   -0.45733  -0.45626  -0.45596  -0.43856  -0.43596
 Alpha virt. eigenvalues --    0.22039   0.23024   0.23494   0.24957   0.26427
 Alpha virt. eigenvalues --    0.26573   0.26847   0.27323   0.27834   0.29196
 Alpha virt. eigenvalues --    0.30211   0.30919   0.31297   0.31616   0.32390

 Mulliken charges:
               1
     1  C   -0.298228
     2  C   -0.299608
     3  C   -0.475696
     4  H    0.149644
     5  H    0.149532
     6  H    0.151921
     7  H    0.151893
     8  H    0.155185
     9  H    0.155181
    10  H    0.160250
    11  C   -0.298633
    12  C   -0.300942
    13  C   -0.476888
    14  H    0.149514
    15  H    0.149490
    16  H    0.151719
    17  H    0.151643
    18  H    0.155323
    19  H    0.157940
    20  H    0.161954
    21  C   -0.298147
    22  C   -0.299527
    23  C   -0.475653
    24  H    0.149190
    25  H    0.149276
    26  H    0.151856
    27  H    0.151883
    28  H    0.155076
    29  H    0.155017
    30  H    0.160129
    31  C   -0.298484
    32  C   -0.298407
    33  C   -0.481273
    34  H    0.149042
    35  H    0.149215
    36  H    0.152025
    37  H    0.153428
    38  H    0.154046
    39  H    0.153834
    40  H    0.166282
 Sum of Mulliken charges =  -0.00000

 Dipole moment (field-independent basis, Debye):
    X=             -0.0397    Y=             -0.0043    Z=              0.0049  Tot=              0.0402
 Quadrupole moment (field-independent basis, Debye-Ang):
   XX=            -86.3295   YY=            -85.6972   ZZ=            -83.1258
   XY=             -0.0460   XZ=              0.4330   YZ=             -0.0516

 Normal termination of Gaussian 16 at Thu May  6 00:31:46 2021.
