 Gaussian 16, Revision A.03,
 Gaussian 16:  EM64L-G16RevA.03 25-Dec-2016

 -------------
 #p 6-31g* mp2
 -------------

 ------------------------------------------------------
 Input file generated by CHIRIPA (05-May-2021 14:55:25)
 ------------------------------------------------------
 Symbolic Z-matrix:
 Charge =  0 Multiplicity = 1

                         Standard orientation:
 ---------------------------------------------------------------------
 Center     Atomic      Atomic             Coordinates (Angstroms)
 Number     Number       Type             X           Y           Z
 ---------------------------------------------------------------------
      1          6           0       -0.884612    0.343018    1.411307
      2          6           0       -2.115081    0.397953    2.074216
      3          6           0       -3.302925    0.122435    1.390356
      4          6           0       -3.223129   -0.206106    0.037957
      5          6           0       -2.012528   -0.269114   -0.650350
      6          6           0       -0.837346    0.010246    0.053533
      7          1           0        0.033216    0.558539    1.950324
      8          1           0       -2.154813    0.656110    3.128646
      9          1           0       -4.269054    0.157663    1.878998
     10          1           0       -2.004793   -0.529389   -1.701833
     11          1           0        0.116833   -0.033183   -0.463865
     12          7           0       -4.473944   -0.499818   -0.696615
     13          8           0       -4.376735   -0.786788   -1.887763
     14          8           0       -5.527857   -0.437499   -0.067313
     15          6           0        3.886552    0.962065   -0.273505
     16          6           0        2.507843    1.600509   -0.445368
     17          6           0        2.573963    3.121757   -0.584025
     18          1           0        4.374651    1.391530    0.612082
     19          1           0        4.515004    1.225646   -1.135461
     20          1           0        1.881733    1.334660    0.415984
     21          1           0        2.022890    1.169336   -1.330540
     22          1           0        3.176144    3.403497   -1.453854
     23          1           0        3.034184    3.569761    0.302593
     24          1           0        1.577382    3.557480   -0.705815
     25          6           0        3.836915   -0.558358   -0.133595
     26          6           0        5.215624   -1.196801    0.038270
     27          6           0        5.149503   -2.718050    0.176926
     28          1           0        3.208463   -0.821938    0.728361
     29          1           0        3.348815   -0.987822   -1.019181
     30          1           0        5.700577   -0.765629    0.923440
     31          1           0        5.841733   -0.930953   -0.823082
     32          1           0        4.689282   -3.166054   -0.709692
     33          1           0        4.547323   -2.999790    1.046755
     34          1           0        6.146084   -3.153772    0.298716
 ---------------------------------------------------------------------

 SCF Done:  E(RHF) =  -669.534374307     A.U. after   15 cycles
 E2 =    -0.2092725613D+01 EUMP2 =    -0.67162709992009D+03

 The electronic state is 1-A.
 Alpha  occ. eigenvalues --  -20.60693 -20.60688 -15.85743 -11.31089 -11.27651
 Alpha  occ. eigenvalues --  -11.27617 -11.27376 -11.26681 -11.26535 -11.22916
 Alpha  occ. eigenvalues --  -11.22435 -11.22386 -11.22343 -11.22024 -11.21704
 Alpha  occ. eigenvalues --   -1.59769  -1.39323  -1.19249  -1.09458  -1.08652
 Alpha  occ. eigenvalues --   -1.04661  -1.04463  -0.96874  -0.95497  -0.87900
 Alpha  occ. eigenvalues --   -0.86060  -0.82327  -0.80622  -0.79297  -0.77355
 Alpha  occ. eigenvalues --   -0.71963  -0.71091  -0.70393  -0.66084  -0.64899
 Alpha  occ. eigenvalues --   -0.64673  -0.62035  -0.61872  -0.60221  -0.58497
 Alpha  occ. eigenvalues --   -0.56148  -0.55170  -0.53586  -0.53299  -0.52980
 Alpha  occ. eigenvalues --   -0.52734  -0.50821  -0.48898  -0.48721  -0.48653
 Alpha  occ. eigenvalues --   -0.47639  -0.46745  -0.46715  -0.44733  -0.44728
 Alpha  occ. eigenvalues --   -0.37229  -0.36239
 Alpha virt. eigenvalues --    0.05142   0.11351   0.16623   0.19756   0.22546
 Alpha virt. eigenvalues --    0.23678   0.24058   0.25333   0.27133   0.27987
 Alpha virt. eigenvalues --    0.29374   0.30162   0.31021   0.31417   0.31664

 Mulliken charges:
               1
     1  C   -0.176258
     2  C   -0.218273
     3  C   -0.171613
     4  C    0.158778
     5  C   -0.173539
     6  C   -0.221352
     7  H    0.225655
     8  H    0.222798
     9  H    0.275089
    10  H    0.275076
    11  H    0.234094
    12  N    0.488065
    13  O   -0.460678
    14  O   -0.460768
    15  C   -0.297586
    16  C   -0.307722
    17  C   -0.475739
    18  H    0.152053
    19  H    0.154304
    20  H    0.145389
    21  H    0.150796
    22  H    0.159777
    23  H    0.157173
    24  H    0.164246
    25  C   -0.300265
    26  C   -0.300078
    27  C   -0.476410
    28  H    0.144775
    29  H    0.149296
    30  H    0.153351
    31  H    0.154638
    32  H    0.156559
    33  H    0.155269
    34  H    0.163101
 Sum of Mulliken charges =  -0.00000

 Dipole moment (field-independent basis, Debye):
    X=              4.7046    Y=              1.1019    Z=              2.5228  Tot=              5.4509
 Quadrupole moment (field-independent basis, Debye-Ang):
   XX=           -121.3484   YY=            -96.6134   ZZ=            -90.2507
   XY=             -4.5383   XZ=            -11.0278   YZ=              0.4105

 Normal termination of Gaussian 16 at Thu May  6 12:43:00 2021.
