 Gaussian 16, Revision A.03,
 Gaussian 16:  EM64L-G16RevA.03 25-Dec-2016

 -------------
 #p 6-31g* mp2
 -------------

 ------------------------------------------------------
 Input file generated by CHIRIPA (05-May-2021 14:57:22)
 ------------------------------------------------------
 Symbolic Z-matrix:
 Charge =  0 Multiplicity = 1

                         Standard orientation:
 ---------------------------------------------------------------------
 Center     Atomic      Atomic             Coordinates (Angstroms)
 Number     Number       Type             X           Y           Z
 ---------------------------------------------------------------------
      1          6           0       -1.142873   -1.708790    0.485852
      2          6           0       -1.760965   -1.020965    1.535319
      3          6           0       -2.867152   -0.201150    1.292831
      4          6           0       -3.331035   -0.091633   -0.017173
      5          6           0       -2.736819   -0.764101   -1.083935
      6          6           0       -1.631910   -1.578393   -0.818126
      7          1           0       -0.284056   -2.343497    0.683281
      8          1           0       -1.383332   -1.120347    2.549006
      9          1           0       -3.364722    0.342660    2.086628
     10          1           0       -3.136024   -0.645152   -2.083887
     11          1           0       -1.153889   -2.111380   -1.635112
     12          7           0       -4.501430    0.773345   -0.286228
     13          8           0       -4.890893    0.853045   -1.449243
     14          8           0       -5.007160    1.355236    0.670995
     15          6           0        3.174306    2.754269    0.090416
     16          6           0        2.899626    2.003812    1.238407
     17          6           0        2.876965    0.606966    1.184953
     18          6           0        3.134644   -0.009441   -0.038538
     19          6           0        3.411502    0.710561   -1.199675
     20          6           0        3.428919    2.106390   -1.122823
     21          1           0        3.189873    3.838976    0.141027
     22          1           0        2.701521    2.504272    2.181986
     23          1           0        2.667128    0.001549    2.058370
     24          1           0        3.605083    0.183328   -2.125941
     25          1           0        3.642534    2.686643   -2.015975
     26          7           0        3.113429   -1.487680   -0.107514
     27          8           0        3.343739   -2.006800   -1.197517
     28          8           0        2.866893   -2.099214    0.929735
 ---------------------------------------------------------------------

 SCF Done:  E(RHF) =  -868.339981049     A.U. after   16 cycles
 E2 =    -0.2598890564D+01 EUMP2 =    -0.87093887161321D+03

 The electronic state is 1-A.
 Alpha  occ. eigenvalues --  -20.61800 -20.61760 -20.60621 -20.60615 -15.86800
 Alpha  occ. eigenvalues --  -15.85671 -11.31867 -11.30917 -11.28425 -11.28384
 Alpha  occ. eigenvalues --  -11.28058 -11.27503 -11.27468 -11.27342 -11.27318
 Alpha  occ. eigenvalues --  -11.27019 -11.26439 -11.26370  -1.60851  -1.59700
 Alpha  occ. eigenvalues --   -1.40412  -1.39257  -1.20006  -1.19067  -1.09452
 Alpha  occ. eigenvalues --   -1.08451  -1.05366  -1.04461  -0.96338  -0.95309
 Alpha  occ. eigenvalues --   -0.86778  -0.85842  -0.83184  -0.82156  -0.78274
 Alpha  occ. eigenvalues --   -0.77251  -0.73022  -0.72179  -0.71888  -0.71107
 Alpha  occ. eigenvalues --   -0.71025  -0.70057  -0.65661  -0.65363  -0.64701
 Alpha  occ. eigenvalues --   -0.64439  -0.62725  -0.61815  -0.55861  -0.54822
 Alpha  occ. eigenvalues --   -0.53703  -0.53455  -0.52794  -0.52532  -0.49801
 Alpha  occ. eigenvalues --   -0.49753  -0.48653  -0.48635  -0.45871  -0.44690
 Alpha  occ. eigenvalues --   -0.37960  -0.37034  -0.36914  -0.36087
 Alpha virt. eigenvalues --    0.04210   0.05284   0.10694   0.11583   0.15763
 Alpha virt. eigenvalues --    0.16820   0.20819   0.21934   0.26735   0.27498
 Alpha virt. eigenvalues --    0.27837   0.28886   0.30574   0.31559   0.31930

 Mulliken charges:
               1
     1  C   -0.179899
     2  C   -0.221097
     3  C   -0.172213
     4  C    0.157461
     5  C   -0.171718
     6  C   -0.221228
     7  H    0.244091
     8  H    0.222088
     9  H    0.273040
    10  H    0.274254
    11  H    0.227965
    12  N    0.488125
    13  O   -0.461438
    14  O   -0.462351
    15  C   -0.169108
    16  C   -0.217631
    17  C   -0.170457
    18  C    0.158069
    19  C   -0.170680
    20  C   -0.217984
    21  H    0.229042
    22  H    0.225276
    23  H    0.272197
    24  H    0.275866
    25  H    0.226227
    26  N    0.486941
    27  O   -0.457810
    28  O   -0.467028
 Sum of Mulliken charges =  -0.00000

 Dipole moment (field-independent basis, Debye):
    X=              4.4815    Y=              2.2367    Z=              1.1081  Tot=              5.1298
 Quadrupole moment (field-independent basis, Debye-Ang):
   XX=           -133.5263   YY=           -104.8432   ZZ=            -95.4153
   XY=             26.8848   XZ=             -4.1639   YZ=              0.8803

 Normal termination of Gaussian 16 at Thu May  6 08:07:27 2021.
