 Gaussian 16, Revision A.03,
 Gaussian 16:  EM64L-G16RevA.03 25-Dec-2016

 -------------
 #p 6-31g* mp2
 -------------

 ------------------------------------------------------
 Input file generated by CHIRIPA (05-May-2021 14:55:24)
 ------------------------------------------------------
 Symbolic Z-matrix:
 Charge =  0 Multiplicity = 1

                         Standard orientation:
 ---------------------------------------------------------------------
 Center     Atomic      Atomic             Coordinates (Angstroms)
 Number     Number       Type             X           Y           Z
 ---------------------------------------------------------------------
      1          6           0        2.600333    2.736439    0.126938
      2          6           0        1.708216    1.914747   -0.569819
      3          6           0        1.975111    0.551728   -0.729491
      4          6           0        3.148806    0.041420   -0.176936
      5          6           0        4.057283    0.834304    0.522559
      6          6           0        3.769958    2.194550    0.669946
      7          1           0        2.385067    3.794187    0.246203
      8          1           0        0.799097    2.332848   -0.992593
      9          1           0        1.301792   -0.107152   -1.264221
     10          1           0        4.955382    0.388685    0.932752
     11          1           0        4.464604    2.830302    1.211546
     12          7           0        3.442170   -1.400080   -0.339471
     13          8           0        4.483082   -1.825317    0.156828
     14          8           0        2.625642   -2.077394   -0.960086
     15          6           0       -4.652343   -0.110842    0.427251
     16          6           0       -5.511609    0.460928   -0.700900
     17          6           0       -6.876518    0.949451   -0.214933
     18          1           0       -5.191144   -0.940128    0.905709
     19          1           0       -4.513819    0.658670    1.199299
     20          1           0       -5.647318   -0.308988   -1.471242
     21          1           0       -4.970619    1.288827   -1.176852
     22          1           0       -6.758667    1.735691    0.537754
     23          1           0       -7.439211    0.128797    0.241691
     24          1           0       -7.474280    1.354180   -1.037573
     25          6           0       -3.284824   -0.603388   -0.042872
     26          6           0       -2.425557   -1.175158    1.085279
     27          6           0       -1.060648   -1.663681    0.599313
     28          1           0       -3.423348   -1.372900   -0.814919
     29          1           0       -2.746023    0.225898   -0.521330
     30          1           0       -2.966547   -2.003056    1.561231
     31          1           0       -2.289849   -0.405241    1.855621
     32          1           0       -0.497956   -0.843027    0.142688
     33          1           0       -1.178500   -2.449921   -0.153375
     34          1           0       -0.462887   -2.068409    1.421953
 ---------------------------------------------------------------------

 SCF Done:  E(RHF) =  -669.535122411     A.U. after   15 cycles
 E2 =    -0.2091762142D+01 EUMP2 =    -0.67162688455289D+03

 The electronic state is 1-A.
 Alpha  occ. eigenvalues --  -20.60756 -20.60741 -15.85799 -11.31188 -11.27770
 Alpha  occ. eigenvalues --  -11.27747 -11.27520 -11.26796 -11.26784 -11.21790
 Alpha  occ. eigenvalues --  -11.21628 -11.21569 -11.21514 -11.21239 -11.20935
 Alpha  occ. eigenvalues --   -1.59821  -1.39373  -1.19373  -1.08760  -1.08566
 Alpha  occ. eigenvalues --   -1.04786  -1.03616  -0.96060  -0.95589  -0.87073
 Alpha  occ. eigenvalues --   -0.86174  -0.82424  -0.79682  -0.78392  -0.77461
 Alpha  occ. eigenvalues --   -0.72019  -0.71141  -0.70491  -0.65211  -0.65025
 Alpha  occ. eigenvalues --   -0.64790  -0.62171  -0.61000  -0.59424  -0.57670
 Alpha  occ. eigenvalues --   -0.55433  -0.55222  -0.53125  -0.52925  -0.52710
 Alpha  occ. eigenvalues --   -0.52409  -0.49989  -0.48782  -0.48771  -0.47986
 Alpha  occ. eigenvalues --   -0.46723  -0.45932  -0.45854  -0.44766  -0.43868
 Alpha  occ. eigenvalues --   -0.37350  -0.36359
 Alpha virt. eigenvalues --    0.05035   0.11214   0.16506   0.20945   0.22783
 Alpha virt. eigenvalues --    0.24174   0.25938   0.26871   0.27455   0.27894
 Alpha virt. eigenvalues --    0.29051   0.30750   0.31451   0.31716   0.32079

 Mulliken charges:
               1
     1  C   -0.170580
     2  C   -0.219975
     3  C   -0.169536
     4  C    0.157898
     5  C   -0.171083
     6  C   -0.218369
     7  H    0.225585
     8  H    0.223307
     9  H    0.278031
    10  H    0.275685
    11  H    0.223485
    12  N    0.488174
    13  O   -0.460718
    14  O   -0.459538
    15  C   -0.298126
    16  C   -0.299346
    17  C   -0.475706
    18  H    0.151381
    19  H    0.148398
    20  H    0.153100
    21  H    0.149267
    22  H    0.154547
    23  H    0.156259
    24  H    0.160374
    25  C   -0.296717
    26  C   -0.300884
    27  C   -0.473871
    28  H    0.151793
    29  H    0.141762
    30  H    0.153750
    31  H    0.149746
    32  H    0.145144
    33  H    0.161785
    34  H    0.164976
 Sum of Mulliken charges =  -0.00000

 Dipole moment (field-independent basis, Debye):
    X=             -1.0103    Y=              4.9722    Z=              0.5948  Tot=              5.1085
 Quadrupole moment (field-independent basis, Debye-Ang):
   XX=            -98.6856   YY=            -93.9105   ZZ=            -94.3478
   XY=             17.6686   XZ=              4.8147   YZ=             -0.4455

 Normal termination of Gaussian 16 at Thu May  6 01:35:41 2021.
