 Gaussian 16, Revision A.03,
 Gaussian 16:  EM64L-G16RevA.03 25-Dec-2016

 -------------
 #p 6-31g* mp2
 -------------

 ------------------------------------------------------
 Input file generated by CHIRIPA (05-May-2021 14:55:20)
 ------------------------------------------------------
 Symbolic Z-matrix:
 Charge =  0 Multiplicity = 1

                         Standard orientation:
 ---------------------------------------------------------------------
 Center     Atomic      Atomic             Coordinates (Angstroms)
 Number     Number       Type             X           Y           Z
 ---------------------------------------------------------------------
      1          6           0        4.896664   -1.767747    0.228134
      2          6           0        3.668130   -2.056611   -0.375010
      3          6           0        2.750939   -1.035880   -0.642248
      4          6           0        3.096470    0.268308   -0.291547
      5          6           0        4.312496    0.587950    0.310449
      6          6           0        5.214366   -0.448714    0.568339
      7          1           0        5.603210   -2.566864    0.432100
      8          1           0        3.418717   -3.080064   -0.640304
      9          1           0        1.792797   -1.231415   -1.108240
     10          1           0        4.532864    1.617921    0.563459
     11          1           0        6.167723   -0.221434    1.036848
     12          7           0        2.133590    1.357344   -0.569512
     13          8           0        2.461863    2.498110   -0.250879
     14          8           0        1.068846    1.049543   -1.100750
     15          6           0       -4.700936   -0.522289   -0.047365
     16          6           0       -6.079727    0.138641   -0.037662
     17          6           0       -7.138021   -0.690803   -0.765555
     18          1           0       -4.387884   -0.687565   -1.087378
     19          1           0       -4.774493   -1.514786    0.418397
     20          1           0       -6.003310    1.130161   -0.502059
     21          1           0       -6.389449    0.302537    1.002446
     22          1           0       -7.243558   -1.675630   -0.299102
     23          1           0       -6.855225   -0.843304   -1.812155
     24          1           0       -8.115990   -0.199813   -0.746464
     25          6           0       -3.632283    0.294905    0.676447
     26          6           0       -2.253494   -0.366026    0.666745
     27          6           0       -1.195199    0.463419    1.394637
     28          1           0       -3.558727    1.287401    0.210684
     29          1           0       -3.945337    0.460180    1.716460
     30          1           0       -1.943772   -0.529922   -0.373364
     31          1           0       -2.329911   -1.357546    1.131141
     32          1           0       -1.477996    0.615919    2.441237
     33          1           0       -1.089662    1.448245    0.928184
     34          1           0       -0.217230   -0.027573    1.375546
 ---------------------------------------------------------------------

 SCF Done:  E(RHF) =  -669.535929828     A.U. after   15 cycles
 E2 =    -0.2091783056D+01 EUMP2 =    -0.67162771288439D+03

 The electronic state is 1-A.
 Alpha  occ. eigenvalues --  -20.60898 -20.60877 -15.85908 -11.31265 -11.27826
 Alpha  occ. eigenvalues --  -11.27818 -11.27563 -11.26837 -11.26827 -11.21130
 Alpha  occ. eigenvalues --  -11.20832 -11.20774 -11.20694 -11.20649 -11.19996
 Alpha  occ. eigenvalues --   -1.59943  -1.39500  -1.19430  -1.08829  -1.07781
 Alpha  occ. eigenvalues --   -1.04828  -1.02844  -0.95674  -0.95285  -0.86313
 Alpha  occ. eigenvalues --   -0.86228  -0.82501  -0.78938  -0.77592  -0.77550
 Alpha  occ. eigenvalues --   -0.72145  -0.71262  -0.70536  -0.65087  -0.64831
 Alpha  occ. eigenvalues --   -0.64400  -0.62176  -0.60215  -0.58701  -0.56916
 Alpha  occ. eigenvalues --   -0.55332  -0.54554  -0.53156  -0.52920  -0.52015
 Alpha  occ. eigenvalues --   -0.51724  -0.49268  -0.48896  -0.48857  -0.47247
 Alpha  occ. eigenvalues --   -0.45974  -0.45134  -0.45058  -0.44808  -0.43106
 Alpha  occ. eigenvalues --   -0.37406  -0.36428
 Alpha virt. eigenvalues --    0.04960   0.11177   0.16430   0.21266   0.23488
 Alpha virt. eigenvalues --    0.24772   0.26999   0.27373   0.27851   0.28347
 Alpha virt. eigenvalues --    0.28758   0.30842   0.31804   0.32230   0.32296

 Mulliken charges:
               1
     1  C   -0.170659
     2  C   -0.218520
     3  C   -0.171718
     4  C    0.158431
     5  C   -0.170837
     6  C   -0.218474
     7  H    0.225905
     8  H    0.223880
     9  H    0.276229
    10  H    0.275871
    11  H    0.223761
    12  N    0.489010
    13  O   -0.459446
    14  O   -0.458570
    15  C   -0.297890
    16  C   -0.299352
    17  C   -0.475362
    18  H    0.149755
    19  H    0.146545
    20  H    0.153033
    21  H    0.150907
    22  H    0.153653
    23  H    0.154848
    24  H    0.159132
    25  C   -0.298552
    26  C   -0.300551
    27  C   -0.470351
    28  H    0.153858
    29  H    0.147112
    30  H    0.156860
    31  H    0.143934
    32  H    0.146347
    33  H    0.172361
    34  H    0.148852
 Sum of Mulliken charges =  -0.00000

 Dipole moment (field-independent basis, Debye):
    X=              3.5868    Y=             -3.7006    Z=              0.8580  Tot=              5.2246
 Quadrupole moment (field-independent basis, Debye-Ang):
   XX=            -73.3186   YY=            -94.8915   ZZ=            -95.1258
   XY=             -9.3882   XZ=              3.1732   YZ=              2.2938

 Normal termination of Gaussian 16 at Thu May  6 10:49:40 2021.
