 Gaussian 16, Revision A.03,
 Gaussian 16:  EM64L-G16RevA.03 25-Dec-2016

 -------------
 #p 6-31g* mp2
 -------------

 ------------------------------------------------------
 Input file generated by CHIRIPA (05-May-2021 14:51:13)
 ------------------------------------------------------
 Symbolic Z-matrix:
 Charge =  0 Multiplicity = 1

                         Standard orientation:
 ---------------------------------------------------------------------
 Center     Atomic      Atomic             Coordinates (Angstroms)
 Number     Number       Type             X           Y           Z
 ---------------------------------------------------------------------
      1          6           0       -2.681395    0.736285   -0.309987
      2          6           0       -2.993382    1.094083    1.143502
      3          6           0       -3.453238    2.542730    1.310071
      4          1           0       -1.905170    1.414824   -0.689466
      5          1           0       -3.576187    0.910753   -0.923422
      6          1           0       -2.098682    0.917677    1.754246
      7          1           0       -3.768818    0.414489    1.519624
      8          1           0       -4.359748    2.728832    0.725085
      9          1           0       -2.680122    3.234879    0.961041
     10          1           0       -3.670870    2.777021    2.356782
     11          6           0       -2.220396   -0.708653   -0.492647
     12          6           0       -1.908409   -1.066451   -1.946136
     13          6           0       -1.448552   -2.515098   -2.112705
     14          1           0       -1.325603   -0.883121    0.120788
     15          1           0       -2.996621   -1.387192   -0.113169
     16          1           0       -1.132973   -0.386857   -2.322258
     17          1           0       -2.803109   -0.890045   -2.556881
     18          1           0       -2.221668   -3.207247   -1.763675
     19          1           0       -0.542043   -2.701200   -1.527720
     20          1           0       -1.230920   -2.749389   -3.159416
     21          6           0        2.268878   -0.251820    1.103923
     22          6           0        1.732986   -1.683445    1.139341
     23          6           0        1.373258   -2.145225    2.551839
     24          1           0        3.154311   -0.182412    1.750558
     25          1           0        1.515921    0.424805    1.531275
     26          1           0        2.486173   -2.356989    0.710781
     27          1           0        0.848838   -1.749498    0.492398
     28          1           0        0.604698   -1.496960    2.985046
     29          1           0        2.251335   -2.107903    3.204670
     30          1           0        0.992296   -3.171248    2.553958
     31          6           0        2.632912    0.224188   -0.301290
     32          6           0        3.168804    1.655813   -0.336707
     33          6           0        3.528532    2.117593   -1.749204
     34          1           0        3.385870   -0.452437   -0.728641
     35          1           0        1.747479    0.154780   -0.947923
     36          1           0        4.052952    1.721866    0.310237
     37          1           0        2.415617    2.329357    0.091854
     38          1           0        2.650455    2.080271   -2.402035
     39          1           0        4.297092    1.469328   -2.182411
     40          1           0        3.909495    3.143616   -1.751324
 ---------------------------------------------------------------------

 SCF Done:  E(RHF) =  -470.733183776     A.U. after   11 cycles
 E2 =    -0.1584111313D+01 EUMP2 =    -0.47231729508898D+03

 The electronic state is 1-A.
 Alpha  occ. eigenvalues --  -11.21661 -11.21658 -11.21653 -11.21647 -11.21477
 Alpha  occ. eigenvalues --  -11.21454 -11.21417 -11.21392 -11.21115 -11.21115
 Alpha  occ. eigenvalues --  -11.21113 -11.21086  -1.08525  -1.08459  -1.03603
 Alpha  occ. eigenvalues --   -1.03562  -0.96031  -0.96021  -0.87048  -0.87038
 Alpha  occ. eigenvalues --   -0.79707  -0.79591  -0.78368  -0.78245  -0.65409
 Alpha  occ. eigenvalues --   -0.64870  -0.61105  -0.60869  -0.59438  -0.59349
 Alpha  occ. eigenvalues --   -0.57651  -0.57623  -0.55322  -0.55310  -0.52722
 Alpha  occ. eigenvalues --   -0.52712  -0.52456  -0.52447  -0.49992  -0.49965
 Alpha  occ. eigenvalues --   -0.48100  -0.47899  -0.46940  -0.46518  -0.46095
 Alpha  occ. eigenvalues --   -0.45805  -0.45778  -0.45322  -0.43841  -0.43829
 Alpha virt. eigenvalues --    0.18927   0.22843   0.23336   0.24028   0.25779
 Alpha virt. eigenvalues --    0.26726   0.27043   0.28112   0.28311   0.29902
 Alpha virt. eigenvalues --    0.30439   0.31567   0.31596   0.31849   0.32178

 Mulliken charges:
               1
     1  C   -0.297729
     2  C   -0.299839
     3  C   -0.475728
     4  H    0.149065
     5  H    0.149926
     6  H    0.151170
     7  H    0.152400
     8  H    0.155446
     9  H    0.155105
    10  H    0.160487
    11  C   -0.306155
    12  C   -0.300156
    13  C   -0.480109
    14  H    0.156528
    15  H    0.150117
    16  H    0.151853
    17  H    0.152394
    18  H    0.155316
    19  H    0.159282
    20  H    0.160632
    21  C   -0.298297
    22  C   -0.310831
    23  C   -0.475621
    24  H    0.150358
    25  H    0.149048
    26  H    0.152604
    27  H    0.161301
    28  H    0.155231
    29  H    0.155534
    30  H    0.160823
    31  C   -0.299798
    32  C   -0.299668
    33  C   -0.475704
    34  H    0.150068
    35  H    0.149998
    36  H    0.152308
    37  H    0.151714
    38  H    0.155005
    39  H    0.155429
    40  H    0.160497
 Sum of Mulliken charges =  -0.00000

 Dipole moment (field-independent basis, Debye):
    X=              0.0042    Y=             -0.0140    Z=              0.0055  Tot=              0.0156
 Quadrupole moment (field-independent basis, Debye-Ang):
   XX=            -82.9947   YY=            -85.8054   ZZ=            -85.7481
   XY=              0.1592   XZ=              0.6460   YZ=              0.1542

 Normal termination of Gaussian 16 at Wed May  5 23:12:01 2021.
