 Gaussian 16, Revision A.03,
 Gaussian 16:  EM64L-G16RevA.03 25-Dec-2016

 -------------
 #p 6-31g* mp2
 -------------

 ------------------------------------------------------
 Input file generated by CHIRIPA (05-May-2021 14:55:22)
 ------------------------------------------------------
 Symbolic Z-matrix:
 Charge =  0 Multiplicity = 1

                         Standard orientation:
 ---------------------------------------------------------------------
 Center     Atomic      Atomic             Coordinates (Angstroms)
 Number     Number       Type             X           Y           Z
 ---------------------------------------------------------------------
      1          6           0        0.602787    0.585202    2.081316
      2          6           0        0.541669   -0.717058    1.574459
      3          6           0        1.449243   -1.143036    0.600087
      4          6           0        2.409270   -0.236453    0.153158
      5          6           0        2.495761    1.067447    0.638602
      6          6           0        1.577919    1.471735    1.612597
      7          1           0       -0.106226    0.907688    2.838085
      8          1           0       -0.214565   -1.407707    1.936617
      9          1           0        1.424514   -2.145532    0.190445
     10          1           0        3.260841    1.733204    0.258027
     11          1           0        1.627752    2.483682    2.004420
     12          7           0        3.375513   -0.675935   -0.878166
     13          8           0        4.211818    0.141943   -1.255399
     14          8           0        3.278252   -1.829959   -1.289757
     15          6           0       -2.714180   -0.529051   -0.314570
     16          6           0       -3.950752   -1.407382   -0.121151
     17          6           0       -3.602697   -2.883149    0.075740
     18          1           0       -2.146353   -0.892237   -1.182104
     19          1           0       -2.055417   -0.638105    0.558089
     20          1           0       -4.607642   -1.295641   -0.993289
     21          1           0       -4.515802   -1.041946    0.745908
     22          1           0       -2.966420   -3.014651    0.956909
     23          1           0       -3.058781   -3.269789   -0.792170
     24          1           0       -4.501331   -3.492834    0.212127
     25          6           0       -3.045875    0.948945   -0.512650
     26          6           0       -1.809303    1.827274   -0.706069
     27          6           0       -2.157357    3.303041   -0.902960
     28          1           0       -3.704638    1.057997   -1.385309
     29          1           0       -3.613702    1.312130    0.354883
     30          1           0       -1.244253    1.461838   -1.573128
     31          1           0       -1.152413    1.715533    0.166069
     32          1           0       -2.701274    3.689681   -0.035051
     33          1           0       -2.793635    3.434543   -1.784128
     34          1           0       -1.258724    3.912727   -1.039347
 ---------------------------------------------------------------------

 SCF Done:  E(RHF) =  -669.533453618     A.U. after   15 cycles
 E2 =    -0.2095087627D+01 EUMP2 =    -0.67162854124591D+03

 The electronic state is 1-A.
 Alpha  occ. eigenvalues --  -20.60818 -20.60813 -15.85871 -11.31266 -11.27828
 Alpha  occ. eigenvalues --  -11.27818 -11.27568 -11.26857 -11.26835 -11.22092
 Alpha  occ. eigenvalues --  -11.21831 -11.21789 -11.21735 -11.21665 -11.21397
 Alpha  occ. eigenvalues --   -1.59892  -1.39445  -1.19447  -1.08931  -1.08776
 Alpha  occ. eigenvalues --   -1.04850  -1.03948  -0.96421  -0.95672  -0.87438
 Alpha  occ. eigenvalues --   -0.86259  -0.82500  -0.80006  -0.78691  -0.77524
 Alpha  occ. eigenvalues --   -0.72091  -0.71215  -0.70560  -0.65596  -0.65098
 Alpha  occ. eigenvalues --   -0.64810  -0.62207  -0.61360  -0.59787  -0.58025
 Alpha  occ. eigenvalues --   -0.55740  -0.55359  -0.53382  -0.52997  -0.52983
 Alpha  occ. eigenvalues --   -0.52808  -0.50379  -0.48856  -0.48843  -0.48323
 Alpha  occ. eigenvalues --   -0.47054  -0.46168  -0.46129  -0.44844  -0.44195
 Alpha  occ. eigenvalues --   -0.37287  -0.36382
 Alpha virt. eigenvalues --    0.04971   0.11061   0.16394   0.19960   0.23042
 Alpha virt. eigenvalues --    0.23316   0.25793   0.26663   0.27385   0.28186
 Alpha virt. eigenvalues --    0.29183   0.29938   0.31345   0.31589   0.31908

 Mulliken charges:
               1
     1  C   -0.175082
     2  C   -0.213000
     3  C   -0.171293
     4  C    0.159097
     5  C   -0.170330
     6  C   -0.216180
     7  H    0.226263
     8  H    0.224559
     9  H    0.276324
    10  H    0.275953
    11  H    0.224234
    12  N    0.487952
    13  O   -0.460196
    14  O   -0.460122
    15  C   -0.300708
    16  C   -0.299673
    17  C   -0.475240
    18  H    0.152698
    19  H    0.144391
    20  H    0.154974
    21  H    0.150332
    22  H    0.146498
    23  H    0.158368
    24  H    0.163297
    25  C   -0.298081
    26  C   -0.306480
    27  C   -0.475582
    28  H    0.151401
    29  H    0.145793
    30  H    0.154662
    31  H    0.156905
    32  H    0.151730
    33  H    0.157072
    34  H    0.159466
 Sum of Mulliken charges =  -0.00000

 Dipole moment (field-independent basis, Debye):
    X=             -3.3206    Y=              1.5171    Z=              3.5764  Tot=              5.1106
 Quadrupole moment (field-independent basis, Debye-Ang):
   XX=           -111.0094   YY=            -92.8811   ZZ=            -93.2879
   XY=              7.1056   XZ=              8.6054   YZ=             -0.0683

 Normal termination of Gaussian 16 at Thu May  6 17:34:28 2021.
