 Gaussian 16, Revision A.03,
 Gaussian 16:  EM64L-G16RevA.03 25-Dec-2016

 -------------
 #p 6-31g* mp2
 -------------

 ------------------------------------------------------
 Input file generated by CHIRIPA (05-May-2021 14:51:11)
 ------------------------------------------------------
 Symbolic Z-matrix:
 Charge =  0 Multiplicity = 1

                         Standard orientation:
 ---------------------------------------------------------------------
 Center     Atomic      Atomic             Coordinates (Angstroms)
 Number     Number       Type             X           Y           Z
 ---------------------------------------------------------------------
      1          6           0       -3.591848    0.828706    0.232683
      2          6           0       -2.460748    1.411877   -0.614967
      3          6           0       -1.616326    2.432987    0.147974
      4          1           0       -4.234411    1.646084    0.587579
      5          1           0       -3.163855    0.356419    1.127760
      6          1           0       -2.890642    1.881713   -1.508869
      7          1           0       -1.820912    0.592997   -0.968044
      8          1           0       -1.160483    1.973224    1.030826
      9          1           0       -2.236290    3.269262    0.486928
     10          1           0       -0.813648    2.837104   -0.476731
     11          6           0       -4.444896   -0.193659   -0.516186
     12          6           0       -5.575996   -0.776829    0.331464
     13          6           0       -6.420418   -1.797939   -0.431478
     14          1           0       -4.872889    0.278628   -1.411263
     15          1           0       -3.802333   -1.011037   -0.871082
     16          1           0       -6.215831    0.042050    0.684541
     17          1           0       -5.146102   -1.246665    1.225366
     18          1           0       -5.800454   -2.634215   -0.770431
     19          1           0       -6.876261   -1.338177   -1.314329
     20          1           0       -7.223096   -2.202057    0.193228
     21          6           0        4.757765   -0.355781    0.329547
     22          6           0        5.695916   -0.219930   -0.870204
     23          6           0        7.171773   -0.298461   -0.478446
     24          1           0        4.987749    0.433766    1.058015
     25          1           0        4.954009   -1.312489    0.833127
     26          1           0        5.497010    0.735615   -1.372184
     27          1           0        5.463544   -1.009776   -1.595987
     28          1           0        7.392133   -1.256805    0.002823
     29          1           0        7.425789    0.498504    0.227898
     30          1           0        7.824651   -0.199068   -1.351219
     31          6           0        3.278979   -0.279267   -0.046043
     32          6           0        2.340827   -0.415117    1.153707
     33          6           0        0.864971   -0.336586    0.761949
     34          1           0        3.082736    0.677442   -0.549624
     35          1           0        3.048995   -1.068814   -0.774512
     36          1           0        2.573200    0.374729    1.879491
     37          1           0        2.539734   -1.370663    1.655687
     38          1           0        0.610955   -1.133552    0.055605
     39          1           0        0.644611    0.621757    0.280680
     40          1           0        0.212094   -0.435980    1.634722
 ---------------------------------------------------------------------

 SCF Done:  E(RHF) =  -470.732420842     A.U. after   11 cycles
 E2 =    -0.1583234539D+01 EUMP2 =    -0.47231565538116D+03

 The electronic state is 1-A.
 Alpha  occ. eigenvalues --  -11.21609 -11.21607 -11.21567 -11.21510 -11.21416
 Alpha  occ. eigenvalues --  -11.21356 -11.21351 -11.21289 -11.21076 -11.21045
 Alpha  occ. eigenvalues --  -11.21040 -11.20974  -1.08444  -1.08370  -1.03577
 Alpha  occ. eigenvalues --   -1.03444  -0.96062  -0.95870  -0.87074  -0.86895
 Alpha  occ. eigenvalues --   -0.79620  -0.79532  -0.78254  -0.78187  -0.65115
 Alpha  occ. eigenvalues --   -0.64974  -0.61152  -0.60717  -0.59396  -0.59275
 Alpha  occ. eigenvalues --   -0.57653  -0.57489  -0.55606  -0.54938  -0.52693
 Alpha  occ. eigenvalues --   -0.52645  -0.52372  -0.52340  -0.50178  -0.49591
 Alpha  occ. eigenvalues --   -0.47943  -0.47824  -0.46709  -0.46455  -0.45824
 Alpha  occ. eigenvalues --   -0.45731  -0.45674  -0.45630  -0.43796  -0.43728
 Alpha virt. eigenvalues --    0.21586   0.22960   0.23676   0.24929   0.26116
 Alpha virt. eigenvalues --    0.26647   0.26867   0.27726   0.27813   0.29255
 Alpha virt. eigenvalues --    0.30295   0.31135   0.31607   0.32026   0.32172

 Mulliken charges:
               1
     1  C   -0.298445
     2  C   -0.301664
     3  C   -0.480414
     4  H    0.149275
     5  H    0.149850
     6  H    0.151384
     7  H    0.155849
     8  H    0.160099
     9  H    0.155252
    10  H    0.157976
    11  C   -0.298281
    12  C   -0.299612
    13  C   -0.475666
    14  H    0.149336
    15  H    0.149746
    16  H    0.151826
    17  H    0.151853
    18  H    0.155113
    19  H    0.155114
    20  H    0.160110
    21  C   -0.298291
    22  C   -0.299664
    23  C   -0.475715
    24  H    0.149741
    25  H    0.149547
    26  H    0.151952
    27  H    0.151919
    28  H    0.155180
    29  H    0.155219
    30  H    0.160278
    31  C   -0.298497
    32  C   -0.299977
    33  C   -0.481820
    34  H    0.149642
    35  H    0.149556
    36  H    0.151997
    37  H    0.151634
    38  H    0.154071
    39  H    0.165776
    40  H    0.158752
 Sum of Mulliken charges =  -0.00000

 Dipole moment (field-independent basis, Debye):
    X=              0.0235    Y=              0.0002    Z=              0.0015  Tot=              0.0235
 Quadrupole moment (field-independent basis, Debye-Ang):
   XX=            -86.2620   YY=            -83.8630   ZZ=            -84.8991
   XY=             -0.8691   XZ=             -0.2479   YZ=             -0.3738

 Normal termination of Gaussian 16 at Wed May  5 19:51:16 2021.
