 Gaussian 16, Revision A.03,
 Gaussian 16:  EM64L-G16RevA.03 25-Dec-2016

 -------------
 #p 6-31g* mp2
 -------------

 ------------------------------------------------------
 Input file generated by CHIRIPA (05-May-2021 14:55:20)
 ------------------------------------------------------
 Symbolic Z-matrix:
 Charge =  0 Multiplicity = 1

                         Standard orientation:
 ---------------------------------------------------------------------
 Center     Atomic      Atomic             Coordinates (Angstroms)
 Number     Number       Type             X           Y           Z
 ---------------------------------------------------------------------
      1          6           0        0.540798   -1.386788    0.329127
      2          6           0        1.612358   -1.638703    1.192157
      3          6           0        2.829939   -0.972118    1.025700
      4          6           0        2.941600   -0.055902   -0.018986
      5          6           0        1.892338    0.216756   -0.895341
      6          6           0        0.683956   -0.461494   -0.710035
      7          1           0       -0.401475   -1.909138    0.465755
      8          1           0        1.504044   -2.356773    2.000048
      9          1           0        3.675704   -1.148022    1.679273
     10          1           0        2.030494    0.938097   -1.691581
     11          1           0       -0.146533   -0.263850   -1.381801
     12          7           0        4.225729    0.655956   -0.205183
     13          8           0        4.298620    1.458472   -1.133241
     14          8           0        5.135025    0.397915    0.580459
     15          6           0       -3.595022   -0.497344    0.222156
     16          6           0       -3.284111   -1.539446   -0.852713
     17          6           0       -3.490215   -2.973216   -0.363206
     18          1           0       -2.958404   -0.682299    1.098201
     19          1           0       -4.633458   -0.625494    0.557748
     20          1           0       -2.246997   -1.408475   -1.187165
     21          1           0       -3.921407   -1.351871   -1.726374
     22          1           0       -4.527227   -3.127286   -0.047816
     23          1           0       -2.843303   -3.184212    0.494457
     24          1           0       -3.262304   -3.701848   -1.147432
     25          6           0       -3.393676    0.940800   -0.252111
     26          6           0       -3.704586    1.982902    0.822757
     27          6           0       -3.498481    3.416673    0.333251
     28          1           0       -2.355240    1.068950   -0.587703
     29          1           0       -4.030293    1.125755   -1.128156
     30          1           0       -3.067291    1.795327    1.696419
     31          1           0       -4.741701    1.851932    1.157209
     32          1           0       -4.145394    3.627668   -0.524412
     33          1           0       -2.461470    3.570743    0.017861
     34          1           0       -3.726394    4.145305    1.117477
 ---------------------------------------------------------------------

 SCF Done:  E(RHF) =  -669.534829732     A.U. after   15 cycles
 E2 =    -0.2093138555D+01 EUMP2 =    -0.67162796828732D+03

 The electronic state is 1-A.
 Alpha  occ. eigenvalues --  -20.60760 -20.60755 -15.85814 -11.31183 -11.27758
 Alpha  occ. eigenvalues --  -11.27754 -11.27469 -11.26763 -11.26741 -11.22932
 Alpha  occ. eigenvalues --  -11.22490 -11.22329 -11.22328 -11.22260 -11.21591
 Alpha  occ. eigenvalues --   -1.59836  -1.39389  -1.19357  -1.09471  -1.08745
 Alpha  occ. eigenvalues --   -1.04764  -1.04501  -0.96926  -0.95585  -0.87943
 Alpha  occ. eigenvalues --   -0.86169  -0.82419  -0.80596  -0.79240  -0.77465
 Alpha  occ. eigenvalues --   -0.72033  -0.71159  -0.70524  -0.66215  -0.65001
 Alpha  occ. eigenvalues --   -0.64693  -0.62158  -0.61849  -0.60312  -0.58523
 Alpha  occ. eigenvalues --   -0.56259  -0.55202  -0.53612  -0.53338  -0.53078
 Alpha  occ. eigenvalues --   -0.52869  -0.50897  -0.48885  -0.48795  -0.48785
 Alpha  occ. eigenvalues --   -0.47657  -0.46748  -0.46655  -0.44794  -0.44743
 Alpha  occ. eigenvalues --   -0.37329  -0.36363
 Alpha virt. eigenvalues --    0.05063   0.11185   0.16505   0.18439   0.22704
 Alpha virt. eigenvalues --    0.22993   0.24503   0.25591   0.27025   0.28610
 Alpha virt. eigenvalues --    0.29292   0.30281   0.30931   0.31140   0.31985

 Mulliken charges:
               1
     1  C   -0.176776
     2  C   -0.220078
     3  C   -0.170500
     4  C    0.158395
     5  C   -0.170988
     6  C   -0.225763
     7  H    0.234405
     8  H    0.223634
     9  H    0.275612
    10  H    0.275789
    11  H    0.229135
    12  N    0.487954
    13  O   -0.460384
    14  O   -0.460380
    15  C   -0.299751
    16  C   -0.308206
    17  C   -0.477342
    18  H    0.146885
    19  H    0.155089
    20  H    0.143627
    21  H    0.159647
    22  H    0.162116
    23  H    0.148791
    24  H    0.164929
    25  C   -0.300659
    26  C   -0.300279
    27  C   -0.476574
    28  H    0.146015
    29  H    0.152368
    30  H    0.153787
    31  H    0.153693
    32  H    0.155986
    33  H    0.156540
    34  H    0.163281
 Sum of Mulliken charges =  -0.00000

 Dipole moment (field-independent basis, Debye):
    X=             -4.7637    Y=             -2.4597    Z=              0.6719  Tot=              5.4032
 Quadrupole moment (field-independent basis, Debye-Ang):
   XX=           -119.1938   YY=            -94.6759   ZZ=            -91.9290
   XY=             -8.3390   XZ=              4.1419   YZ=             -1.9066

 Normal termination of Gaussian 16 at Thu May  6 20:41:10 2021.
