 Gaussian 16, Revision A.03,
 Gaussian 16:  EM64L-G16RevA.03 25-Dec-2016

 -------------
 #p 6-31g* mp2
 -------------

 ------------------------------------------------------
 Input file generated by CHIRIPA (05-May-2021 14:55:20)
 ------------------------------------------------------
 Symbolic Z-matrix:
 Charge =  0 Multiplicity = 1

                         Standard orientation:
 ---------------------------------------------------------------------
 Center     Atomic      Atomic             Coordinates (Angstroms)
 Number     Number       Type             X           Y           Z
 ---------------------------------------------------------------------
      1          6           0       -1.930849    1.940963    0.359680
      2          6           0       -3.257715    2.366419    0.237475
      3          6           0       -4.281956    1.441810    0.012585
      4          6           0       -3.942039    0.093412   -0.085245
      5          6           0       -2.629599   -0.361591    0.032071
      6          6           0       -1.621571    0.580713    0.256769
      7          1           0       -1.141491    2.666094    0.534305
      8          1           0       -3.500843    3.422173    0.316962
      9          1           0       -5.317597    1.743733   -0.085939
     10          1           0       -2.418204   -1.420697   -0.051748
     11          1           0       -0.591992    0.247421    0.351265
     12          7           0       -5.017775   -0.894797   -0.323224
     13          8           0       -4.692164   -2.077099   -0.405544
     14          8           0       -6.166180   -0.468342   -0.422927
     15          6           0        4.316853   -0.605993    0.563041
     16          6           0        2.931258   -0.853336   -0.034399
     17          6           0        1.938008   -1.409381    0.986416
     18          1           0        4.703487   -1.546849    0.978072
     19          1           0        4.225641    0.093236    1.405747
     20          1           0        3.025243   -1.550815   -0.876602
     21          1           0        2.547959    0.088177   -0.448226
     22          1           0        1.814738   -0.713474    1.822549
     23          1           0        2.294734   -2.361778    1.391740
     24          1           0        0.954046   -1.578739    0.538090
     25          6           0        5.320894   -0.050086   -0.445222
     26          6           0        6.706489    0.197257    0.152218
     27          6           0        7.699738    0.753302   -0.868596
     28          1           0        5.412106   -0.749315   -1.287929
     29          1           0        4.934260    0.890770   -0.860252
     30          1           0        7.089788   -0.744255    0.566045
     31          1           0        6.612505    0.894737    0.994420
     32          1           0        7.343014    1.705700   -1.273920
     33          1           0        7.823009    0.057395   -1.704730
     34          1           0        8.683700    0.922660   -0.420271
 ---------------------------------------------------------------------

 SCF Done:  E(RHF) =  -669.535402676     A.U. after   15 cycles
 E2 =    -0.2090974675D+01 EUMP2 =    -0.67162637735118D+03

 The electronic state is 1-A.
 Alpha  occ. eigenvalues --  -20.60719 -20.60714 -15.85771 -11.31130 -11.27695
 Alpha  occ. eigenvalues --  -11.27684 -11.27431 -11.26716 -11.26647 -11.22521
 Alpha  occ. eigenvalues --  -11.22176 -11.22107 -11.22085 -11.21954 -11.21479
 Alpha  occ. eigenvalues --   -1.59794  -1.39348  -1.19296  -1.09120  -1.08694
 Alpha  occ. eigenvalues --   -1.04700  -1.04250  -0.96709  -0.95532  -0.87728
 Alpha  occ. eigenvalues --   -0.86094  -0.82365  -0.80314  -0.78893  -0.77415
 Alpha  occ. eigenvalues --   -0.71990  -0.71117  -0.70412  -0.65758  -0.64949
 Alpha  occ. eigenvalues --   -0.64727  -0.62132  -0.61612  -0.60077  -0.58298
 Alpha  occ. eigenvalues --   -0.55988  -0.55201  -0.53488  -0.53153  -0.53028
 Alpha  occ. eigenvalues --   -0.52661  -0.50627  -0.48748  -0.48746  -0.48623
 Alpha  occ. eigenvalues --   -0.47341  -0.46443  -0.46346  -0.44755  -0.44493
 Alpha  occ. eigenvalues --   -0.37280  -0.36298
 Alpha virt. eigenvalues --    0.05119   0.11348   0.16614   0.19596   0.22516
 Alpha virt. eigenvalues --    0.23682   0.25896   0.26030   0.26848   0.27588
 Alpha virt. eigenvalues --    0.28875   0.30645   0.30833   0.31134   0.31688

 Mulliken charges:
               1
     1  C   -0.172635
     2  C   -0.218300
     3  C   -0.171427
     4  C    0.158821
     5  C   -0.173635
     6  C   -0.226096
     7  H    0.225357
     8  H    0.223032
     9  H    0.275353
    10  H    0.275010
    11  H    0.236241
    12  N    0.488111
    13  O   -0.460492
    14  O   -0.460692
    15  C   -0.298793
    16  C   -0.301527
    17  C   -0.481166
    18  H    0.152661
    19  H    0.149308
    20  H    0.156842
    21  H    0.147843
    22  H    0.154953
    23  H    0.164138
    24  H    0.153385
    25  C   -0.298686
    26  C   -0.300155
    27  C   -0.476034
    28  H    0.151400
    29  H    0.148921
    30  H    0.153290
    31  H    0.151922
    32  H    0.155106
    33  H    0.156246
    34  H    0.161699
 Sum of Mulliken charges =  -0.00000

 Dipole moment (field-independent basis, Debye):
    X=              4.0466    Y=              3.4251    Z=              0.8522  Tot=              5.3696
 Quadrupole moment (field-independent basis, Debye-Ang):
   XX=           -122.4943   YY=            -90.7677   ZZ=            -96.1066
   XY=            -17.1782   XZ=             -3.1517   YZ=              0.2064

 Normal termination of Gaussian 16 at Thu May  6 10:50:00 2021.
