 Gaussian 16, Revision A.03,
 Gaussian 16:  EM64L-G16RevA.03 25-Dec-2016

 -------------
 #p 6-31g* mp2
 -------------

 ------------------------------------------------------
 Input file generated by CHIRIPA (05-May-2021 14:53:14)
 ------------------------------------------------------
 Symbolic Z-matrix:
 Charge =  0 Multiplicity = 1

                         Standard orientation:
 ---------------------------------------------------------------------
 Center     Atomic      Atomic             Coordinates (Angstroms)
 Number     Number       Type             X           Y           Z
 ---------------------------------------------------------------------
      1          6           0       -4.205940   -0.663679    0.448725
      2          6           0       -2.829168    0.000403    0.410257
      3          6           0       -1.735947   -0.868897    1.032333
      4          1           0       -4.466476   -0.892811    1.491109
      5          1           0       -4.156149   -1.625780   -0.079743
      6          1           0       -2.881885    0.961605    0.937445
      7          1           0       -2.571963    0.228154   -0.632140
      8          1           0       -1.654249   -1.823213    0.502042
      9          1           0       -1.965932   -1.085595    2.080546
     10          1           0       -0.760015   -0.374970    0.994228
     11          6           0       -5.309305    0.193117   -0.169511
     12          6           0       -6.686077   -0.470965   -0.131043
     13          6           0       -7.779298    0.398335   -0.753119
     14          1           0       -5.359096    1.155217    0.358957
     15          1           0       -5.048769    0.422248   -1.211895
     16          1           0       -6.943282   -0.698716    0.911354
     17          1           0       -6.633360   -1.432167   -0.658231
     18          1           0       -7.549313    0.615033   -1.801332
     19          1           0       -7.860996    1.352651   -0.222828
     20          1           0       -8.755230   -0.095593   -0.715014
     21          6           0        5.397576   -1.692003   -0.259193
     22          6           0        5.832236   -0.376333   -0.067881
     23          6           0        4.909921    0.670910    0.016784
     24          6           0        3.554411    0.365161   -0.094554
     25          6           0        3.090173   -0.935344   -0.285505
     26          6           0        4.030342   -1.966826   -0.367204
     27          1           0        6.120986   -2.499405   -0.323811
     28          1           0        6.893427   -0.159948    0.016346
     29          1           0        5.218913    1.698575    0.164591
     30          1           0        2.025797   -1.119920   -0.365837
     31          1           0        3.689896   -2.987638   -0.515812
     32          7           0        2.568546    1.465487   -0.006493
     33          8           0        1.379850    1.169843   -0.107647
     34          8           0        3.003191    2.602733    0.162016
 ---------------------------------------------------------------------

 SCF Done:  E(RHF) =  -669.536219353     A.U. after   15 cycles
 E2 =    -0.2090818686D+01 EUMP2 =    -0.67162703803896D+03

 The electronic state is 1-A.
 Alpha  occ. eigenvalues --  -20.60922 -20.60905 -15.85953 -11.31259 -11.27826
 Alpha  occ. eigenvalues --  -11.27815 -11.27563 -11.26832 -11.26820 -11.21196
 Alpha  occ. eigenvalues --  -11.20867 -11.20794 -11.20738 -11.20714 -11.20226
 Alpha  occ. eigenvalues --   -1.59979  -1.39536  -1.19430  -1.08837  -1.07851
 Alpha  occ. eigenvalues --   -1.04824  -1.02922  -0.95684  -0.95386  -0.86419
 Alpha  occ. eigenvalues --   -0.86226  -0.82515  -0.79001  -0.77648  -0.77568
 Alpha  occ. eigenvalues --   -0.72182  -0.71292  -0.70539  -0.65088  -0.64828
 Alpha  occ. eigenvalues --   -0.64491  -0.62173  -0.60334  -0.58741  -0.56957
 Alpha  occ. eigenvalues --   -0.55332  -0.54707  -0.53158  -0.52918  -0.52059
 Alpha  occ. eigenvalues --   -0.51813  -0.49370  -0.48929  -0.48923  -0.47304
 Alpha  occ. eigenvalues --   -0.46048  -0.45197  -0.45120  -0.44945  -0.43158
 Alpha  occ. eigenvalues --   -0.37411  -0.36425
 Alpha virt. eigenvalues --    0.04935   0.11225   0.16419   0.21153   0.23374
 Alpha virt. eigenvalues --    0.24590   0.26889   0.27219   0.27683   0.28071
 Alpha virt. eigenvalues --    0.29081   0.30659   0.31739   0.31944   0.32381

 Mulliken charges:
               1
     1  C   -0.297900
     2  C   -0.296448
     3  C   -0.488333
     4  H    0.147565
     5  H    0.146009
     6  H    0.155428
     7  H    0.154824
     8  H    0.144646
     9  H    0.150436
    10  H    0.182705
    11  C   -0.297913
    12  C   -0.299091
    13  C   -0.475409
    14  H    0.150317
    15  H    0.149708
    16  H    0.151029
    17  H    0.150370
    18  H    0.154934
    19  H    0.155376
    20  H    0.158672
    21  C   -0.170529
    22  C   -0.218641
    23  C   -0.170858
    24  C    0.157777
    25  C   -0.171369
    26  C   -0.218888
    27  H    0.225888
    28  H    0.223679
    29  H    0.275687
    30  H    0.277783
    31  H    0.224031
    32  N    0.491984
    33  O   -0.464497
    34  O   -0.458972
 Sum of Mulliken charges =  -0.00000

 Dipole moment (field-independent basis, Debye):
    X=              3.7049    Y=             -3.7472    Z=             -0.3284  Tot=              5.2798
 Quadrupole moment (field-independent basis, Debye-Ang):
   XX=            -68.9385   YY=            -96.0098   ZZ=            -94.9526
   XY=             -9.9165   XZ=             -1.4050   YZ=              1.4762

 Normal termination of Gaussian 16 at Thu May  6 17:06:51 2021.
