 Gaussian 16, Revision A.03,
 Gaussian 16:  EM64L-G16RevA.03 25-Dec-2016

 -------------
 #p 6-31g* mp2
 -------------

 ------------------------------------------------------
 Input file generated by CHIRIPA (05-May-2021 14:57:23)
 ------------------------------------------------------
 Symbolic Z-matrix:
 Charge =  0 Multiplicity = 1

                         Standard orientation:
 ---------------------------------------------------------------------
 Center     Atomic      Atomic             Coordinates (Angstroms)
 Number     Number       Type             X           Y           Z
 ---------------------------------------------------------------------
      1          6           0        6.060494    0.724194    0.666284
      2          6           0        4.910664    1.043569    1.395950
      3          6           0        3.664037    0.539684    1.013106
      4          6           0        3.603461   -0.284391   -0.109623
      5          6           0        4.730997   -0.620758   -0.857158
      6          6           0        5.967155   -0.105487   -0.455963
      7          1           0        7.024837    1.120047    0.970814
      8          1           0        4.980154    1.687673    2.267928
      9          1           0        2.757936    0.770903    1.559857
     10          1           0        4.630132   -1.265325   -1.721899
     11          1           0        6.858457   -0.355197   -1.024532
     12          7           0        2.289254   -0.823858   -0.524637
     13          8           0        2.262560   -1.547765   -1.517554
     14          8           0        1.310758   -0.512571    0.150850
     15          6           0       -2.968731    2.491840   -0.565325
     16          6           0       -2.066468    1.476212   -0.232243
     17          6           0       -2.526895    0.200083    0.105470
     18          6           0       -3.902361   -0.026523    0.099863
     19          6           0       -4.826365    0.964640   -0.227400
     20          6           0       -4.343377    2.233267   -0.561847
     21          1           0       -2.602298    3.480254   -0.826400
     22          1           0       -0.998357    1.674154   -0.234105
     23          1           0       -1.850502   -0.604474    0.367386
     24          1           0       -5.885387    0.737096   -0.216702
     25          1           0       -5.046404    3.020099   -0.820098
     26          7           0       -4.401736   -1.373533    0.455656
     27          8           0       -5.618356   -1.547655    0.443251
     28          8           0       -3.567071   -2.229692    0.740194
 ---------------------------------------------------------------------

 SCF Done:  E(RHF) =  -868.339905503     A.U. after   16 cycles
 E2 =    -0.2598806092D+01 EUMP2 =    -0.87093871159432D+03

 The electronic state is 1-A.
 Alpha  occ. eigenvalues --  -20.61625 -20.61561 -20.59805 -20.59776 -15.86619
 Alpha  occ. eigenvalues --  -15.84840 -11.31772 -11.30090 -11.28333 -11.28290
 Alpha  occ. eigenvalues --  -11.28007 -11.27284 -11.27259 -11.26760 -11.26487
 Alpha  occ. eigenvalues --  -11.26465 -11.25791 -11.25549  -1.60640  -1.58873
 Alpha  occ. eigenvalues --   -1.40205  -1.38425  -1.19921  -1.18280  -1.09352
 Alpha  occ. eigenvalues --   -1.07725  -1.05292  -1.03634  -0.96224  -0.94559
 Alpha  occ. eigenvalues --   -0.86699  -0.85064  -0.83069  -0.81368  -0.78140
 Alpha  occ. eigenvalues --   -0.76408  -0.72851  -0.71940  -0.71064  -0.71024
 Alpha  occ. eigenvalues --   -0.70195  -0.69411  -0.65578  -0.65289  -0.63927
 Alpha  occ. eigenvalues --   -0.63642  -0.62642  -0.60940  -0.55794  -0.54229
 Alpha  occ. eigenvalues --   -0.53631  -0.53379  -0.52027  -0.51714  -0.49610
 Alpha  occ. eigenvalues --   -0.49561  -0.47829  -0.47805  -0.45647  -0.43854
 Alpha  occ. eigenvalues --   -0.37885  -0.36886  -0.36328  -0.35243
 Alpha virt. eigenvalues --    0.04360   0.06081   0.10772   0.12386   0.15878
 Alpha virt. eigenvalues --    0.17567   0.20886   0.22510   0.26827   0.27502
 Alpha virt. eigenvalues --    0.28628   0.29345   0.30577   0.31745   0.32426

 Mulliken charges:
               1
     1  C   -0.170001
     2  C   -0.218413
     3  C   -0.171363
     4  C    0.157736
     5  C   -0.170127
     6  C   -0.218478
     7  H    0.227632
     8  H    0.224848
     9  H    0.273502
    10  H    0.277305
    11  H    0.225608
    12  N    0.491667
    13  O   -0.452661
    14  O   -0.473104
    15  C   -0.171841
    16  C   -0.222713
    17  C   -0.173793
    18  C    0.157447
    19  C   -0.172275
    20  C   -0.219613
    21  H    0.220183
    22  H    0.229968
    23  H    0.293176
    24  H    0.271962
    25  H    0.218644
    26  N    0.487752
    27  O   -0.465431
    28  O   -0.457617
 Sum of Mulliken charges =  -0.00000

 Dipole moment (field-independent basis, Debye):
    X=              7.0108    Y=              6.4540    Z=              0.1790  Tot=              9.5308
 Quadrupole moment (field-independent basis, Debye-Ang):
   XX=            -80.8004   YY=           -106.1097   ZZ=           -103.4630
   XY=            -15.4943   XZ=              8.5740   YZ=              1.9955

 Normal termination of Gaussian 16 at Fri May  7 07:58:05 2021.
