 Gaussian 16, Revision A.03,
 Gaussian 16:  EM64L-G16RevA.03 25-Dec-2016

 -------------
 #p 6-31g* mp2
 -------------

 ------------------------------------------------------
 Input file generated by CHIRIPA (05-May-2021 14:55:22)
 ------------------------------------------------------
 Symbolic Z-matrix:
 Charge =  0 Multiplicity = 1

                         Standard orientation:
 ---------------------------------------------------------------------
 Center     Atomic      Atomic             Coordinates (Angstroms)
 Number     Number       Type             X           Y           Z
 ---------------------------------------------------------------------
      1          6           0        0.699354   -0.863876    0.197402
      2          6           0        1.008808    0.199524   -0.656964
      3          6           0        2.322171    0.667140   -0.761654
      4          6           0        3.305699    0.045312    0.006000
      5          6           0        3.028912   -1.016160    0.866208
      6          6           0        1.708614   -1.467260    0.954925
      7          1           0       -0.323591   -1.220717    0.272523
      8          1           0        0.227040    0.670031   -1.246461
      9          1           0        2.589561    1.488641   -1.415150
     10          1           0        3.829681   -1.465049    1.441262
     11          1           0        1.471205   -2.293294    1.619267
     12          7           0        4.699768    0.531614   -0.096375
     13          8           0        5.548136   -0.033218    0.590555
     14          8           0        4.917675    1.468401   -0.861609
     15          6           0       -3.599530   -0.524116   -0.411353
     16          6           0       -4.018440   -1.912622    0.072953
     17          6           0       -3.334468   -3.039942   -0.701079
     18          1           0       -3.832236   -0.430169   -1.480917
     19          1           0       -2.509146   -0.424667   -0.318797
     20          1           0       -5.107867   -2.008922   -0.019193
     21          1           0       -3.784884   -2.003207    1.141533
     22          1           0       -2.246495   -2.972047   -0.599554
     23          1           0       -3.576994   -2.977796   -1.766874
     24          1           0       -3.648294   -4.023780   -0.338539
     25          6           0       -4.274874    0.613298    0.352797
     26          6           0       -3.855965    2.001804   -0.131509
     27          6           0       -4.539937    3.129124    0.642524
     28          1           0       -5.365259    0.513849    0.260241
     29          1           0       -4.042168    0.519351    1.422361
     30          1           0       -4.089521    2.092389   -1.200088
     31          1           0       -2.766538    2.098104   -0.039362
     32          1           0       -4.297409    3.066978    1.708319
     33          1           0       -5.627909    3.061230    0.540998
     34          1           0       -4.226111    4.112962    0.279983
 ---------------------------------------------------------------------

 SCF Done:  E(RHF) =  -669.535363040     A.U. after   15 cycles
 E2 =    -0.2091778602D+01 EUMP2 =    -0.67162714164113D+03

 The electronic state is 1-A.
 Alpha  occ. eigenvalues --  -20.60744 -20.60739 -15.85797 -11.31164 -11.27731
 Alpha  occ. eigenvalues --  -11.27727 -11.27452 -11.26748 -11.26733 -11.22691
 Alpha  occ. eigenvalues --  -11.22604 -11.22463 -11.22311 -11.22178 -11.21727
 Alpha  occ. eigenvalues --   -1.59819  -1.39373  -1.19334  -1.09466  -1.08729
 Alpha  occ. eigenvalues --   -1.04737  -1.04486  -0.96933  -0.95568  -0.87942
 Alpha  occ. eigenvalues --   -0.86135  -0.82402  -0.80555  -0.79287  -0.77443
 Alpha  occ. eigenvalues --   -0.72015  -0.71142  -0.70485  -0.66110  -0.64985
 Alpha  occ. eigenvalues --   -0.64730  -0.62084  -0.61887  -0.60305  -0.58538
 Alpha  occ. eigenvalues --   -0.56239  -0.55261  -0.53587  -0.53351  -0.53065
 Alpha  occ. eigenvalues --   -0.52827  -0.50882  -0.48862  -0.48770  -0.48769
 Alpha  occ. eigenvalues --   -0.47594  -0.46803  -0.46725  -0.44778  -0.44755
 Alpha  occ. eigenvalues --   -0.37314  -0.36342
 Alpha virt. eigenvalues --    0.05079   0.11294   0.16536   0.18308   0.22697
 Alpha virt. eigenvalues --    0.22850   0.24893   0.25862   0.26567   0.27891
 Alpha virt. eigenvalues --    0.29337   0.30518   0.30903   0.31242   0.31770

 Mulliken charges:
               1
     1  C   -0.178605
     2  C   -0.222255
     3  C   -0.170732
     4  C    0.158335
     5  C   -0.170675
     6  C   -0.219544
     7  H    0.235790
     8  H    0.224869
     9  H    0.275612
    10  H    0.275486
    11  H    0.223666
    12  N    0.488000
    13  O   -0.460458
    14  O   -0.460458
    15  C   -0.302565
    16  C   -0.301465
    17  C   -0.477366
    18  H    0.153761
    19  H    0.139062
    20  H    0.157570
    21  H    0.151774
    22  H    0.147528
    23  H    0.159614
    24  H    0.165103
    25  C   -0.298278
    26  C   -0.300577
    27  C   -0.476231
    28  H    0.153624
    29  H    0.151131
    30  H    0.153148
    31  H    0.148354
    32  H    0.156865
    33  H    0.157115
    34  H    0.162803
 Sum of Mulliken charges =  -0.00000

 Dipole moment (field-independent basis, Debye):
    X=             -5.1904    Y=             -1.6940    Z=              0.3601  Tot=              5.4717
 Quadrupole moment (field-independent basis, Debye-Ang):
   XX=           -125.7107   YY=            -93.4152   ZZ=            -92.7167
   XY=             -6.6415   XZ=              3.0322   YZ=             -3.0376

 Normal termination of Gaussian 16 at Wed May  5 22:16:38 2021.
