 Gaussian 16, Revision A.03,
 Gaussian 16:  EM64L-G16RevA.03 25-Dec-2016

 -------------
 #p 6-31g* mp2
 -------------

 ------------------------------------------------------
 Input file generated by CHIRIPA (05-May-2021 14:51:12)
 ------------------------------------------------------
 Symbolic Z-matrix:
 Charge =  0 Multiplicity = 1

                         Standard orientation:
 ---------------------------------------------------------------------
 Center     Atomic      Atomic             Coordinates (Angstroms)
 Number     Number       Type             X           Y           Z
 ---------------------------------------------------------------------
      1          6           0        3.663022   -0.061357   -0.252934
      2          6           0        2.484081   -0.434676    0.646353
      3          6           0        1.134928   -0.032899    0.049566
      4          1           0        3.648811    1.022058   -0.434472
      5          1           0        3.535709   -0.544004   -1.231830
      6          1           0        2.614285    0.047417    1.623722
      7          1           0        2.501211   -1.517300    0.825927
      8          1           0        0.978983   -0.524764   -0.916017
      9          1           0        1.092700    1.048843   -0.113689
     10          1           0        0.306087   -0.309121    0.708797
     11          6           0        5.018611   -0.456578    0.330082
     12          6           0        6.197551   -0.083259   -0.569204
     13          6           0        7.546705   -0.485036    0.027582
     14          1           0        5.145923    0.026069    1.308979
     15          1           0        5.032821   -1.539992    0.511620
     16          1           0        6.180421    0.999366   -0.748779
     17          1           0        6.067347   -0.565351   -1.546573
     18          1           0        7.588933   -1.566778    0.190838
     19          1           0        7.702650    0.006829    0.993165
     20          1           0        8.375546   -0.208813   -0.631648
     21          6           0       -3.633108    0.487519   -0.212770
     22          6           0       -3.327830    1.915165    0.241787
     23          6           0       -1.908246    2.357986   -0.113858
     24          1           0       -2.907818   -0.199175    0.244777
     25          1           0       -3.487530    0.417167   -1.299624
     26          1           0       -3.475277    1.983151    1.327261
     27          1           0       -4.054049    2.598516   -0.216744
     28          1           0       -1.752347    2.318619   -1.196793
     29          1           0       -1.170286    1.699757    0.355984
     30          1           0       -1.711393    3.381449    0.220254
     31          6           0       -5.048525    0.030415    0.135621
     32          6           0       -5.353803   -1.397230   -0.318935
     33          6           0       -6.773387   -1.840052    0.036710
     34          1           0       -5.194102    0.100766    1.222476
     35          1           0       -5.773816    0.717110   -0.321926
     36          1           0       -4.627584   -2.080583    0.139596
     37          1           0       -5.206355   -1.465217   -1.404408
     38          1           0       -7.511346   -1.181822   -0.433133
     39          1           0       -6.929287   -1.800684    1.119644
     40          1           0       -6.970239   -2.863516   -0.297403
 ---------------------------------------------------------------------

 SCF Done:  E(RHF) =  -470.732589222     A.U. after   11 cycles
 E2 =    -0.1582768784D+01 EUMP2 =    -0.47231535800628D+03

 The electronic state is 1-A.
 Alpha  occ. eigenvalues --  -11.21603 -11.21602 -11.21569 -11.21508 -11.21409
 Alpha  occ. eigenvalues --  -11.21351 -11.21349 -11.21289 -11.21072 -11.21069
 Alpha  occ. eigenvalues --  -11.21046 -11.20863  -1.08436  -1.08367  -1.03551
 Alpha  occ. eigenvalues --   -1.03446  -0.96032  -0.95870  -0.87089  -0.86855
 Alpha  occ. eigenvalues --   -0.79688  -0.79448  -0.78256  -0.78168  -0.65074
 Alpha  occ. eigenvalues --   -0.64997  -0.61008  -0.60815  -0.59406  -0.59239
 Alpha  occ. eigenvalues --   -0.57607  -0.57522  -0.55431  -0.55073  -0.52810
 Alpha  occ. eigenvalues --   -0.52608  -0.52461  -0.52179  -0.50081  -0.49674
 Alpha  occ. eigenvalues --   -0.47975  -0.47766  -0.46700  -0.46461  -0.45823
 Alpha  occ. eigenvalues --   -0.45725  -0.45670  -0.45622  -0.43757  -0.43708
 Alpha virt. eigenvalues --    0.22131   0.22971   0.23678   0.24766   0.26180
 Alpha virt. eigenvalues --    0.26553   0.26989   0.27403   0.27838   0.29107
 Alpha virt. eigenvalues --    0.30428   0.31055   0.31734   0.31842   0.32088

 Mulliken charges:
               1
     1  C   -0.298717
     2  C   -0.299760
     3  C   -0.479133
     4  H    0.150043
     5  H    0.149575
     6  H    0.151844
     7  H    0.151733
     8  H    0.155931
     9  H    0.159836
    10  H    0.159715
    11  C   -0.298288
    12  C   -0.299653
    13  C   -0.475708
    14  H    0.149525
    15  H    0.149638
    16  H    0.152003
    17  H    0.151940
    18  H    0.155162
    19  H    0.155183
    20  H    0.160273
    21  C   -0.298620
    22  C   -0.299486
    23  C   -0.483281
    24  H    0.149783
    25  H    0.149539
    26  H    0.151073
    27  H    0.151258
    28  H    0.154307
    29  H    0.166389
    30  H    0.158431
    31  C   -0.298231
    32  C   -0.299561
    33  C   -0.475662
    34  H    0.149280
    35  H    0.149624
    36  H    0.151786
    37  H    0.151883
    38  H    0.155142
    39  H    0.155096
    40  H    0.160106
 Sum of Mulliken charges =  -0.00000

 Dipole moment (field-independent basis, Debye):
    X=              0.0536    Y=             -0.0123    Z=             -0.0086  Tot=              0.0557
 Quadrupole moment (field-independent basis, Debye-Ang):
   XX=            -86.9838   YY=            -84.2175   ZZ=            -83.8919
   XY=             -0.1776   XZ=              0.2078   YZ=              0.2707

 Normal termination of Gaussian 16 at Wed May  5 16:47:42 2021.
