 Gaussian 16, Revision A.03,
 Gaussian 16:  EM64L-G16RevA.03 25-Dec-2016

 -------------
 #p 6-31g* mp2
 -------------

 ------------------------------------------------------
 Input file generated by CHIRIPA (05-May-2021 14:53:17)
 ------------------------------------------------------
 Symbolic Z-matrix:
 Charge =  0 Multiplicity = 1

                         Standard orientation:
 ---------------------------------------------------------------------
 Center     Atomic      Atomic             Coordinates (Angstroms)
 Number     Number       Type             X           Y           Z
 ---------------------------------------------------------------------
      1          6           0       -2.773580    0.939124   -0.219756
      2          6           0       -3.004821    2.346629    0.331099
      3          6           0       -1.987895    3.361016   -0.192996
      4          1           0       -1.758276    0.611739    0.042774
      5          1           0       -2.817877    0.970578   -1.317227
      6          1           0       -2.961477    2.312283    1.427255
      7          1           0       -4.019760    2.670626    0.067392
      8          1           0       -2.035025    3.424770   -1.284928
      9          1           0       -0.970729    3.064391    0.082662
     10          1           0       -2.171746    4.360447    0.213446
     11          6           0       -3.782259   -0.086195    0.295040
     12          6           0       -3.551018   -1.493701   -0.255815
     13          6           0       -4.567944   -2.508087    0.268280
     14          1           0       -3.737963   -0.117649    1.392512
     15          1           0       -4.797563    0.241190    0.032510
     16          1           0       -2.536080   -1.817697    0.007892
     17          1           0       -3.594363   -1.459355   -1.351971
     18          1           0       -5.585111   -2.211462   -0.007377
     19          1           0       -4.520815   -2.571841    1.360212
     20          1           0       -4.384094   -3.507519   -0.138161
     21          6           0        3.381547    2.049766    0.088970
     22          6           0        4.265468    0.992321    0.327743
     23          6           0        3.821762   -0.331959    0.264843
     24          6           0        2.481535   -0.563549   -0.040853
     25          6           0        1.576515    0.468545   -0.283771
     26          6           0        2.042252    1.784970   -0.215488
     27          1           0        3.734785    3.075447    0.139923
     28          1           0        5.306123    1.194983    0.564407
     29          1           0        4.484581   -1.169537    0.445261
     30          1           0        0.544844    0.235109   -0.517394
     31          1           0        1.353535    2.604210   -0.401387
     32          7           0        2.000142   -1.961347   -0.110291
     33          8           0        0.814584   -2.138857   -0.381547
     34          8           0        2.817498   -2.852962    0.107854
 ---------------------------------------------------------------------

 SCF Done:  E(RHF) =  -669.535512950     A.U. after   15 cycles
 E2 =    -0.2092601878D+01 EUMP2 =    -0.67162811482784D+03

 The electronic state is 1-A.
 Alpha  occ. eigenvalues --  -20.60809 -20.60803 -15.85855 -11.31178 -11.27753
 Alpha  occ. eigenvalues --  -11.27713 -11.27483 -11.26761 -11.26717 -11.22036
 Alpha  occ. eigenvalues --  -11.21861 -11.21684 -11.21289 -11.21069 -11.20598
 Alpha  occ. eigenvalues --   -1.59878  -1.39433  -1.19350  -1.08753  -1.08521
 Alpha  occ. eigenvalues --   -1.04749  -1.03575  -0.96093  -0.95594  -0.87120
 Alpha  occ. eigenvalues --   -0.86145  -0.82431  -0.79710  -0.78254  -0.77459
 Alpha  occ. eigenvalues --   -0.72073  -0.71197  -0.70466  -0.65173  -0.65000
 Alpha  occ. eigenvalues --   -0.64775  -0.62130  -0.60935  -0.59506  -0.57655
 Alpha  occ. eigenvalues --   -0.55435  -0.55256  -0.53080  -0.53003  -0.52732
 Alpha  occ. eigenvalues --   -0.52370  -0.50036  -0.48836  -0.48831  -0.47986
 Alpha  occ. eigenvalues --   -0.46734  -0.45780  -0.45625  -0.44837  -0.43831
 Alpha  occ. eigenvalues --   -0.37331  -0.36345
 Alpha virt. eigenvalues --    0.05025   0.11269   0.16483   0.19709   0.23079
 Alpha virt. eigenvalues --    0.24045   0.25084   0.26013   0.26996   0.28489
 Alpha virt. eigenvalues --    0.29675   0.30778   0.31455   0.32013   0.32166

 Mulliken charges:
               1
     1  C   -0.305144
     2  C   -0.298682
     3  C   -0.481258
     4  H    0.148796
     5  H    0.150406
     6  H    0.154219
     7  H    0.155380
     8  H    0.156901
     9  H    0.146034
    10  H    0.163500
    11  C   -0.297591
    12  C   -0.305855
    13  C   -0.475864
    14  H    0.149927
    15  H    0.148894
    16  H    0.169767
    17  H    0.150905
    18  H    0.151740
    19  H    0.154567
    20  H    0.163917
    21  C   -0.171008
    22  C   -0.218794
    23  C   -0.170292
    24  C    0.158228
    25  C   -0.181496
    26  C   -0.227390
    27  H    0.226094
    28  H    0.223383
    29  H    0.275497
    30  H    0.287952
    31  H    0.231229
    32  N    0.488489
    33  O   -0.462494
    34  O   -0.459956
 Sum of Mulliken charges =  -0.00000

 Dipole moment (field-independent basis, Debye):
    X=              1.6158    Y=              4.8191    Z=              0.2534  Tot=              5.0891
 Quadrupole moment (field-independent basis, Debye-Ang):
   XX=            -82.0034   YY=           -100.8818   ZZ=            -94.8636
   XY=              9.0543   XZ=              2.4107   YZ=             -0.6593

 Normal termination of Gaussian 16 at Thu May  6 04:24:25 2021.
