 Gaussian 16, Revision A.03,
 Gaussian 16:  EM64L-G16RevA.03 25-Dec-2016

 -------------
 #p 6-31g* mp2
 -------------

 ------------------------------------------------------
 Input file generated by CHIRIPA (05-May-2021 14:51:14)
 ------------------------------------------------------
 Symbolic Z-matrix:
 Charge =  0 Multiplicity = 1

                         Standard orientation:
 ---------------------------------------------------------------------
 Center     Atomic      Atomic             Coordinates (Angstroms)
 Number     Number       Type             X           Y           Z
 ---------------------------------------------------------------------
      1          6           0        3.271316    0.080187   -0.085830
      2          6           0        4.682535   -0.005163    0.496546
      3          6           0        5.310058   -1.388874    0.325225
      4          1           0        2.635850   -0.674563    0.397370
      5          1           0        3.306484   -0.177876   -1.153332
      6          1           0        4.644927    0.254329    1.562316
      7          1           0        5.314666    0.750006    0.012041
      8          1           0        5.376755   -1.653021   -0.735143
      9          1           0        4.703210   -2.151513    0.823941
     10          1           0        6.318595   -1.427525    0.748568
     11          6           0        2.630708    1.457355    0.077747
     12          6           0        1.219489    1.542705   -0.504629
     13          6           0        0.591966    2.926416   -0.333307
     14          1           0        2.595540    1.715418    1.145250
     15          1           0        3.266174    2.212104   -0.405452
     16          1           0        0.587358    0.787536   -0.020123
     17          1           0        1.257097    1.283212   -1.570399
     18          1           0        1.198814    3.689055   -0.832023
     19          1           0        0.525269    3.190562    0.727060
     20          1           0       -0.416571    2.965067   -0.756650
     21          6           0       -2.304120   -1.067865    0.278825
     22          6           0       -1.459863   -1.768744   -0.786062
     23          6           0       -0.168919   -2.361969   -0.220961
     24          1           0       -1.707240   -0.272630    0.746028
     25          1           0       -2.546902   -1.785201    1.074992
     26          1           0       -1.219911   -1.050662   -1.580667
     27          1           0       -2.058887   -2.562278   -1.250917
     28          1           0       -0.391985   -3.098772    0.557477
     29          1           0        0.451758   -1.578567    0.225853
     30          1           0        0.419233   -2.858181   -0.999235
     31          6           0       -3.597903   -0.469676   -0.270743
     32          6           0       -4.442161    0.231202    0.794145
     33          6           0       -5.733106    0.824428    0.229043
     34          1           0       -3.355122    0.247659   -1.066910
     35          1           0       -4.194785   -1.264912   -0.737945
     36          1           0       -3.843137    1.024736    1.258999
     37          1           0       -4.682114   -0.486880    1.588749
     38          1           0       -6.353782    0.041025   -0.217771
     39          1           0       -5.510040    1.561230   -0.549394
     40          1           0       -6.321258    1.320639    1.007317
 ---------------------------------------------------------------------

 SCF Done:  E(RHF) =  -470.732332985     A.U. after   11 cycles
 E2 =    -0.1584445623D+01 EUMP2 =    -0.47231677860743D+03

 The electronic state is 1-A.
 Alpha  occ. eigenvalues --  -11.21647 -11.21600 -11.21594 -11.21568 -11.21422
 Alpha  occ. eigenvalues --  -11.21406 -11.21347 -11.21344 -11.21138 -11.21069
 Alpha  occ. eigenvalues --  -11.21053 -11.20999  -1.08484  -1.08402  -1.03577
 Alpha  occ. eigenvalues --   -1.03498  -0.96018  -0.95956  -0.87025  -0.86983
 Alpha  occ. eigenvalues --   -0.79629  -0.79592  -0.78339  -0.78179  -0.65292
 Alpha  occ. eigenvalues --   -0.64903  -0.61092  -0.60800  -0.59381  -0.59307
 Alpha  occ. eigenvalues --   -0.57657  -0.57551  -0.55399  -0.55176  -0.52709
 Alpha  occ. eigenvalues --   -0.52664  -0.52439  -0.52376  -0.50014  -0.49878
 Alpha  occ. eigenvalues --   -0.48034  -0.47863  -0.46848  -0.46607  -0.45994
 Alpha  occ. eigenvalues --   -0.45784  -0.45705  -0.45166  -0.43804  -0.43770
 Alpha virt. eigenvalues --    0.20470   0.22946   0.23855   0.24540   0.25670
 Alpha virt. eigenvalues --    0.26463   0.26674   0.27648   0.28730   0.29408
 Alpha virt. eigenvalues --    0.30785   0.31209   0.31703   0.31929   0.32176

 Mulliken charges:
               1
     1  C   -0.303926
     2  C   -0.299156
     3  C   -0.475763
     4  H    0.155854
     5  H    0.149561
     6  H    0.151741
     7  H    0.151811
     8  H    0.155136
     9  H    0.155710
    10  H    0.160143
    11  C   -0.298154
    12  C   -0.308594
    13  C   -0.475322
    14  H    0.149130
    15  H    0.149846
    16  H    0.160111
    17  H    0.152183
    18  H    0.155708
    19  H    0.155124
    20  H    0.159644
    21  C   -0.301797
    22  C   -0.300145
    23  C   -0.482858
    24  H    0.151545
    25  H    0.149528
    26  H    0.153519
    27  H    0.152086
    28  H    0.154395
    29  H    0.162076
    30  H    0.160569
    31  C   -0.298001
    32  C   -0.299801
    33  C   -0.475684
    34  H    0.149462
    35  H    0.149742
    36  H    0.152100
    37  H    0.151863
    38  H    0.155169
    39  H    0.155170
    40  H    0.160274
 Sum of Mulliken charges =  -0.00000

 Dipole moment (field-independent basis, Debye):
    X=              0.0168    Y=             -0.0021    Z=             -0.0047  Tot=              0.0175
 Quadrupole moment (field-independent basis, Debye-Ang):
   XX=            -85.7136   YY=            -85.1164   ZZ=            -83.9928
   XY=              1.5320   XZ=             -0.6729   YZ=             -0.3490

 Normal termination of Gaussian 16 at Thu May  6 02:26:02 2021.
