 Gaussian 16, Revision A.03,
 Gaussian 16:  EM64L-G16RevA.03 25-Dec-2016

 -------------
 #p 6-31g* mp2
 -------------

 ------------------------------------------------------
 Input file generated by CHIRIPA (05-May-2021 14:57:27)
 ------------------------------------------------------
 Symbolic Z-matrix:
 Charge =  0 Multiplicity = 1

                         Standard orientation:
 ---------------------------------------------------------------------
 Center     Atomic      Atomic             Coordinates (Angstroms)
 Number     Number       Type             X           Y           Z
 ---------------------------------------------------------------------
      1          6           0        0.887505    1.283137    1.225467
      2          6           0        1.234550    0.031762    1.745219
      3          6           0        2.333818   -0.667594    1.238209
      4          6           0        3.067248   -0.083304    0.206716
      5          6           0        2.746649    1.161736   -0.332153
      6          6           0        1.643330    1.843143    0.190264
      7          1           0        0.031994    1.819441    1.625309
      8          1           0        0.649381   -0.405583    2.549179
      9          1           0        2.624698   -1.637897    1.622029
     10          1           0        3.349093    1.572031   -1.133488
     11          1           0        1.376138    2.814816   -0.215327
     12          7           0        4.233138   -0.814180   -0.338188
     13          8           0        4.863149   -0.277746   -1.247013
     14          8           0        4.494875   -1.909634    0.153859
     15          6           0       -1.932083    2.284556   -0.590320
     16          6           0       -1.509168    1.246229   -1.426705
     17          6           0       -2.024894   -0.044102   -1.273012
     18          6           0       -2.966262   -0.261607   -0.268120
     19          6           0       -3.407546    0.752101    0.580970
     20          6           0       -2.878254    2.034620    0.409086
     21          1           0       -1.526186    3.283882   -0.716778
     22          1           0       -0.774482    1.437419   -2.203704
     23          1           0       -1.715067   -0.866296   -1.906590
     24          1           0       -4.141210    0.530801    1.346595
     25          1           0       -3.208537    2.839075    1.060093
     26          7           0       -3.519418   -1.623486   -0.095783
     27          8           0       -4.347674   -1.789180    0.797064
     28          8           0       -3.114253   -2.499448   -0.856815
 ---------------------------------------------------------------------

 SCF Done:  E(RHF) =  -868.335286269     A.U. after   16 cycles
 E2 =    -0.2603907074D+01 EUMP2 =    -0.87093919334257D+03

 The electronic state is 1-A.
 Alpha  occ. eigenvalues --  -20.61425 -20.61406 -20.61011 -20.60997 -15.86474
 Alpha  occ. eigenvalues --  -15.86068 -11.32020 -11.31481 -11.28622 -11.28504
 Alpha  occ. eigenvalues --  -11.28397 -11.28158 -11.28061 -11.27797 -11.27714
 Alpha  occ. eigenvalues --  -11.27580 -11.27191 -11.27010  -1.60491  -1.60084
 Alpha  occ. eigenvalues --   -1.40038  -1.39636  -1.20219  -1.19688  -1.09623
 Alpha  occ. eigenvalues --   -1.09047  -1.05616  -1.05119  -0.96406  -0.95877
 Alpha  occ. eigenvalues --   -0.87030  -0.86504  -0.83203  -0.82728  -0.78204
 Alpha  occ. eigenvalues --   -0.77770  -0.72686  -0.72284  -0.71823  -0.71414
 Alpha  occ. eigenvalues --   -0.71365  -0.70793  -0.65862  -0.65636  -0.65342
 Alpha  occ. eigenvalues --   -0.65126  -0.62938  -0.62469  -0.56178  -0.55733
 Alpha  occ. eigenvalues --   -0.54227  -0.53697  -0.53217  -0.53056  -0.49462
 Alpha  occ. eigenvalues --   -0.49432  -0.49048  -0.49032  -0.45403  -0.45031
 Alpha  occ. eigenvalues --   -0.38692  -0.37633  -0.36994  -0.36433
 Alpha virt. eigenvalues --    0.04250   0.04811   0.09898   0.11363   0.15626
 Alpha virt. eigenvalues --    0.16241   0.19377   0.21857   0.25429   0.26519
 Alpha virt. eigenvalues --    0.27902   0.28975   0.29708   0.31052   0.32077

 Mulliken charges:
               1
     1  C   -0.160668
     2  C   -0.221874
     3  C   -0.168984
     4  C    0.157299
     5  C   -0.173691
     6  C   -0.222518
     7  H    0.225028
     8  H    0.226435
     9  H    0.278507
    10  H    0.274322
    11  H    0.213048
    12  N    0.488133
    13  O   -0.461558
    14  O   -0.458074
    15  C   -0.181067
    16  C   -0.207596
    17  C   -0.169164
    18  C    0.158561
    19  C   -0.173138
    20  C   -0.224857
    21  H    0.222485
    22  H    0.225934
    23  H    0.280181
    24  H    0.277392
    25  H    0.224325
    26  N    0.487470
    27  O   -0.459664
    28  O   -0.456266
 Sum of Mulliken charges =  -0.00000

 Dipole moment (field-independent basis, Debye):
    X=             -2.2793    Y=              7.0835    Z=              1.2778  Tot=              7.5501
 Quadrupole moment (field-independent basis, Debye-Ang):
   XX=           -141.1245   YY=           -105.7312   ZZ=            -99.3356
   XY=             -6.8792   XZ=              3.5555   YZ=             -2.1457

 Normal termination of Gaussian 16 at Thu May  6 21:24:44 2021.
