 Gaussian 16, Revision A.03,
 Gaussian 16:  EM64L-G16RevA.03 25-Dec-2016

 -------------
 #p 6-31g* mp2
 -------------

 ------------------------------------------------------
 Input file generated by CHIRIPA (05-May-2021 14:55:25)
 ------------------------------------------------------
 Symbolic Z-matrix:
 Charge =  0 Multiplicity = 1

                         Standard orientation:
 ---------------------------------------------------------------------
 Center     Atomic      Atomic             Coordinates (Angstroms)
 Number     Number       Type             X           Y           Z
 ---------------------------------------------------------------------
      1          6           0       -0.589842   -1.291609    2.195212
      2          6           0       -0.333379   -1.909086    0.966607
      3          6           0       -1.045633   -1.536999   -0.177418
      4          6           0       -2.011660   -0.539310   -0.056181
      5          6           0       -2.290158    0.094600    1.153731
      6          6           0       -1.565693   -0.293496    2.284694
      7          1           0       -0.031803   -1.586873    3.078845
      8          1           0        0.423903   -2.684534    0.894146
      9          1           0       -0.867362   -1.998527   -1.141072
     10          1           0       -3.051133    0.864443    1.194696
     11          1           0       -1.766991    0.187775    3.237534
     12          7           0       -2.772156   -0.136924   -1.260396
     13          8           0       -3.618095    0.744711   -1.127188
     14          8           0       -2.507893   -0.710788   -2.314664
     15          6           0        2.959098    0.414478   -0.577998
     16          6           0        3.210979   -1.015423   -0.098495
     17          6           0        4.303198   -1.724014   -0.900213
     18          1           0        2.681341    0.394489   -1.640730
     19          1           0        3.894704    0.986698   -0.510171
     20          1           0        2.274847   -1.584395   -0.165903
     21          1           0        3.487981   -0.992043    0.963267
     22          1           0        5.250847   -1.181144   -0.823692
     23          1           0        4.030820   -1.776862   -1.959277
     24          1           0        4.466930   -2.744694   -0.540681
     25          6           0        1.869885    1.135930    0.213741
     26          6           0        1.618004    2.565832   -0.265761
     27          6           0        0.525785    3.274422    0.535956
     28          1           0        0.934279    0.563711    0.145914
     29          1           0        2.147641    1.155920    1.276472
     30          1           0        1.341001    2.542451   -1.327523
     31          1           0        2.554136    3.134803   -0.198354
     32          1           0        0.798164    3.327270    1.595021
     33          1           0       -0.421864    2.731552    0.459436
     34          1           0        0.362052    4.295103    0.176424
 ---------------------------------------------------------------------

 SCF Done:  E(RHF) =  -669.533500086     A.U. after   15 cycles
 E2 =    -0.2096478732D+01 EUMP2 =    -0.67162997881869D+03

 The electronic state is 1-A.
 Alpha  occ. eigenvalues --  -20.60884 -20.60879 -15.85938 -11.31346 -11.27899
 Alpha  occ. eigenvalues --  -11.27860 -11.27580 -11.26911 -11.26854 -11.22085
 Alpha  occ. eigenvalues --  -11.21605 -11.21592 -11.21497 -11.21344 -11.21087
 Alpha  occ. eigenvalues --   -1.59960  -1.39511  -1.19519  -1.08894  -1.08616
 Alpha  occ. eigenvalues --   -1.04917  -1.03754  -0.96181  -0.95715  -0.87210
 Alpha  occ. eigenvalues --   -0.86295  -0.82553  -0.79864  -0.78443  -0.77591
 Alpha  occ. eigenvalues --   -0.72150  -0.71289  -0.70579  -0.65343  -0.65133
 Alpha  occ. eigenvalues --   -0.64884  -0.62288  -0.61135  -0.59569  -0.57811
 Alpha  occ. eigenvalues --   -0.55502  -0.55366  -0.53457  -0.53031  -0.52840
 Alpha  occ. eigenvalues --   -0.52559  -0.50131  -0.48918  -0.48906  -0.48158
 Alpha  occ. eigenvalues --   -0.46909  -0.45944  -0.45678  -0.44905  -0.43973
 Alpha  occ. eigenvalues --   -0.37451  -0.36399
 Alpha virt. eigenvalues --    0.04900   0.11036   0.16295   0.20728   0.22911
 Alpha virt. eigenvalues --    0.23760   0.26135   0.26680   0.27614   0.28252
 Alpha virt. eigenvalues --    0.28381   0.30076   0.31248   0.31648   0.32341

 Mulliken charges:
               1
     1  C   -0.169854
     2  C   -0.214071
     3  C   -0.177585
     4  C    0.161292
     5  C   -0.172354
     6  C   -0.215975
     7  H    0.226551
     8  H    0.225763
     9  H    0.275918
    10  H    0.276653
    11  H    0.224684
    12  N    0.487989
    13  O   -0.459846
    14  O   -0.460127
    15  C   -0.298094
    16  C   -0.301532
    17  C   -0.475546
    18  H    0.152253
    19  H    0.150030
    20  H    0.145261
    21  H    0.148024
    22  H    0.157568
    23  H    0.157618
    24  H    0.157268
    25  C   -0.305265
    26  C   -0.300077
    27  C   -0.476395
    28  H    0.162672
    29  H    0.143113
    30  H    0.155403
    31  H    0.150723
    32  H    0.150353
    33  H    0.155375
    34  H    0.162210
 Sum of Mulliken charges =  -0.00000

 Dipole moment (field-independent basis, Debye):
    X=              2.5585    Y=             -1.4397    Z=              4.2436  Tot=              5.1602
 Quadrupole moment (field-independent basis, Debye-Ang):
   XX=           -105.1296   YY=            -91.9319   ZZ=            -93.8457
   XY=              0.2326   XZ=             -9.7311   YZ=             -0.4361

 Normal termination of Gaussian 16 at Wed May  5 17:40:05 2021.
