 Gaussian 16, Revision A.03,
 Gaussian 16:  EM64L-G16RevA.03 25-Dec-2016

 -------------
 #p 6-31g* mp2
 -------------

 ------------------------------------------------------
 Input file generated by CHIRIPA (05-May-2021 14:53:12)
 ------------------------------------------------------
 Symbolic Z-matrix:
 Charge =  0 Multiplicity = 1

                         Standard orientation:
 ---------------------------------------------------------------------
 Center     Atomic      Atomic             Coordinates (Angstroms)
 Number     Number       Type             X           Y           Z
 ---------------------------------------------------------------------
      1          6           0       -4.895678   -0.108342    0.187533
      2          6           0       -5.420220   -1.334384   -0.560572
      3          6           0       -6.833954   -1.728437   -0.131770
      4          1           0       -4.909659   -0.311690    1.267070
      5          1           0       -5.579353    0.735310    0.019503
      6          1           0       -4.735019   -2.175100   -0.392307
      7          1           0       -5.404808   -1.128164   -1.638464
      8          1           0       -7.535037   -0.907869   -0.315486
      9          1           0       -6.861442   -1.960755    0.937751
     10          1           0       -7.189220   -2.607146   -0.679051
     11          6           0       -3.483514    0.297903   -0.230183
     12          6           0       -2.958972    1.523945    0.517922
     13          6           0       -1.545238    1.917998    0.089120
     14          1           0       -2.799839   -0.545749   -0.062153
     15          1           0       -3.469533    0.501251   -1.309719
     16          1           0       -2.974384    1.317725    1.595815
     17          1           0       -3.644173    2.364661    0.349658
     18          1           0       -1.517750    2.150315   -0.980401
     19          1           0       -0.844155    1.097430    0.272837
     20          1           0       -1.189972    2.796707    0.636402
     21          6           0        2.074870    2.145261   -0.052528
     22          6           0        1.984892    1.336331    1.085038
     23          6           0        2.644640    0.104731    1.134456
     24          6           0        3.388965   -0.288602    0.023349
     25          6           0        3.497851    0.494975   -1.124449
     26          6           0        2.829732    1.722746   -1.151703
     27          1           0        1.559111    3.100511   -0.082309
     28          1           0        1.399375    1.661907    1.940148
     29          1           0        2.591957   -0.541263    2.002405
     30          1           0        4.089089    0.143499   -1.961301
     31          1           0        2.901390    2.348902   -2.036486
     32          7           0        4.091841   -1.590415    0.063934
     33          8           0        4.741205   -1.914208   -0.928095
     34          8           0        3.980082   -2.262332    1.087004
 ---------------------------------------------------------------------

 SCF Done:  E(RHF) =  -669.534836644     A.U. after   15 cycles
 E2 =    -0.2092073270D+01 EUMP2 =    -0.67162690991391D+03

 The electronic state is 1-A.
 Alpha  occ. eigenvalues --  -20.60745 -20.60740 -15.85800 -11.31154 -11.27731
 Alpha  occ. eigenvalues --  -11.27725 -11.27437 -11.26726 -11.26707 -11.22180
 Alpha  occ. eigenvalues --  -11.21839 -11.21829 -11.21808 -11.21692 -11.21261
 Alpha  occ. eigenvalues --   -1.59822  -1.39375  -1.19334  -1.08841  -1.08718
 Alpha  occ. eigenvalues --   -1.04741  -1.03966  -0.96443  -0.95552  -0.87472
 Alpha  occ. eigenvalues --   -0.86124  -0.82392  -0.80043  -0.78618  -0.77444
 Alpha  occ. eigenvalues --   -0.72018  -0.71146  -0.70425  -0.65469  -0.64981
 Alpha  occ. eigenvalues --   -0.64739  -0.62096  -0.61355  -0.59835  -0.58033
 Alpha  occ. eigenvalues --   -0.55746  -0.55222  -0.53380  -0.53041  -0.52818
 Alpha  occ. eigenvalues --   -0.52663  -0.50343  -0.48775  -0.48772  -0.48345
 Alpha  occ. eigenvalues --   -0.47051  -0.46169  -0.46072  -0.44784  -0.44229
 Alpha  occ. eigenvalues --   -0.37235  -0.36323
 Alpha virt. eigenvalues --    0.05077   0.11269   0.16518   0.20607   0.22601
 Alpha virt. eigenvalues --    0.24002   0.26255   0.26429   0.27149   0.27563
 Alpha virt. eigenvalues --    0.28637   0.30557   0.31021   0.31580   0.32048

 Mulliken charges:
               1
     1  C   -0.298594
     2  C   -0.300136
     3  C   -0.475952
     4  H    0.149983
     5  H    0.149599
     6  H    0.153447
     7  H    0.152260
     8  H    0.155060
     9  H    0.155567
    10  H    0.161505
    11  C   -0.298983
    12  C   -0.299955
    13  C   -0.481001
    14  H    0.151636
    15  H    0.150274
    16  H    0.151358
    17  H    0.152565
    18  H    0.155521
    19  H    0.164195
    20  H    0.148470
    21  C   -0.165607
    22  C   -0.218839
    23  C   -0.173007
    24  C    0.158346
    25  C   -0.170829
    26  C   -0.219810
    27  H    0.227366
    28  H    0.224639
    29  H    0.275275
    30  H    0.275471
    31  H    0.223321
    32  N    0.488134
    33  O   -0.460552
    34  O   -0.460726
 Sum of Mulliken charges =  -0.00000

 Dipole moment (field-independent basis, Debye):
    X=             -2.5513    Y=              4.5431    Z=             -0.1806  Tot=              5.2136
 Quadrupole moment (field-independent basis, Debye-Ang):
   XX=           -112.3637   YY=            -97.9455   ZZ=            -90.1515
   XY=             16.3346   XZ=             -1.8854   YZ=             -1.1546

 Normal termination of Gaussian 16 at Thu May  6 13:39:14 2021.
