 Gaussian 16, Revision A.03,
 Gaussian 16:  EM64L-G16RevA.03 25-Dec-2016

 -------------
 #p 6-31g* mp2
 -------------

 ------------------------------------------------------
 Input file generated by CHIRIPA (05-May-2021 14:51:13)
 ------------------------------------------------------
 Symbolic Z-matrix:
 Charge =  0 Multiplicity = 1

                         Standard orientation:
 ---------------------------------------------------------------------
 Center     Atomic      Atomic             Coordinates (Angstroms)
 Number     Number       Type             X           Y           Z
 ---------------------------------------------------------------------
      1          6           0        3.393208    0.511526   -0.101185
      2          6           0        1.957726   -0.011454   -0.163383
      3          6           0        0.923217    1.110654   -0.255353
      4          1           0        3.496266    1.179109    0.765219
      5          1           0        3.592256    1.122879   -0.992264
      6          1           0        1.761889   -0.622777    0.726868
      7          1           0        1.858123   -0.678021   -1.029630
      8          1           0        1.090373    1.716193   -1.152004
      9          1           0        0.993592    1.771751    0.614474
     10          1           0       -0.096081    0.714410   -0.298736
     11          6           0        4.438866   -0.598351   -0.008989
     12          6           0        5.874348   -0.075371    0.053209
     13          6           0        6.908857   -1.197480    0.145179
     14          1           0        4.239818   -1.209704    0.882090
     15          1           0        4.335808   -1.265934   -0.875393
     16          1           0        5.973951    0.591196    0.919456
     17          1           0        6.070185    0.535952   -0.837043
     18          1           0        6.838482   -1.858576   -0.724649
     19          1           0        6.741701   -1.803018    1.041830
     20          1           0        7.928155   -0.801236    0.188561
     21          6           0       -4.455971   -0.449572   -0.165975
     22          6           0       -4.199120   -1.881487    0.304804
     23          6           0       -5.287928   -2.856022   -0.145279
     24          1           0       -5.430377   -0.114347    0.214950
     25          1           0       -4.528498   -0.438917   -1.262342
     26          1           0       -4.125723   -1.889218    1.399870
     27          1           0       -3.225127   -2.213274   -0.077126
     28          1           0       -5.357768   -2.877904   -1.237636
     29          1           0       -6.263481   -2.552007    0.247751
     30          1           0       -5.084392   -3.873739    0.202116
     31          6           0       -3.376103    0.536398    0.276150
     32          6           0       -3.632954    1.968312   -0.194630
     33          6           0       -2.544146    2.942847    0.255453
     34          1           0       -3.303576    0.525742    1.372517
     35          1           0       -2.401698    0.201172   -0.104775
     36          1           0       -4.606947    2.300100    0.187300
     37          1           0       -3.706351    1.976045   -1.289695
     38          1           0       -1.568593    2.638832   -0.137576
     39          1           0       -2.474306    2.964729    1.347811
     40          1           0       -2.747682    3.960564   -0.091941
 ---------------------------------------------------------------------

 SCF Done:  E(RHF) =  -470.732390956     A.U. after   11 cycles
 E2 =    -0.1583382431D+01 EUMP2 =    -0.47231577338679D+03

 The electronic state is 1-A.
 Alpha  occ. eigenvalues --  -11.21619 -11.21607 -11.21596 -11.21539 -11.21415
 Alpha  occ. eigenvalues --  -11.21389 -11.21355 -11.21330 -11.21081 -11.21076
 Alpha  occ. eigenvalues --  -11.21066 -11.20890  -1.08448  -1.08402  -1.03566
 Alpha  occ. eigenvalues --   -1.03469  -0.96026  -0.95913  -0.87065  -0.86919
 Alpha  occ. eigenvalues --   -0.79699  -0.79479  -0.78271  -0.78208  -0.65072
 Alpha  occ. eigenvalues --   -0.65059  -0.60947  -0.60925  -0.59491  -0.59181
 Alpha  occ. eigenvalues --   -0.57622  -0.57540  -0.55287  -0.55232  -0.52797
 Alpha  occ. eigenvalues --   -0.52623  -0.52503  -0.52244  -0.49944  -0.49868
 Alpha  occ. eigenvalues --   -0.47932  -0.47851  -0.46643  -0.46579  -0.45798
 Alpha  occ. eigenvalues --   -0.45762  -0.45717  -0.45696  -0.43757  -0.43658
 Alpha virt. eigenvalues --    0.21828   0.23027   0.23667   0.24774   0.26116
 Alpha virt. eigenvalues --    0.26630   0.26891   0.27212   0.27900   0.29083
 Alpha virt. eigenvalues --    0.30757   0.30854   0.31365   0.31860   0.32037

 Mulliken charges:
               1
     1  C   -0.298813
     2  C   -0.299711
     3  C   -0.484332
     4  H    0.149850
     5  H    0.149502
     6  H    0.152337
     7  H    0.151499
     8  H    0.154949
     9  H    0.156968
    10  H    0.167073
    11  C   -0.298273
    12  C   -0.299615
    13  C   -0.475705
    14  H    0.149585
    15  H    0.149581
    16  H    0.152003
    17  H    0.151927
    18  H    0.155157
    19  H    0.155205
    20  H    0.160287
    21  C   -0.297567
    22  C   -0.299667
    23  C   -0.475687
    24  H    0.149813
    25  H    0.149414
    26  H    0.151922
    27  H    0.151723
    28  H    0.155170
    29  H    0.155208
    30  H    0.160221
    31  C   -0.304982
    32  C   -0.299185
    33  C   -0.484222
    34  H    0.149580
    35  H    0.154769
    36  H    0.151583
    37  H    0.151305
    38  H    0.167967
    39  H    0.153948
    40  H    0.159214
 Sum of Mulliken charges =  -0.00000

 Dipole moment (field-independent basis, Debye):
    X=              0.0316    Y=             -0.0023    Z=              0.0019  Tot=              0.0317
 Quadrupole moment (field-independent basis, Debye-Ang):
   XX=            -85.9241   YY=            -86.0081   ZZ=            -83.0479
   XY=              0.0105   XZ=             -0.7232   YZ=              0.0273

 Normal termination of Gaussian 16 at Wed May  5 23:14:22 2021.
