 Gaussian 16, Revision A.03,
 Gaussian 16:  EM64L-G16RevA.03 25-Dec-2016

 -------------
 #p 6-31g* mp2
 -------------

 ------------------------------------------------------
 Input file generated by CHIRIPA (05-May-2021 14:53:13)
 ------------------------------------------------------
 Symbolic Z-matrix:
 Charge =  0 Multiplicity = 1

                         Standard orientation:
 ---------------------------------------------------------------------
 Center     Atomic      Atomic             Coordinates (Angstroms)
 Number     Number       Type             X           Y           Z
 ---------------------------------------------------------------------
      1          6           0        2.037025   -0.258915    1.148642
      2          6           0        1.248125   -1.568697    1.158354
      3          6           0        0.114591   -1.568459    2.184461
      4          1           0        2.448197   -0.078485    2.151302
      5          1           0        1.350645    0.572882    0.937950
      6          1           0        1.936027   -2.397928    1.367596
      7          1           0        0.838944   -1.746127    0.155505
      8          1           0       -0.594194   -0.760695    1.975317
      9          1           0        0.509122   -1.416200    3.194295
     10          1           0       -0.436205   -2.514177    2.174436
     11          6           0        3.173607   -0.243834    0.128014
     12          6           0        3.962508    1.065948    0.118302
     13          6           0        5.096041    1.065710   -0.907805
     14          1           0        3.859987   -1.075631    0.338706
     15          1           0        2.762436   -0.424264   -0.874647
     16          1           0        4.371689    1.243378    1.121151
     17          1           0        3.274606    1.895179   -0.090940
     18          1           0        4.701511    0.913451   -1.917639
     19          1           0        5.804827    0.257946   -0.698661
     20          1           0        5.646837    2.011428   -0.897780
     21          6           0       -1.144141   -1.768355   -1.806885
     22          6           0       -0.656598   -0.481472   -2.057391
     23          6           0       -1.143151    0.614513   -1.338620
     24          6           0       -2.121567    0.386330   -0.372223
     25          6           0       -2.627343   -0.883764   -0.099565
     26          6           0       -2.126227   -1.965048   -0.830494
     27          1           0       -0.760518   -2.614032   -2.369966
     28          1           0        0.106098   -0.325739   -2.815078
     29          1           0       -0.783379    1.621416   -1.512194
     30          1           0       -3.387694   -1.007612    0.661976
     31          1           0       -2.506712   -2.963342   -0.633815
     32          7           0       -2.644369    1.538818    0.395143
     33          8           0       -3.506305    1.311284    1.241270
     34          8           0       -2.182303    2.647850    0.135947
 ---------------------------------------------------------------------

 SCF Done:  E(RHF) =  -669.533146838     A.U. after   15 cycles
 E2 =    -0.2096988106D+01 EUMP2 =    -0.67163013494419D+03

 The electronic state is 1-A.
 Alpha  occ. eigenvalues --  -20.60902 -20.60891 -15.85951 -11.31330 -11.27950
 Alpha  occ. eigenvalues --  -11.27910 -11.27654 -11.26928 -11.26905 -11.21787
 Alpha  occ. eigenvalues --  -11.21624 -11.21518 -11.21404 -11.21316 -11.21028
 Alpha  occ. eigenvalues --   -1.59974  -1.39526  -1.19554  -1.08941  -1.08548
 Alpha  occ. eigenvalues --   -1.04946  -1.03635  -0.96105  -0.95756  -0.87120
 Alpha  occ. eigenvalues --   -0.86337  -0.82577  -0.79713  -0.78375  -0.77616
 Alpha  occ. eigenvalues --   -0.72166  -0.71314  -0.70642  -0.65247  -0.65184
 Alpha  occ. eigenvalues --   -0.64930  -0.62280  -0.61154  -0.59487  -0.57722
 Alpha  occ. eigenvalues --   -0.55547  -0.55436  -0.53101  -0.53022  -0.52745
 Alpha  occ. eigenvalues --   -0.52484  -0.50089  -0.48929  -0.48921  -0.47991
 Alpha  occ. eigenvalues --   -0.46818  -0.45912  -0.45863  -0.44915  -0.43904
 Alpha  occ. eigenvalues --   -0.37350  -0.36459
 Alpha virt. eigenvalues --    0.04877   0.10957   0.16284   0.20746   0.22901
 Alpha virt. eigenvalues --    0.24005   0.25918   0.26676   0.27358   0.28280
 Alpha virt. eigenvalues --    0.28665   0.30357   0.31289   0.31645   0.31942

 Mulliken charges:
               1
     1  C   -0.298365
     2  C   -0.306454
     3  C   -0.473564
     4  H    0.151281
     5  H    0.150888
     6  H    0.148034
     7  H    0.157135
     8  H    0.157781
     9  H    0.155833
    10  H    0.152092
    11  C   -0.297210
    12  C   -0.300091
    13  C   -0.475161
    14  H    0.149454
    15  H    0.140860
    16  H    0.154594
    17  H    0.152589
    18  H    0.151135
    19  H    0.155430
    20  H    0.162024
    21  C   -0.175509
    22  C   -0.216848
    23  C   -0.170850
    24  C    0.159083
    25  C   -0.170070
    26  C   -0.211752
    27  H    0.227250
    28  H    0.224668
    29  H    0.276349
    30  H    0.276710
    31  H    0.224548
    32  N    0.487949
    33  O   -0.459562
    34  O   -0.460250
 Sum of Mulliken charges =  -0.00000

 Dipole moment (field-independent basis, Debye):
    X=              1.6867    Y=             -4.0212    Z=             -2.7449  Tot=              5.1526
 Quadrupole moment (field-independent basis, Debye-Ang):
   XX=           -101.5196   YY=            -96.4101   ZZ=            -92.0672
   XY=             11.4628   XZ=              4.5081   YZ=             -1.1599

 Normal termination of Gaussian 16 at Thu May  6 04:10:14 2021.
