 Gaussian 16, Revision A.03,
 Gaussian 16:  EM64L-G16RevA.03 25-Dec-2016

 -------------
 #p 6-31g* mp2
 -------------

 ------------------------------------------------------
 Input file generated by CHIRIPA (05-May-2021 14:57:25)
 ------------------------------------------------------
 Symbolic Z-matrix:
 Charge =  0 Multiplicity = 1

                         Standard orientation:
 ---------------------------------------------------------------------
 Center     Atomic      Atomic             Coordinates (Angstroms)
 Number     Number       Type             X           Y           Z
 ---------------------------------------------------------------------
      1          6           0        1.809108    1.853658   -0.710945
      2          6           0        1.369343    0.608221   -0.250495
      3          6           0        2.287789   -0.400698    0.054613
      4          6           0        3.644678   -0.128659   -0.113123
      5          6           0        4.113966    1.101942   -0.569940
      6          6           0        3.177603    2.096116   -0.868920
      7          1           0        1.088678    2.631683   -0.945580
      8          1           0        0.307160    0.417106   -0.126853
      9          1           0        1.974815   -1.373926    0.412792
     10          1           0        5.179212    1.262757   -0.683113
     11          1           0        3.522009    3.062390   -1.226333
     12          7           0        4.626480   -1.188951    0.206637
     13          8           0        5.816490   -0.924212    0.050351
     14          8           0        4.187414   -2.264669    0.607496
     15          6           0       -2.427235    2.031146    1.133637
     16          6           0       -3.499535    2.141150    0.242237
     17          6           0       -4.092168    0.996985   -0.300187
     18          6           0       -3.584920   -0.246910    0.072259
     19          6           0       -2.517867   -0.389238    0.957940
     20          6           0       -1.940681    0.768529    1.488018
     21          1           0       -1.972864    2.925242    1.550209
     22          1           0       -3.879478    3.120412   -0.034772
     23          1           0       -4.923458    1.053270   -0.992434
     24          1           0       -2.161030   -1.379137    1.215203
     25          1           0       -1.108040    0.680071    2.180065
     26          7           0       -4.204137   -1.465385   -0.495445
     27          8           0       -3.738753   -2.549672   -0.151386
     28          8           0       -5.143138   -1.313067   -1.273722
 ---------------------------------------------------------------------

 SCF Done:  E(RHF) =  -868.336888451     A.U. after   16 cycles
 E2 =    -0.2601345841D+01 EUMP2 =    -0.87093823429189D+03

 The electronic state is 1-A.
 Alpha  occ. eigenvalues --  -20.61495 -20.61490 -20.61001 -20.60995 -15.86557
 Alpha  occ. eigenvalues --  -15.86054 -11.32171 -11.31496 -11.28775 -11.28718
 Alpha  occ. eigenvalues --  -11.28534 -11.28059 -11.28055 -11.27830 -11.27820
 Alpha  occ. eigenvalues --  -11.27782 -11.27108 -11.26971  -1.60567  -1.60075
 Alpha  occ. eigenvalues --   -1.40113  -1.39626  -1.20378  -1.19667  -1.09717
 Alpha  occ. eigenvalues --   -1.09052  -1.05817  -1.05072  -0.96502  -0.95878
 Alpha  occ. eigenvalues --   -0.87180  -0.86465  -0.83333  -0.82701  -0.78340
 Alpha  occ. eigenvalues --   -0.77733  -0.72765  -0.72270  -0.71897  -0.71437
 Alpha  occ. eigenvalues --   -0.71400  -0.70793  -0.66006  -0.65806  -0.65314
 Alpha  occ. eigenvalues --   -0.65069  -0.63126  -0.62414  -0.56265  -0.55605
 Alpha  occ. eigenvalues --   -0.54253  -0.53868  -0.53405  -0.53002  -0.49545
 Alpha  occ. eigenvalues --   -0.49509  -0.49034  -0.49023  -0.45463  -0.45015
 Alpha  occ. eigenvalues --   -0.38385  -0.37681  -0.37396  -0.36660
 Alpha virt. eigenvalues --    0.04161   0.04783   0.10047   0.11077   0.15519
 Alpha virt. eigenvalues --    0.16258   0.20200   0.21519   0.25976   0.27035
 Alpha virt. eigenvalues --    0.27692   0.28372   0.30040   0.31222   0.31654

 Mulliken charges:
               1
     1  C   -0.175291
     2  C   -0.228777
     3  C   -0.174552
     4  C    0.159631
     5  C   -0.171208
     6  C   -0.217957
     7  H    0.222949
     8  H    0.233734
     9  H    0.275362
    10  H    0.276441
    11  H    0.223390
    12  N    0.487937
    13  O   -0.459668
    14  O   -0.459373
    15  C   -0.174907
    16  C   -0.218674
    17  C   -0.169809
    18  C    0.160919
    19  C   -0.176365
    20  C   -0.230181
    21  H    0.228089
    22  H    0.226483
    23  H    0.279145
    24  H    0.279168
    25  H    0.230304
    26  N    0.487931
    27  O   -0.457314
    28  O   -0.457409
 Sum of Mulliken charges =  -0.00000

 Dipole moment (field-independent basis, Debye):
    X=             -1.5412    Y=              7.9900    Z=              0.8635  Tot=              8.1829
 Quadrupole moment (field-independent basis, Debye-Ang):
   XX=           -140.2960   YY=           -105.0453   ZZ=           -103.8724
   XY=             -1.4399   XZ=             -9.9763   YZ=             -3.0409

 Normal termination of Gaussian 16 at Fri May  7 08:06:24 2021.
