 Gaussian 16, Revision A.03,
 Gaussian 16:  EM64L-G16RevA.03 25-Dec-2016

 -------------
 #p 6-31g* mp2
 -------------

 ------------------------------------------------------
 Input file generated by CHIRIPA (05-May-2021 14:53:12)
 ------------------------------------------------------
 Symbolic Z-matrix:
 Charge =  0 Multiplicity = 1

                         Standard orientation:
 ---------------------------------------------------------------------
 Center     Atomic      Atomic             Coordinates (Angstroms)
 Number     Number       Type             X           Y           Z
 ---------------------------------------------------------------------
      1          6           0       -4.895161   -0.267253    0.406900
      2          6           0       -6.076217   -1.023307   -0.202586
      3          6           0       -6.800118   -1.907177    0.813552
      4          1           0       -4.187695   -0.989806    0.836265
      5          1           0       -5.255485    0.350793    1.240914
      6          1           0       -5.713994   -1.638683   -1.036086
      7          1           0       -6.780860   -0.298879   -0.630720
      8          1           0       -7.188776   -1.304357    1.640687
      9          1           0       -6.115848   -2.651774    1.233018
     10          1           0       -7.640868   -2.438402    0.356606
     11          6           0       -4.161393    0.620642   -0.596572
     12          6           0       -2.980337    1.376696    0.012914
     13          6           0       -2.256436    2.260566   -1.003224
     14          1           0       -3.801069    0.002595   -1.430586
     15          1           0       -4.868858    1.343195   -1.025938
     16          1           0       -2.275694    0.652268    0.441048
     17          1           0       -3.342560    1.992072    0.846414
     18          1           0       -2.940705    3.005163   -1.422691
     19          1           0       -1.867777    1.657746   -1.830360
     20          1           0       -1.415686    2.791791   -0.546279
     21          6           0        1.137077    0.618148    0.250247
     22          6           0        2.106725    1.163297    1.098256
     23          6           0        3.439891    0.751784    1.009537
     24          6           0        3.769801   -0.211148    0.057060
     25          6           0        2.826641   -0.773069   -0.802000
     26          6           0        1.499491   -0.346594   -0.695506
     27          1           0        0.103779    0.943633    0.326070
     28          1           0        1.828153    1.912688    1.833684
     29          1           0        4.210787    1.157253    1.653535
     30          1           0        3.134715   -1.518409   -1.525170
     31          1           0        0.748571   -0.771700   -1.355391
     32          7           0        5.177980   -0.654719   -0.046270
     33          8           0        5.442983   -1.504490   -0.893795
     34          8           0        5.990045   -0.144218    0.722220
 ---------------------------------------------------------------------

 SCF Done:  E(RHF) =  -669.535204763     A.U. after   15 cycles
 E2 =    -0.2091604358D+01 EUMP2 =    -0.67162680912123D+03

 The electronic state is 1-A.
 Alpha  occ. eigenvalues --  -20.60716 -20.60711 -15.85770 -11.31121 -11.27698
 Alpha  occ. eigenvalues --  -11.27694 -11.27361 -11.26700 -11.26687 -11.22906
 Alpha  occ. eigenvalues --  -11.22384 -11.22373 -11.22255 -11.22166 -11.21604
 Alpha  occ. eigenvalues --   -1.59792  -1.39346  -1.19293  -1.09380  -1.08683
 Alpha  occ. eigenvalues --   -1.04699  -1.04491  -0.96921  -0.95520  -0.87924
 Alpha  occ. eigenvalues --   -0.86093  -0.82363  -0.80573  -0.79136  -0.77413
 Alpha  occ. eigenvalues --   -0.71988  -0.71116  -0.70444  -0.66012  -0.64942
 Alpha  occ. eigenvalues --   -0.64708  -0.62057  -0.61883  -0.60353  -0.58543
 Alpha  occ. eigenvalues --   -0.56246  -0.55058  -0.53606  -0.53313  -0.53016
 Alpha  occ. eigenvalues --   -0.52789  -0.50852  -0.48874  -0.48746  -0.48744
 Alpha  occ. eigenvalues --   -0.47614  -0.46679  -0.46573  -0.44755  -0.44717
 Alpha  occ. eigenvalues --   -0.37255  -0.36309
 Alpha virt. eigenvalues --    0.05113   0.11338   0.16561   0.19373   0.22494
 Alpha virt. eigenvalues --    0.23990   0.25572   0.26024   0.26749   0.27192
 Alpha virt. eigenvalues --    0.29544   0.29923   0.30588   0.30938   0.31763

 Mulliken charges:
               1
     1  C   -0.299210
     2  C   -0.300335
     3  C   -0.476243
     4  H    0.149647
     5  H    0.151208
     6  H    0.152454
     7  H    0.153367
     8  H    0.156104
     9  H    0.155851
    10  H    0.162370
    11  C   -0.297587
    12  C   -0.307390
    13  C   -0.481677
    14  H    0.149357
    15  H    0.153638
    16  H    0.145244
    17  H    0.156994
    18  H    0.164487
    19  H    0.155451
    20  H    0.156888
    21  C   -0.179271
    22  C   -0.221883
    23  C   -0.170435
    24  C    0.158066
    25  C   -0.170658
    26  C   -0.222845
    27  H    0.243275
    28  H    0.223472
    29  H    0.275295
    30  H    0.275274
    31  H    0.222386
    32  N    0.488018
    33  O   -0.460693
    34  O   -0.460620
 Sum of Mulliken charges =  -0.00000

 Dipole moment (field-independent basis, Debye):
    X=             -5.2667    Y=              1.6015    Z=              0.3384  Tot=              5.5152
 Quadrupole moment (field-independent basis, Debye-Ang):
   XX=           -131.3756   YY=            -93.6227   ZZ=            -92.6449
   XY=              6.8306   XZ=              2.4994   YZ=              3.2505

 Normal termination of Gaussian 16 at Thu May  6 10:26:15 2021.
