 Gaussian 16, Revision A.03,
 Gaussian 16:  EM64L-G16RevA.03 25-Dec-2016

 -------------
 #p 6-31g* mp2
 -------------

 ------------------------------------------------------
 Input file generated by CHIRIPA (05-May-2021 14:55:20)
 ------------------------------------------------------
 Symbolic Z-matrix:
 Charge =  0 Multiplicity = 1

                         Standard orientation:
 ---------------------------------------------------------------------
 Center     Atomic      Atomic             Coordinates (Angstroms)
 Number     Number       Type             X           Y           Z
 ---------------------------------------------------------------------
      1          6           0        2.288277    1.957079    1.486571
      2          6           0        1.468604    1.653140    0.394656
      3          6           0        1.739814    0.541880   -0.409144
      4          6           0        2.843905   -0.247366   -0.090765
      5          6           0        3.679318    0.029361    0.990344
      6          6           0        3.389077    1.145650    1.780412
      7          1           0        2.070202    2.822285    2.105648
      8          1           0        0.613029    2.281530    0.164086
      9          1           0        1.121798    0.283555   -1.260461
     10          1           0        4.525048   -0.615762    1.195221
     11          1           0        4.027381    1.379279    2.627779
     12          7           0        3.141097   -1.426469   -0.934444
     13          8           0        4.119838   -2.105997   -0.632874
     14          8           0        2.389667   -1.648795   -1.881313
     15          6           0       -3.886606   -0.627507   -0.127507
     16          6           0       -3.992123   -1.372418    1.203643
     17          6           0       -4.612476   -2.762064    1.055859
     18          1           0       -4.887807   -0.538404   -0.570905
     19          1           0       -3.286747   -1.225279   -0.827672
     20          1           0       -4.590446   -0.772778    1.901537
     21          1           0       -2.990580   -1.459589    1.644016
     22          1           0       -4.013523   -3.381479    0.380448
     23          1           0       -5.622480   -2.690765    0.639433
     24          1           0       -4.678363   -3.276845    2.019456
     25          6           0       -3.268400    0.763278    0.003903
     26          6           0       -3.162883    1.508189   -1.327247
     27          6           0       -2.542530    2.897835   -1.179464
     28          1           0       -3.868259    1.361051    0.704068
     29          1           0       -2.267199    0.674174    0.447301
     30          1           0       -4.164426    1.595361   -1.767620
     31          1           0       -2.564560    0.908549   -2.025142
     32          1           0       -1.532527    2.826536   -0.763038
     33          1           0       -3.141483    3.517250   -0.504052
     34          1           0       -2.476643    3.412616   -2.143061
 ---------------------------------------------------------------------

 SCF Done:  E(RHF) =  -669.535582496     A.U. after   15 cycles
 E2 =    -0.2091276658D+01 EUMP2 =    -0.67162685915441D+03

 The electronic state is 1-A.
 Alpha  occ. eigenvalues --  -20.60784 -20.60779 -15.85838 -11.31203 -11.27778
 Alpha  occ. eigenvalues --  -11.27774 -11.27513 -11.26788 -11.26771 -11.22204
 Alpha  occ. eigenvalues --  -11.21962 -11.21889 -11.21799 -11.21650 -11.21156
 Alpha  occ. eigenvalues --   -1.59860  -1.39414  -1.19378  -1.08849  -1.08770
 Alpha  occ. eigenvalues --   -1.04783  -1.03962  -0.96425  -0.95605  -0.87443
 Alpha  occ. eigenvalues --   -0.86179  -0.82441  -0.80034  -0.78625  -0.77488
 Alpha  occ. eigenvalues --   -0.72056  -0.71183  -0.70483  -0.65505  -0.65028
 Alpha  occ. eigenvalues --   -0.64792  -0.62180  -0.61323  -0.59801  -0.58015
 Alpha  occ. eigenvalues --   -0.55751  -0.55269  -0.53120  -0.53104  -0.52999
 Alpha  occ. eigenvalues --   -0.52729  -0.50366  -0.48817  -0.48811  -0.48338
 Alpha  occ. eigenvalues --   -0.47061  -0.46174  -0.46067  -0.44819  -0.44196
 Alpha  occ. eigenvalues --   -0.37355  -0.36383
 Alpha virt. eigenvalues --    0.05040   0.11260   0.16476   0.19042   0.22833
 Alpha virt. eigenvalues --    0.23770   0.25359   0.26378   0.27373   0.28419
 Alpha virt. eigenvalues --    0.28765   0.29959   0.31241   0.31615   0.32359

 Mulliken charges:
               1
     1  C   -0.172479
     2  C   -0.226479
     3  C   -0.174281
     4  C    0.158647
     5  C   -0.170938
     6  C   -0.218487
     7  H    0.226717
     8  H    0.235457
     9  H    0.275464
    10  H    0.275683
    11  H    0.223524
    12  N    0.488157
    13  O   -0.460413
    14  O   -0.460606
    15  C   -0.299258
    16  C   -0.300053
    17  C   -0.476333
    18  H    0.150800
    19  H    0.153264
    20  H    0.151001
    21  H    0.152669
    22  H    0.158156
    23  H    0.155227
    24  H    0.160887
    25  C   -0.299055
    26  C   -0.301036
    27  C   -0.479282
    28  H    0.149918
    29  H    0.145712
    30  H    0.156167
    31  H    0.153669
    32  H    0.144243
    33  H    0.158403
    34  H    0.164933
 Sum of Mulliken charges =  -0.00000

 Dipole moment (field-independent basis, Debye):
    X=             -1.1801    Y=              4.1022    Z=              2.9526  Tot=              5.1903
 Quadrupole moment (field-independent basis, Debye-Ang):
   XX=            -96.5513   YY=            -98.0779   ZZ=            -94.0569
   XY=             10.4232   XZ=             11.4269   YZ=             -1.6575

 Normal termination of Gaussian 16 at Thu May  6 17:26:12 2021.
