 Gaussian 16, Revision A.03,
 Gaussian 16:  EM64L-G16RevA.03 25-Dec-2016

 -------------
 #p 6-31g* mp2
 -------------

 ------------------------------------------------------
 Input file generated by CHIRIPA (05-May-2021 14:57:25)
 ------------------------------------------------------
 Symbolic Z-matrix:
 Charge =  0 Multiplicity = 1

                         Standard orientation:
 ---------------------------------------------------------------------
 Center     Atomic      Atomic             Coordinates (Angstroms)
 Number     Number       Type             X           Y           Z
 ---------------------------------------------------------------------
      1          6           0       -1.777896   -0.672542    0.715785
      2          6           0       -1.993470    0.098415   -0.431244
      3          6           0       -3.286042    0.493544   -0.788567
      4          6           0       -4.344734    0.098224    0.027634
      5          6           0       -4.162216   -0.669805    1.176594
      6          6           0       -2.861047   -1.053520    1.514634
      7          1           0       -0.770456   -0.975054    0.985873
      8          1           0       -1.154175    0.395743   -1.053517
      9          1           0       -3.481400    1.090476   -1.671134
     10          1           0       -5.018824   -0.950854    1.777136
     11          1           0       -2.696613   -1.652246    2.406000
     12          7           0       -5.717672    0.510487   -0.340442
     13          8           0       -6.633532    0.149256    0.395323
     14          8           0       -5.851925    1.187043   -1.357735
     15          6           0        5.429727    2.049026    0.480027
     16          6           0        6.099045    0.848774    0.219396
     17          6           0        5.382728   -0.309515   -0.096523
     18          6           0        3.991688   -0.231297   -0.143241
     19          6           0        3.296022    0.949586    0.111427
     20          6           0        4.032814    2.095519    0.425307
     21          1           0        5.994132    2.944013    0.724648
     22          1           0        7.183837    0.809716    0.261172
     23          1           0        5.875472   -1.251910   -0.302710
     24          1           0        2.213926    0.957435    0.062181
     25          1           0        3.510348    3.026267    0.627252
     26          7           0        3.222517   -1.450985   -0.476610
     27          8           0        1.997619   -1.355832   -0.511349
     28          8           0        3.859103   -2.479036   -0.696854
 ---------------------------------------------------------------------

 SCF Done:  E(RHF) =  -868.339655977     A.U. after   16 cycles
 E2 =    -0.2598579180D+01 EUMP2 =    -0.87093823515680D+03

 The electronic state is 1-A.
 Alpha  occ. eigenvalues --  -20.61892 -20.61808 -20.60339 -20.60334 -15.86891
 Alpha  occ. eigenvalues --  -15.85390 -11.32043 -11.30620 -11.28637 -11.28540
 Alpha  occ. eigenvalues --  -11.28245 -11.27548 -11.27506 -11.27197 -11.27188
 Alpha  occ. eigenvalues --  -11.26741 -11.26128 -11.26092  -1.60907  -1.59419
 Alpha  occ. eigenvalues --   -1.40475  -1.38976  -1.20185  -1.18771  -1.09609
 Alpha  occ. eigenvalues --   -1.08157  -1.05558  -1.04165  -0.96486  -0.95018
 Alpha  occ. eigenvalues --   -0.86965  -0.85547  -0.83334  -0.81868  -0.78416
 Alpha  occ. eigenvalues --   -0.76964  -0.73125  -0.72213  -0.71609  -0.71288
 Alpha  occ. eigenvalues --   -0.70742  -0.69778  -0.65841  -0.65551  -0.64407
 Alpha  occ. eigenvalues --   -0.64147  -0.62918  -0.61523  -0.56044  -0.54535
 Alpha  occ. eigenvalues --   -0.53891  -0.53646  -0.52494  -0.52243  -0.49885
 Alpha  occ. eigenvalues --   -0.49828  -0.48373  -0.48354  -0.45922  -0.44413
 Alpha  occ. eigenvalues --   -0.38136  -0.37151  -0.36696  -0.35790
 Alpha virt. eigenvalues --    0.04095   0.05580   0.10506   0.11872   0.15631
 Alpha virt. eigenvalues --    0.17122   0.19935   0.21958   0.25764   0.26993
 Alpha virt. eigenvalues --    0.28322   0.28970   0.30748   0.31809   0.31962

 Mulliken charges:
               1
     1  C   -0.174306
     2  C   -0.221195
     3  C   -0.172004
     4  C    0.157488
     5  C   -0.171486
     6  C   -0.219743
     7  H    0.240864
     8  H    0.225391
     9  H    0.273075
    10  H    0.273559
    11  H    0.222402
    12  N    0.488246
    13  O   -0.462033
    14  O   -0.462329
    15  C   -0.169928
    16  C   -0.218133
    17  C   -0.170321
    18  C    0.158849
    19  C   -0.170911
    20  C   -0.218027
    21  H    0.228733
    22  H    0.226398
    23  H    0.277378
    24  H    0.268209
    25  H    0.225757
    26  N    0.491592
    27  O   -0.474014
    28  O   -0.453511
 Sum of Mulliken charges =  -0.00000

 Dipole moment (field-independent basis, Debye):
    X=              8.1069    Y=              2.8069    Z=              2.4928  Tot=              8.9339
 Quadrupole moment (field-independent basis, Debye-Ang):
   XX=           -120.9673   YY=           -105.3880   ZZ=           -103.0361
   XY=             22.3113   XZ=             -3.1923   YZ=             -2.6615

 Normal termination of Gaussian 16 at Thu May  6 06:42:42 2021.
