 Gaussian 16, Revision A.03,
 Gaussian 16:  EM64L-G16RevA.03 25-Dec-2016

 -------------
 #p 6-31g* mp2
 -------------

 ------------------------------------------------------
 Input file generated by CHIRIPA (05-May-2021 14:53:14)
 ------------------------------------------------------
 Symbolic Z-matrix:
 Charge =  0 Multiplicity = 1

                         Standard orientation:
 ---------------------------------------------------------------------
 Center     Atomic      Atomic             Coordinates (Angstroms)
 Number     Number       Type             X           Y           Z
 ---------------------------------------------------------------------
      1          6           0        4.571610    0.022248    0.261830
      2          6           0        5.577771    0.408723   -0.822726
      3          6           0        6.858064    1.018546   -0.251097
      4          1           0        4.322158    0.912295    0.855577
      5          1           0        5.042687   -0.691681    0.951602
      6          1           0        5.104488    1.120651   -1.511041
      7          1           0        5.824711   -0.482308   -1.414081
      8          1           0        7.355511    0.310947    0.420060
      9          1           0        6.631196    1.923014    0.322549
     10          1           0        7.563295    1.287471   -1.043681
     11          6           0        3.286527   -0.588771   -0.294000
     12          6           0        2.280366   -0.975246    0.790556
     13          6           0        1.000073   -1.585069    0.218927
     14          1           0        2.815450    0.125158   -0.983773
     15          1           0        3.535979   -1.478818   -0.887747
     16          1           0        2.033426   -0.084215    1.381911
     17          1           0        2.753649   -1.687174    1.478871
     18          1           0        1.226942   -2.489537   -0.354720
     19          1           0        0.502626   -0.877470   -0.452230
     20          1           0        0.294842   -1.853993    1.011511
     21          6           0       -2.922688    2.730106    0.236672
     22          6           0       -3.715627    2.162111   -0.765900
     23          6           0       -3.804473    0.773287   -0.899392
     24          6           0       -3.083786   -0.021244   -0.009099
     25          6           0       -2.285199    0.514657    1.000037
     26          6           0       -2.211259    1.906020    1.114893
     27          1           0       -2.859460    3.809965    0.333134
     28          1           0       -4.269230    2.799654   -1.449352
     29          1           0       -4.410784    0.307087   -1.666505
     30          1           0       -1.744911   -0.146730    1.666427
     31          1           0       -1.594661    2.344358    1.894451
     32          7           0       -3.169954   -1.492874   -0.140557
     33          8           0       -2.525259   -2.171031    0.656381
     34          8           0       -3.880556   -1.940316   -1.038041
 ---------------------------------------------------------------------

 SCF Done:  E(RHF) =  -669.535673478     A.U. after   15 cycles
 E2 =    -0.2091885235D+01 EUMP2 =    -0.67162755871228D+03

 The electronic state is 1-A.
 Alpha  occ. eigenvalues --  -20.60825 -20.60807 -15.85853 -11.31209 -11.27782
 Alpha  occ. eigenvalues --  -11.27774 -11.27529 -11.26796 -11.26786 -11.21594
 Alpha  occ. eigenvalues --  -11.21433 -11.21356 -11.21253 -11.21094 -11.20548
 Alpha  occ. eigenvalues --   -1.59878  -1.39435  -1.19386  -1.08782  -1.08343
 Alpha  occ. eigenvalues --   -1.04788  -1.03398  -0.95832  -0.95607  -0.86831
 Alpha  occ. eigenvalues --   -0.86181  -0.82454  -0.79467  -0.78165  -0.77497
 Alpha  occ. eigenvalues --   -0.72084  -0.71190  -0.70497  -0.65042  -0.64988
 Alpha  occ. eigenvalues --   -0.64791  -0.62151  -0.60803  -0.59183  -0.57435
 Alpha  occ. eigenvalues --   -0.55307  -0.55112  -0.53114  -0.52907  -0.52450
 Alpha  occ. eigenvalues --   -0.52234  -0.49769  -0.48836  -0.48829  -0.47768
 Alpha  occ. eigenvalues --   -0.46526  -0.45699  -0.45641  -0.44861  -0.43555
 Alpha  occ. eigenvalues --   -0.37363  -0.36380
 Alpha virt. eigenvalues --    0.05017   0.11226   0.16489   0.21035   0.22924
 Alpha virt. eigenvalues --    0.24162   0.26629   0.26847   0.27604   0.27715
 Alpha virt. eigenvalues --    0.28812   0.30432   0.31450   0.31659   0.31957

 Mulliken charges:
               1
     1  C   -0.297655
     2  C   -0.299458
     3  C   -0.475524
     4  H    0.146815
     5  H    0.149998
     6  H    0.150956
     7  H    0.152926
     8  H    0.155571
     9  H    0.153898
    10  H    0.160148
    11  C   -0.297778
    12  C   -0.300240
    13  C   -0.481453
    14  H    0.147932
    15  H    0.151510
    16  H    0.142896
    17  H    0.152743
    18  H    0.159369
    19  H    0.149016
    20  H    0.174660
    21  C   -0.170647
    22  C   -0.218741
    23  C   -0.170916
    24  C    0.157348
    25  C   -0.168286
    26  C   -0.220025
    27  H    0.225634
    28  H    0.223495
    29  H    0.275671
    30  H    0.277379
    31  H    0.223584
    32  N    0.489329
    33  O   -0.460215
    34  O   -0.459941
 Sum of Mulliken charges =  -0.00000

 Dipole moment (field-independent basis, Debye):
    X=              0.1920    Y=              5.0732    Z=              0.4506  Tot=              5.0968
 Quadrupole moment (field-independent basis, Debye-Ang):
   XX=            -96.2616   YY=            -94.5936   ZZ=            -92.2194
   XY=            -17.5353   XZ=              1.0828   YZ=             -0.7306

 Normal termination of Gaussian 16 at Thu May  6 05:48:49 2021.
