 Gaussian 16, Revision A.03,
 Gaussian 16:  EM64L-G16RevA.03 25-Dec-2016

 -------------
 #p 6-31g* mp2
 -------------

 ------------------------------------------------------
 Input file generated by CHIRIPA (05-May-2021 14:55:22)
 ------------------------------------------------------
 Symbolic Z-matrix:
 Charge =  0 Multiplicity = 1

                         Standard orientation:
 ---------------------------------------------------------------------
 Center     Atomic      Atomic             Coordinates (Angstroms)
 Number     Number       Type             X           Y           Z
 ---------------------------------------------------------------------
      1          6           0       -1.386438    0.690571    0.045356
      2          6           0       -1.759013   -0.492936    0.691126
      3          6           0       -3.081073   -0.944542    0.638610
      4          6           0       -4.008837   -0.184401   -0.071834
      5          6           0       -3.668524    0.998838   -0.725610
      6          6           0       -2.340700    1.431375   -0.659708
      7          1           0       -0.357191    1.033983    0.091351
      8          1           0       -1.020047   -1.070294    1.239425
      9          1           0       -3.396767   -1.857172    1.129385
     10          1           0       -4.427568    1.552879   -1.264413
     11          1           0       -2.054210    2.350880   -1.162181
     12          7           0       -5.411494   -0.652402   -0.134516
     13          8           0       -6.209939    0.035433   -0.766976
     14          8           0       -5.685892   -1.698195    0.450001
     15          6           0        4.378631    0.740686   -0.024801
     16          6           0        3.191468    0.774808    0.938250
     17          6           0        2.286868    1.987783    0.718741
     18          1           0        4.964354    1.662707    0.092459
     19          1           0        4.003915    0.737661   -1.057745
     20          1           0        3.568286    0.776370    1.969085
     21          1           0        2.608611   -0.147488    0.818820
     22          1           0        1.883218    1.988185   -0.298936
     23          1           0        2.848345    2.917293    0.857865
     24          1           0        1.444710    1.992280    1.417747
     25          6           0        5.292185   -0.466077    0.182248
     26          6           0        6.479347   -0.500200   -0.780802
     27          6           0        7.383948   -1.713175   -0.561293
     28          1           0        5.666901   -0.463053    1.215193
     29          1           0        4.706462   -1.388099    0.064989
     30          1           0        7.062205    0.422096   -0.661372
     31          1           0        6.102531   -0.501761   -1.811638
     32          1           0        6.822471   -2.642684   -0.700416
     33          1           0        7.787597   -1.713577    0.456386
     34          1           0        8.226107   -1.717672   -1.260298
 ---------------------------------------------------------------------

 SCF Done:  E(RHF) =  -669.535254713     A.U. after   15 cycles
 E2 =    -0.2091285223D+01 EUMP2 =    -0.67162653993628D+03

 The electronic state is 1-A.
 Alpha  occ. eigenvalues --  -20.60700 -20.60695 -15.85754 -11.31098 -11.27673
 Alpha  occ. eigenvalues --  -11.27668 -11.27301 -11.26667 -11.26654 -11.22788
 Alpha  occ. eigenvalues --  -11.22515 -11.22292 -11.22193 -11.22093 -11.21557
 Alpha  occ. eigenvalues --   -1.59776  -1.39330  -1.19266  -1.09304  -1.08656
 Alpha  occ. eigenvalues --   -1.04671  -1.04447  -0.96915  -0.95494  -0.87934
 Alpha  occ. eigenvalues --   -0.86065  -0.82338  -0.80523  -0.79053  -0.77392
 Alpha  occ. eigenvalues --   -0.71971  -0.71100  -0.70396  -0.65932  -0.64913
 Alpha  occ. eigenvalues --   -0.64681  -0.62024  -0.61850  -0.60338  -0.58487
 Alpha  occ. eigenvalues --   -0.56331  -0.55061  -0.53541  -0.53317  -0.52992
 Alpha  occ. eigenvalues --   -0.52759  -0.50818  -0.48827  -0.48728  -0.48726
 Alpha  occ. eigenvalues --   -0.47542  -0.46608  -0.46495  -0.44741  -0.44668
 Alpha  occ. eigenvalues --   -0.37231  -0.36285
 Alpha virt. eigenvalues --    0.05136   0.11369   0.16595   0.19708   0.22527
 Alpha virt. eigenvalues --    0.23906   0.25729   0.26010   0.26675   0.27559
 Alpha virt. eigenvalues --    0.29604   0.30193   0.30845   0.31203   0.31705

 Mulliken charges:
               1
     1  C   -0.180138
     2  C   -0.223077
     3  C   -0.170610
     4  C    0.157964
     5  C   -0.170611
     6  C   -0.222574
     7  H    0.243754
     8  H    0.222985
     9  H    0.275166
    10  H    0.275200
    11  H    0.223420
    12  N    0.488005
    13  O   -0.460712
    14  O   -0.460759
    15  C   -0.299072
    16  C   -0.300551
    17  C   -0.486975
    18  H    0.152415
    19  H    0.150409
    20  H    0.157172
    21  H    0.147893
    22  H    0.151186
    23  H    0.165513
    24  H    0.158986
    25  C   -0.298984
    26  C   -0.300328
    27  C   -0.476190
    28  H    0.151022
    29  H    0.149875
    30  H    0.153009
    31  H    0.152688
    32  H    0.155807
    33  H    0.155983
    34  H    0.162129
 Sum of Mulliken charges =  -0.00000

 Dipole moment (field-independent basis, Debye):
    X=              5.2746    Y=              1.6872    Z=              0.2385  Tot=              5.5430
 Quadrupole moment (field-independent basis, Debye-Ang):
   XX=           -133.9566   YY=            -92.7341   ZZ=            -93.3705
   XY=             -7.6359   XZ=             -0.0346   YZ=             -2.2964

 Normal termination of Gaussian 16 at Thu May  6 14:15:11 2021.
