 Gaussian 16, Revision A.03,
 Gaussian 16:  EM64L-G16RevA.03 25-Dec-2016

 -------------
 #p 6-31g* mp2
 -------------

 ------------------------------------------------------
 Input file generated by CHIRIPA (05-May-2021 14:53:12)
 ------------------------------------------------------
 Symbolic Z-matrix:
 Charge =  0 Multiplicity = 1

                         Standard orientation:
 ---------------------------------------------------------------------
 Center     Atomic      Atomic             Coordinates (Angstroms)
 Number     Number       Type             X           Y           Z
 ---------------------------------------------------------------------
      1          6           0        5.625496   -0.246161    0.345665
      2          6           0        6.558594    0.536960   -0.578475
      3          6           0        7.975559    0.663980   -0.018235
      4          1           0        5.590744    0.248540    1.325975
      5          1           0        6.044733   -1.247543    0.515574
      6          1           0        6.137022    1.536088   -0.747701
      7          1           0        6.590979    0.040445   -1.556759
      8          1           0        8.419686   -0.325037    0.134078
      9          1           0        7.963149    1.179104    0.947733
     10          1           0        8.625766    1.227315   -0.694803
     11          6           0        4.205340   -0.381647   -0.200714
     12          6           0        3.272242   -1.164768    0.723426
     13          6           0        1.855277   -1.291787    0.163186
     14          1           0        3.786103    0.619736   -0.370622
     15          1           0        4.240092   -0.876348   -1.181024
     16          1           0        3.239857   -0.668252    1.701710
     17          1           0        3.693814   -2.163895    0.892652
     18          1           0        1.867687   -1.806911   -0.802782
     19          1           0        1.411150   -0.302771    0.010873
     20          1           0        1.205070   -1.855122    0.839754
     21          6           0       -6.056462   -0.958704    0.010439
     22          6           0       -4.888754   -1.659142   -0.309503
     23          6           0       -3.655261   -1.002306   -0.349647
     24          6           0       -3.625907    0.361630   -0.063105
     25          6           0       -4.771864    1.087111    0.259000
     26          6           0       -5.994400    0.409774    0.293171
     27          1           0       -7.010414   -1.476912    0.039304
     28          1           0       -4.933948   -2.721965   -0.529525
     29          1           0       -2.735853   -1.520193   -0.594390
     30          1           0       -4.695157    2.146110    0.473603
     31          1           0       -6.899644    0.956298    0.541951
     32          7           0       -2.325863    1.067843   -0.102442
     33          8           0       -2.326727    2.269875    0.153992
     34          8           0       -1.330641    0.405971   -0.388963
 ---------------------------------------------------------------------

 SCF Done:  E(RHF) =  -669.535928186     A.U. after   15 cycles
 E2 =    -0.2090681608D+01 EUMP2 =    -0.67162660979363D+03

 The electronic state is 1-A.
 Alpha  occ. eigenvalues --  -20.60880 -20.60863 -15.85911 -11.31246 -11.27814
 Alpha  occ. eigenvalues --  -11.27805 -11.27556 -11.26825 -11.26814 -11.21009
 Alpha  occ. eigenvalues --  -11.20696 -11.20617 -11.20582 -11.20499 -11.19693
 Alpha  occ. eigenvalues --   -1.59941  -1.39495  -1.19418  -1.08821  -1.07642
 Alpha  occ. eigenvalues --   -1.04816  -1.02693  -0.95663  -0.95119  -0.86217
 Alpha  occ. eigenvalues --   -0.86131  -0.82492  -0.78775  -0.77548  -0.77426
 Alpha  occ. eigenvalues --   -0.72136  -0.71257  -0.70526  -0.65073  -0.64820
 Alpha  occ. eigenvalues --   -0.64275  -0.62162  -0.60085  -0.58541  -0.56739
 Alpha  occ. eigenvalues --   -0.55322  -0.54393  -0.53148  -0.52908  -0.51826
 Alpha  occ. eigenvalues --   -0.51536  -0.49149  -0.48888  -0.48790  -0.47066
 Alpha  occ. eigenvalues --   -0.45810  -0.44987  -0.44948  -0.44813  -0.42962
 Alpha  occ. eigenvalues --   -0.37399  -0.36418
 Alpha virt. eigenvalues --    0.04986   0.11236   0.16477   0.21351   0.23626
 Alpha virt. eigenvalues --    0.25168   0.27253   0.27437   0.28039   0.28272
 Alpha virt. eigenvalues --    0.29029   0.30905   0.32170   0.32316   0.32639

 Mulliken charges:
               1
     1  C   -0.297636
     2  C   -0.299267
     3  C   -0.475289
     4  H    0.149022
     5  H    0.147136
     6  H    0.152840
     7  H    0.150833
     8  H    0.153835
     9  H    0.154723
    10  H    0.158791
    11  C   -0.298212
    12  C   -0.299697
    13  C   -0.479590
    14  H    0.153610
    15  H    0.147490
    16  H    0.150394
    17  H    0.145768
    18  H    0.147882
    19  H    0.182174
    20  H    0.152346
    21  C   -0.170661
    22  C   -0.218606
    23  C   -0.171038
    24  C    0.157711
    25  C   -0.170636
    26  C   -0.218632
    27  H    0.225802
    28  H    0.223743
    29  H    0.276602
    30  H    0.275690
    31  H    0.223606
    32  N    0.492113
    33  O   -0.460130
    34  O   -0.462716
 Sum of Mulliken charges =  -0.00000

 Dipole moment (field-independent basis, Debye):
    X=             -4.8554    Y=             -2.3655    Z=              0.1046  Tot=              5.4020
 Quadrupole moment (field-independent basis, Debye-Ang):
   XX=            -63.1413   YY=            -92.6446   ZZ=            -95.3128
   XY=              5.2534   XZ=             -1.4029   YZ=              1.9114

 Normal termination of Gaussian 16 at Thu May  6 07:15:14 2021.
