 Gaussian 16, Revision A.03,
 Gaussian 16:  EM64L-G16RevA.03 25-Dec-2016

 -------------
 #p 6-31g* mp2
 -------------

 ------------------------------------------------------
 Input file generated by CHIRIPA (05-May-2021 14:53:17)
 ------------------------------------------------------
 Symbolic Z-matrix:
 Charge =  0 Multiplicity = 1

                         Standard orientation:
 ---------------------------------------------------------------------
 Center     Atomic      Atomic             Coordinates (Angstroms)
 Number     Number       Type             X           Y           Z
 ---------------------------------------------------------------------
      1          6           0        3.831380   -0.916199    0.431086
      2          6           0        2.467233   -0.492638    0.976692
      3          6           0        1.636219   -1.675761    1.474115
      4          1           0        3.684925   -1.633436   -0.388101
      5          1           0        4.383870   -1.448614    1.217651
      6          1           0        1.918030    0.040030    0.189763
      7          1           0        2.616948    0.223820    1.794548
      8          1           0        2.160391   -2.204249    2.276950
      9          1           0        1.457502   -2.389084    0.663047
     10          1           0        0.665049   -1.350288    1.859805
     11          6           0        4.673819    0.255522   -0.070008
     12          6           0        6.037966   -0.168039   -0.615614
     13          6           0        6.868981    1.015083   -1.113037
     14          1           0        4.121329    0.787936   -0.856572
     15          1           0        4.820275    0.972759    0.749179
     16          1           0        5.888251   -0.884497   -1.433470
     17          1           0        6.587169   -0.700707    0.171315
     18          1           0        7.047697    1.728406   -0.301969
     19          1           0        6.344808    1.543572   -1.915872
     20          1           0        7.840151    0.689611   -1.498727
     21          6           0       -1.066925    1.293041    0.314870
     22          6           0       -1.154188    0.084723   -0.384326
     23          6           0       -2.398546   -0.497862   -0.642618
     24          6           0       -3.540389    0.158020   -0.185122
     25          6           0       -3.486173    1.362750    0.514147
     26          6           0       -2.231143    1.927080    0.761088
     27          1           0       -0.096132    1.738516    0.511108
     28          1           0       -0.251715   -0.409915   -0.732060
     29          1           0       -2.494980   -1.432549   -1.181580
     30          1           0       -4.403440    1.832270    0.848197
     31          1           0       -2.166400    2.865554    1.304338
     32          7           0       -4.863384   -0.449073   -0.452556
     33          8           0       -5.854459    0.148651   -0.038874
     34          8           0       -4.884222   -1.511144   -1.070788
 ---------------------------------------------------------------------

 SCF Done:  E(RHF) =  -669.534986689     A.U. after   15 cycles
 E2 =    -0.2092463864D+01 EUMP2 =    -0.67162745055277D+03

 The electronic state is 1-A.
 Alpha  occ. eigenvalues --  -20.60733 -20.60728 -15.85785 -11.31147 -11.27712
 Alpha  occ. eigenvalues --  -11.27702 -11.27424 -11.26726 -11.26683 -11.22816
 Alpha  occ. eigenvalues --  -11.22301 -11.22249 -11.22169 -11.21996 -11.21622
 Alpha  occ. eigenvalues --   -1.59808  -1.39362  -1.19317  -1.09320  -1.08709
 Alpha  occ. eigenvalues --   -1.04732  -1.04378  -0.96796  -0.95545  -0.87807
 Alpha  occ. eigenvalues --   -0.86121  -0.82378  -0.80489  -0.79114  -0.77431
 Alpha  occ. eigenvalues --   -0.72005  -0.71131  -0.70422  -0.66029  -0.64967
 Alpha  occ. eigenvalues --   -0.64736  -0.62233  -0.61608  -0.60150  -0.58399
 Alpha  occ. eigenvalues --   -0.56076  -0.55206  -0.53519  -0.53272  -0.52937
 Alpha  occ. eigenvalues --   -0.52775  -0.50746  -0.48787  -0.48761  -0.48747
 Alpha  occ. eigenvalues --   -0.47540  -0.46641  -0.46557  -0.44769  -0.44621
 Alpha  occ. eigenvalues --   -0.37282  -0.36309
 Alpha virt. eigenvalues --    0.05099   0.11256   0.16582   0.19679   0.22501
 Alpha virt. eigenvalues --    0.23863   0.25448   0.25732   0.26980   0.27878
 Alpha virt. eigenvalues --    0.28908   0.29782   0.30817   0.31492   0.32221

 Mulliken charges:
               1
     1  C   -0.297711
     2  C   -0.305631
     3  C   -0.480828
     4  H    0.150810
     5  H    0.153920
     6  H    0.140440
     7  H    0.154131
     8  H    0.161145
     9  H    0.153643
    10  H    0.166450
    11  C   -0.298862
    12  C   -0.300263
    13  C   -0.476199
    14  H    0.147399
    15  H    0.150176
    16  H    0.153157
    17  H    0.153718
    18  H    0.155663
    19  H    0.155320
    20  H    0.162573
    21  C   -0.174174
    22  C   -0.219660
    23  C   -0.172248
    24  C    0.158488
    25  C   -0.171146
    26  C   -0.218686
    27  H    0.228448
    28  H    0.228739
    29  H    0.275474
    30  H    0.275412
    31  H    0.223280
    32  N    0.488030
    33  O   -0.460530
    34  O   -0.460476
 Sum of Mulliken charges =  -0.00000

 Dipole moment (field-independent basis, Debye):
    X=              4.8623    Y=              2.0777    Z=              1.0083  Tot=              5.3828
 Quadrupole moment (field-independent basis, Debye-Ang):
   XX=           -126.8737   YY=            -91.9391   ZZ=            -93.7778
   XY=             -9.4916   XZ=             -4.6656   YZ=              2.1660

 Normal termination of Gaussian 16 at Wed May  5 23:39:04 2021.
