 Gaussian 16, Revision A.03,
 Gaussian 16:  EM64L-G16RevA.03 25-Dec-2016

 -------------
 #p 6-31g* mp2
 -------------

 ------------------------------------------------------
 Input file generated by CHIRIPA (05-May-2021 14:53:15)
 ------------------------------------------------------
 Symbolic Z-matrix:
 Charge =  0 Multiplicity = 1

                         Standard orientation:
 ---------------------------------------------------------------------
 Center     Atomic      Atomic             Coordinates (Angstroms)
 Number     Number       Type             X           Y           Z
 ---------------------------------------------------------------------
      1          6           0        3.095853    0.737055    0.522157
      2          6           0        2.235785    1.909323    0.048811
      3          6           0        2.060403    2.984802    1.121369
      4          1           0        2.638892    0.293212    1.417218
      5          1           0        4.081184    1.114567    0.828755
      6          1           0        1.252842    1.529532   -0.258105
      7          1           0        2.694745    2.350308   -0.845339
      8          1           0        3.031554    3.391327    1.421710
      9          1           0        1.581458    2.565888    2.012281
     10          1           0        1.442312    3.813369    0.761785
     11          6           0        3.280338   -0.346272   -0.539019
     12          6           0        4.140406   -1.518540   -0.065673
     13          6           0        4.315788   -2.594019   -1.138231
     14          1           0        2.295007   -0.723784   -0.845616
     15          1           0        3.737299    0.097572   -1.434080
     16          1           0        3.681446   -1.959524    0.828478
     17          1           0        5.123349   -1.138749    0.241243
     18          1           0        4.794733   -2.175105   -2.029142
     19          1           0        3.344637   -3.000544   -1.438572
     20          1           0        4.933879   -3.422586   -0.778647
     21          6           0       -2.728043   -2.458032    1.003983
     22          6           0       -1.832402   -1.541549    1.564706
     23          6           0       -1.692672   -0.261428    1.020361
     24          6           0       -2.467754    0.070226   -0.089838
     25          6           0       -3.368701   -0.820675   -0.671114
     26          6           0       -3.491987   -2.095310   -0.110172
     27          1           0       -2.830201   -3.450331    1.433290
     28          1           0       -1.237824   -1.820495    2.429986
     29          1           0       -1.006884    0.467682    1.434500
     30          1           0       -3.947814   -0.513629   -1.533533
     31          1           0       -4.188347   -2.805007   -0.547728
     32          7           0       -2.328532    1.422530   -0.674896
     33          8           0       -3.022856    1.690250   -1.653097
     34          8           0       -1.527723    2.189137   -0.144186
 ---------------------------------------------------------------------

 SCF Done:  E(RHF) =  -669.536089683     A.U. after   15 cycles
 E2 =    -0.2091938515D+01 EUMP2 =    -0.67162802819793D+03

 The electronic state is 1-A.
 Alpha  occ. eigenvalues --  -20.60955 -20.60950 -15.85976 -11.31306 -11.27868
 Alpha  occ. eigenvalues --  -11.27863 -11.27602 -11.26877 -11.26868 -11.21588
 Alpha  occ. eigenvalues --  -11.21236 -11.21114 -11.21095 -11.20883 -11.20372
 Alpha  occ. eigenvalues --   -1.60011  -1.39567  -1.19474  -1.08876  -1.08179
 Alpha  occ. eigenvalues --   -1.04870  -1.03198  -0.95730  -0.95653  -0.86692
 Alpha  occ. eigenvalues --   -0.86270  -0.82550  -0.79287  -0.77967  -0.77593
 Alpha  occ. eigenvalues --   -0.72203  -0.71323  -0.70579  -0.65134  -0.64914
 Alpha  occ. eigenvalues --   -0.64784  -0.62222  -0.60596  -0.59048  -0.57236
 Alpha  occ. eigenvalues --   -0.55372  -0.54985  -0.53200  -0.52959  -0.52325
 Alpha  occ. eigenvalues --   -0.52092  -0.49656  -0.48973  -0.48955  -0.47593
 Alpha  occ. eigenvalues --   -0.46369  -0.45570  -0.45506  -0.44744  -0.43461
 Alpha  occ. eigenvalues --   -0.37451  -0.36470
 Alpha virt. eigenvalues --    0.04888   0.11136   0.16370   0.20416   0.22828
 Alpha virt. eigenvalues --    0.24004   0.26472   0.27481   0.27794   0.27985
 Alpha virt. eigenvalues --    0.28990   0.30584   0.31499   0.32029   0.32351

 Mulliken charges:
               1
     1  C   -0.297092
     2  C   -0.305947
     3  C   -0.472322
     4  H    0.140170
     5  H    0.148797
     6  H    0.163789
     7  H    0.152007
     8  H    0.149869
     9  H    0.146142
    10  H    0.172803
    11  C   -0.297682
    12  C   -0.298542
    13  C   -0.475412
    14  H    0.147705
    15  H    0.151542
    16  H    0.147627
    17  H    0.152487
    18  H    0.156499
    19  H    0.153761
    20  H    0.159000
    21  C   -0.170563
    22  C   -0.218861
    23  C   -0.172987
    24  C    0.158129
    25  C   -0.170732
    26  C   -0.218532
    27  H    0.226125
    28  H    0.224051
    29  H    0.278065
    30  H    0.275897
    31  H    0.223938
    32  N    0.488513
    33  O   -0.458655
    34  O   -0.459588
 Sum of Mulliken charges =  -0.00000

 Dipole moment (field-independent basis, Debye):
    X=             -0.6815    Y=             -4.6555    Z=              1.9462  Tot=              5.0918
 Quadrupole moment (field-independent basis, Debye-Ang):
   XX=            -90.0822   YY=            -95.9729   ZZ=            -93.6487
   XY=             13.5374   XZ=             -2.7397   YZ=              0.4859

 Normal termination of Gaussian 16 at Wed May  5 15:37:38 2021.
