 Gaussian 16, Revision A.03,
 Gaussian 16:  EM64L-G16RevA.03 25-Dec-2016

 -------------
 #p 6-31g* mp2
 -------------

 ------------------------------------------------------
 Input file generated by CHIRIPA (05-May-2021 14:57:27)
 ------------------------------------------------------
 Symbolic Z-matrix:
 Charge =  0 Multiplicity = 1

                         Standard orientation:
 ---------------------------------------------------------------------
 Center     Atomic      Atomic             Coordinates (Angstroms)
 Number     Number       Type             X           Y           Z
 ---------------------------------------------------------------------
      1          6           0        2.371991    2.445666    0.501855
      2          6           0        3.203254    1.803037    1.425192
      3          6           0        3.778027    0.565234    1.121832
      4          6           0        3.498903   -0.003813   -0.119766
      5          6           0        2.674854    0.611601   -1.060775
      6          6           0        2.110905    1.848949   -0.735999
      7          1           0        1.929698    3.407044    0.745831
      8          1           0        3.407774    2.264098    2.387294
      9          1           0        4.425232    0.045802    1.818061
     10          1           0        2.489492    0.127163   -2.011763
     11          1           0        1.465720    2.345725   -1.455023
     12          7           0        4.101661   -1.313978   -0.452256
     13          8           0        3.840122   -1.794347   -1.552929
     14          8           0        4.824228   -1.835710    0.394107
     15          6           0       -0.917782   -0.518219    0.401119
     16          6           0       -1.388143    0.383471   -0.559214
     17          6           0       -2.761098    0.561170   -0.754062
     18          6           0       -3.639491   -0.182526    0.032470
     19          6           0       -3.201785   -1.088548    0.997264
     20          6           0       -1.824507   -1.250060    1.174928
     21          1           0        0.150442   -0.649972    0.545807
     22          1           0       -0.686281    0.953174   -1.161604
     23          1           0       -3.152522    1.252481   -1.490468
     24          1           0       -3.925798   -1.642282    1.582586
     25          1           0       -1.462078   -1.951031    1.921474
     26          7           0       -5.095266   -0.002972   -0.164711
     27          8           0       -5.848562   -0.670136    0.541032
     28          8           0       -5.455439    0.801526   -1.021272
 ---------------------------------------------------------------------

 SCF Done:  E(RHF) =  -868.337196808     A.U. after   16 cycles
 E2 =    -0.2601662383D+01 EUMP2 =    -0.87093885919148D+03

 The electronic state is 1-A.
 Alpha  occ. eigenvalues --  -20.61771 -20.61766 -20.60921 -20.60913 -15.86836
 Alpha  occ. eigenvalues --  -15.85976 -11.32407 -11.31343 -11.29021 -11.28942
 Alpha  occ. eigenvalues --  -11.28685 -11.28056 -11.27964 -11.27920 -11.27905
 Alpha  occ. eigenvalues --  -11.27593 -11.26956 -11.26875  -1.60851  -1.59996
 Alpha  occ. eigenvalues --   -1.40395  -1.39550  -1.20600  -1.19520  -1.09924
 Alpha  occ. eigenvalues --   -1.08899  -1.06019  -1.04937  -0.96721  -0.95732
 Alpha  occ. eigenvalues --   -0.87382  -0.86329  -0.83550  -0.82579  -0.78589
 Alpha  occ. eigenvalues --   -0.77638  -0.73033  -0.72202  -0.72189  -0.71606
 Alpha  occ. eigenvalues --   -0.71321  -0.70594  -0.66213  -0.66025  -0.65169
 Alpha  occ. eigenvalues --   -0.64960  -0.63330  -0.62283  -0.56421  -0.55475
 Alpha  occ. eigenvalues --   -0.54259  -0.54071  -0.53251  -0.52993  -0.49814
 Alpha  occ. eigenvalues --   -0.49785  -0.48952  -0.48947  -0.45753  -0.44955
 Alpha  occ. eigenvalues --   -0.38576  -0.37636  -0.37444  -0.36548
 Alpha virt. eigenvalues --    0.03932   0.04918   0.09881   0.11183   0.15276
 Alpha virt. eigenvalues --    0.16411   0.19374   0.21730   0.24937   0.27299
 Alpha virt. eigenvalues --    0.27742   0.28237   0.29369   0.31288   0.31927

 Mulliken charges:
               1
     1  C   -0.169661
     2  C   -0.218872
     3  C   -0.171768
     4  C    0.155815
     5  C   -0.178825
     6  C   -0.224262
     7  H    0.231478
     8  H    0.228670
     9  H    0.279464
    10  H    0.279132
    11  H    0.223633
    12  N    0.487464
    13  O   -0.457532
    14  O   -0.457226
    15  C   -0.172461
    16  C   -0.219348
    17  C   -0.171837
    18  C    0.158357
    19  C   -0.170361
    20  C   -0.219325
    21  H    0.230783
    22  H    0.213876
    23  H    0.273890
    24  H    0.276308
    25  H    0.225400
    26  N    0.488119
    27  O   -0.459641
    28  O   -0.461272
 Sum of Mulliken charges =  -0.00000

 Dipole moment (field-independent basis, Debye):
    X=              3.3158    Y=              3.9938    Z=              2.0271  Tot=              5.5726
 Quadrupole moment (field-independent basis, Debye-Ang):
   XX=           -156.3024   YY=           -103.0090   ZZ=            -98.8845
   XY=             18.6144   XZ=              3.7217   YZ=             -3.4018

 Normal termination of Gaussian 16 at Thu May  6 19:47:54 2021.
