 Gaussian 16, Revision A.03,
 Gaussian 16:  EM64L-G16RevA.03 25-Dec-2016

 -------------
 #p 6-31g* mp2
 -------------

 ------------------------------------------------------
 Input file generated by CHIRIPA (05-May-2021 14:55:23)
 ------------------------------------------------------
 Symbolic Z-matrix:
 Charge =  0 Multiplicity = 1

                         Standard orientation:
 ---------------------------------------------------------------------
 Center     Atomic      Atomic             Coordinates (Angstroms)
 Number     Number       Type             X           Y           Z
 ---------------------------------------------------------------------
      1          6           0       -0.600886   -2.696589    0.076280
      2          6           0       -0.297621   -1.622670    0.919635
      3          6           0       -1.116969   -0.490283    0.949894
      4          6           0       -2.236649   -0.465296    0.119845
      5          6           0       -2.565347   -1.519266   -0.731270
      6          6           0       -1.731787   -2.641557   -0.745033
      7          1           0        0.041123   -3.572334    0.059181
      8          1           0        0.579999   -1.662649    1.558565
      9          1           0       -0.905615    0.355230    1.593210
     10          1           0       -3.447086   -1.450328   -1.356731
     11          1           0       -1.969762   -3.474097   -1.400999
     12          7           0       -3.111579    0.728167    0.143147
     13          8           0       -4.092207    0.725625   -0.597798
     14          8           0       -2.800154    1.643548    0.901916
     15          6           0        3.390320    0.576765   -0.205883
     16          6           0        3.497780   -0.917282    0.101137
     17          6           0        4.928287   -1.443853   -0.017896
     18          1           0        3.768375    0.764288   -1.220207
     19          1           0        4.044930    1.132829    0.479445
     20          1           0        2.842110   -1.470251   -0.583654
     21          1           0        3.119247   -1.101298    1.114777
     22          1           0        5.591354   -0.918167    0.676796
     23          1           0        5.312642   -1.289215   -1.031286
     24          1           0        4.982124   -2.513872    0.205761
     25          6           0        1.966353    1.117939   -0.091089
     26          6           0        1.858893    2.611986   -0.398108
     27          6           0        0.428387    3.138557   -0.279076
     28          1           0        1.311743    0.561875   -0.776417
     29          1           0        1.588299    0.930416    0.923235
     30          1           0        2.237426    2.796002   -1.411749
     31          1           0        2.514564    3.164954    0.286682
     32          1           0        0.044032    2.983919    0.734314
     33          1           0       -0.234680    2.612870   -0.973767
     34          1           0        0.374548    4.208575   -0.502732
 ---------------------------------------------------------------------

 SCF Done:  E(RHF) =  -669.534017532     A.U. after   15 cycles
 E2 =    -0.2095245001D+01 EUMP2 =    -0.67162926253326D+03

 The electronic state is 1-A.
 Alpha  occ. eigenvalues --  -20.60775 -20.60751 -15.85800 -11.31137 -11.27698
 Alpha  occ. eigenvalues --  -11.27671 -11.27432 -11.26718 -11.26649 -11.22346
 Alpha  occ. eigenvalues --  -11.21832 -11.21685 -11.21678 -11.21568 -11.20690
 Alpha  occ. eigenvalues --   -1.59829  -1.39384  -1.19311  -1.08824  -1.08698
 Alpha  occ. eigenvalues --   -1.04708  -1.03813  -0.96214  -0.95550  -0.87231
 Alpha  occ. eigenvalues --   -0.86104  -0.82391  -0.79925  -0.78685  -0.77372
 Alpha  occ. eigenvalues --   -0.72023  -0.71147  -0.70418  -0.65461  -0.64956
 Alpha  occ. eigenvalues --   -0.64718  -0.62058  -0.61204  -0.59660  -0.57841
 Alpha  occ. eigenvalues --   -0.55488  -0.55209  -0.53199  -0.52922  -0.52766
 Alpha  occ. eigenvalues --   -0.52540  -0.50172  -0.48796  -0.48777  -0.48190
 Alpha  occ. eigenvalues --   -0.46977  -0.46150  -0.46016  -0.44722  -0.44067
 Alpha  occ. eigenvalues --   -0.37293  -0.36179
 Alpha virt. eigenvalues --    0.05078   0.11208   0.16493   0.19884   0.22959
 Alpha virt. eigenvalues --    0.23353   0.24679   0.26405   0.27027   0.28317
 Alpha virt. eigenvalues --    0.29276   0.30700   0.31366   0.31576   0.31956

 Mulliken charges:
               1
     1  C   -0.173847
     2  C   -0.215222
     3  C   -0.167630
     4  C    0.156032
     5  C   -0.171981
     6  C   -0.218951
     7  H    0.225692
     8  H    0.226937
     9  H    0.275882
    10  H    0.275149
    11  H    0.223008
    12  N    0.488373
    13  O   -0.460483
    14  O   -0.459708
    15  C   -0.297608
    16  C   -0.301767
    17  C   -0.475362
    18  H    0.152318
    19  H    0.150880
    20  H    0.151137
    21  H    0.143044
    22  H    0.157592
    23  H    0.157991
    24  H    0.158108
    25  C   -0.298300
    26  C   -0.301471
    27  C   -0.475318
    28  H    0.155235
    29  H    0.137793
    30  H    0.151763
    31  H    0.150892
    32  H    0.162065
    33  H    0.155311
    34  H    0.162448
 Sum of Mulliken charges =  -0.00000

 Dipole moment (field-independent basis, Debye):
    X=              3.0677    Y=             -4.0767    Z=             -0.1397  Tot=              5.1039
 Quadrupole moment (field-independent basis, Debye-Ang):
   XX=           -108.2739   YY=            -90.5011   ZZ=            -91.9353
   XY=              9.9297   XZ=              2.8823   YZ=              1.4188

 Normal termination of Gaussian 16 at Thu May  6 07:53:09 2021.
