 Gaussian 16, Revision A.03,
 Gaussian 16:  EM64L-G16RevA.03 25-Dec-2016

 -------------
 #p 6-31g* mp2
 -------------

 ------------------------------------------------------
 Input file generated by CHIRIPA (05-May-2021 14:55:20)
 ------------------------------------------------------
 Symbolic Z-matrix:
 Charge =  0 Multiplicity = 1

                         Standard orientation:
 ---------------------------------------------------------------------
 Center     Atomic      Atomic             Coordinates (Angstroms)
 Number     Number       Type             X           Y           Z
 ---------------------------------------------------------------------
      1          6           0        1.635092    2.854055    0.441332
      2          6           0        2.304309    2.526563   -0.742484
      3          6           0        2.764885    1.224754   -0.960909
      4          6           0        2.538045    0.271047    0.030190
      5          6           0        1.874576    0.566370    1.220099
      6          6           0        1.422736    1.874640    1.417125
      7          1           0        1.280699    3.867841    0.602698
      8          1           0        2.470640    3.285145   -1.502045
      9          1           0        3.285873    0.943898   -1.868163
     10          1           0        1.723646   -0.211369    1.958855
     11          1           0        0.903318    2.126110    2.337457
     12          7           0        3.021012   -1.110540   -0.189719
     13          8           0        2.808606   -1.932565    0.698985
     14          8           0        3.602823   -1.345242   -1.246624
     15          6           0       -2.440136   -0.895862   -0.218284
     16          6           0       -2.194846   -2.303407    0.326355
     17          6           0       -0.776634   -2.804602    0.051993
     18          1           0       -2.250612   -0.890120   -1.300408
     19          1           0       -1.712895   -0.204860    0.230082
     20          1           0       -2.923221   -2.991297   -0.121856
     21          1           0       -2.385161   -2.305843    1.407276
     22          1           0       -0.037707   -2.141471    0.513345
     23          1           0       -0.578824   -2.830820   -1.024476
     24          1           0       -0.623072   -3.812584    0.449799
     25          6           0       -3.853486   -0.380937    0.048213
     26          6           0       -4.098777    1.026608   -0.496426
     27          6           0       -5.516988    1.527803   -0.222064
     28          1           0       -4.580727   -1.071939   -0.400153
     29          1           0       -4.043011   -0.386678    1.130337
     30          1           0       -3.908461    1.029044   -1.577347
     31          1           0       -3.370401    1.714498   -0.048215
     32          1           0       -5.714799    1.554021    0.854405
     33          1           0       -6.255915    0.864673   -0.683415
     34          1           0       -5.670550    2.535786   -0.619871
 ---------------------------------------------------------------------

 SCF Done:  E(RHF) =  -669.536022096     A.U. after   15 cycles
 E2 =    -0.2092219797D+01 EUMP2 =    -0.67162824189359D+03

 The electronic state is 1-A.
 Alpha  occ. eigenvalues --  -20.60877 -20.60864 -15.85893 -11.31268 -11.27851
 Alpha  occ. eigenvalues --  -11.27823 -11.27573 -11.26866 -11.26840 -11.21753
 Alpha  occ. eigenvalues --  -11.21413 -11.21310 -11.21250 -11.21241 -11.20402
 Alpha  occ. eigenvalues --   -1.59924  -1.39483  -1.19439  -1.08831  -1.08373
 Alpha  occ. eigenvalues --   -1.04845  -1.03403  -0.95827  -0.95664  -0.86833
 Alpha  occ. eigenvalues --   -0.86241  -0.82501  -0.79481  -0.78175  -0.77547
 Alpha  occ. eigenvalues --   -0.72122  -0.71238  -0.70545  -0.65098  -0.65016
 Alpha  occ. eigenvalues --   -0.64844  -0.62197  -0.60805  -0.59229  -0.57438
 Alpha  occ. eigenvalues --   -0.55345  -0.55115  -0.53167  -0.52936  -0.52485
 Alpha  occ. eigenvalues --   -0.52249  -0.49796  -0.48880  -0.48875  -0.47795
 Alpha  occ. eigenvalues --   -0.46559  -0.45738  -0.45660  -0.44731  -0.43652
 Alpha  occ. eigenvalues --   -0.37407  -0.36434
 Alpha virt. eigenvalues --    0.04959   0.11124   0.16434   0.21205   0.22861
 Alpha virt. eigenvalues --    0.24290   0.26414   0.27140   0.27606   0.27721
 Alpha virt. eigenvalues --    0.28600   0.30472   0.31489   0.31821   0.32120

 Mulliken charges:
               1
     1  C   -0.170501
     2  C   -0.218104
     3  C   -0.170602
     4  C    0.160149
     5  C   -0.172497
     6  C   -0.219023
     7  H    0.226021
     8  H    0.223876
     9  H    0.275878
    10  H    0.275899
    11  H    0.223819
    12  N    0.488653
    13  O   -0.458180
    14  O   -0.458955
    15  C   -0.298350
    16  C   -0.300877
    17  C   -0.477366
    18  H    0.150098
    19  H    0.145544
    20  H    0.151178
    21  H    0.148633
    22  H    0.158829
    23  H    0.155239
    24  H    0.164061
    25  C   -0.297814
    26  C   -0.298608
    27  C   -0.475499
    28  H    0.150651
    29  H    0.147974
    30  H    0.152330
    31  H    0.147709
    32  H    0.154445
    33  H    0.156502
    34  H    0.158889
 Sum of Mulliken charges =  -0.00000

 Dipole moment (field-independent basis, Debye):
    X=             -1.5310    Y=              4.8249    Z=              0.7353  Tot=              5.1151
 Quadrupole moment (field-independent basis, Debye-Ang):
   XX=           -104.5427   YY=            -92.1652   ZZ=            -90.1049
   XY=             13.1503   XZ=              0.4666   YZ=             -0.7067

 Normal termination of Gaussian 16 at Thu May  6 09:18:40 2021.
