 Gaussian 16, Revision A.03,
 Gaussian 16:  EM64L-G16RevA.03 25-Dec-2016

 -------------
 #p 6-31g* mp2
 -------------

 ------------------------------------------------------
 Input file generated by CHIRIPA (05-May-2021 14:53:18)
 ------------------------------------------------------
 Symbolic Z-matrix:
 Charge =  0 Multiplicity = 1

                         Standard orientation:
 ---------------------------------------------------------------------
 Center     Atomic      Atomic             Coordinates (Angstroms)
 Number     Number       Type             X           Y           Z
 ---------------------------------------------------------------------
      1          6           0       -3.867079    0.895534   -0.540647
      2          6           0       -2.369513    1.200130   -0.590671
      3          6           0       -2.066547    2.583401   -1.167356
      4          1           0       -4.284234    0.971233   -1.554154
      5          1           0       -4.370436    1.663634    0.062717
      6          1           0       -1.868935    0.430908   -1.192615
      7          1           0       -1.955837    1.123509    0.423044
      8          1           0       -2.539713    3.364554   -0.563606
      9          1           0       -2.452318    2.668019   -2.188444
     10          1           0       -0.990275    2.780364   -1.193900
     11          6           0       -4.185908   -0.483761    0.033480
     12          6           0       -5.683474   -0.788357    0.083504
     13          6           0       -5.986440   -2.171629    0.660189
     14          1           0       -3.682551   -1.251862   -0.569884
     15          1           0       -3.768753   -0.559461    1.046987
     16          1           0       -6.097150   -0.711736   -0.930211
     17          1           0       -6.184052   -0.019136    0.685448
     18          1           0       -5.600670   -2.256246    1.681277
     19          1           0       -5.513274   -2.952782    0.056439
     20          1           0       -7.062712   -2.368591    0.686733
     21          6           0        5.287615   -1.103790   -0.744745
     22          6           0        5.323632    0.022622    0.083761
     23          6           0        4.143074    0.553661    0.611801
     24          6           0        2.938625   -0.069689    0.289265
     25          6           0        2.870046   -1.193084   -0.533275
     26          6           0        4.063095   -1.706983   -1.050081
     27          1           0        6.209552   -1.509657   -1.150577
     28          1           0        6.273170    0.493139    0.322583
     29          1           0        4.142109    1.424699    1.255781
     30          1           0        1.908324   -1.640316   -0.753486
     31          1           0        4.032098   -2.581873   -1.693239
     32          7           0        1.682209    0.483427    0.842330
     33          8           0        0.633901   -0.084152    0.543097
     34          8           0        1.769530    1.474064    1.564584
 ---------------------------------------------------------------------

 SCF Done:  E(RHF) =  -669.535769288     A.U. after   15 cycles
 E2 =    -0.2091452846D+01 EUMP2 =    -0.67162722213335D+03

 The electronic state is 1-A.
 Alpha  occ. eigenvalues --  -20.60964 -20.60941 -15.85977 -11.31303 -11.27867
 Alpha  occ. eigenvalues --  -11.27863 -11.27603 -11.26873 -11.26863 -11.20808
 Alpha  occ. eigenvalues --  -11.20427 -11.20346 -11.20159 -11.19853 -11.19748
 Alpha  occ. eigenvalues --   -1.60016  -1.39571  -1.19472  -1.08877  -1.07297
 Alpha  occ. eigenvalues --   -1.04868  -1.02389  -0.95719  -0.94912  -0.86268
 Alpha  occ. eigenvalues --   -0.85939  -0.82554  -0.78475  -0.77609  -0.77016
 Alpha  occ. eigenvalues --   -0.72187  -0.71327  -0.70580  -0.65126  -0.64871
 Alpha  occ. eigenvalues --   -0.63943  -0.62215  -0.59796  -0.58294  -0.56477
 Alpha  occ. eigenvalues --   -0.55371  -0.54231  -0.53199  -0.52959  -0.51629
 Alpha  occ. eigenvalues --   -0.51323  -0.49057  -0.48960  -0.48848  -0.46760
 Alpha  occ. eigenvalues --   -0.45505  -0.45041  -0.44498  -0.44406  -0.42654
 Alpha  occ. eigenvalues --   -0.37450  -0.36469
 Alpha virt. eigenvalues --    0.04913   0.11186   0.16405   0.21312   0.23891
 Alpha virt. eigenvalues --    0.25366   0.27219   0.27735   0.28112   0.28767
 Alpha virt. eigenvalues --    0.29006   0.30881   0.32246   0.32534   0.32930

 Mulliken charges:
               1
     1  C   -0.299064
     2  C   -0.298245
     3  C   -0.475119
     4  H    0.143003
     5  H    0.146056
     6  H    0.149439
     7  H    0.174586
     8  H    0.151853
     9  H    0.146599
    10  H    0.160339
    11  C   -0.296586
    12  C   -0.298723
    13  C   -0.474866
    14  H    0.146970
    15  H    0.153323
    16  H    0.149237
    17  H    0.150735
    18  H    0.155258
    19  H    0.153163
    20  H    0.157330
    21  C   -0.170583
    22  C   -0.218566
    23  C   -0.170684
    24  C    0.157796
    25  C   -0.170812
    26  C   -0.218524
    27  H    0.226031
    28  H    0.223851
    29  H    0.275871
    30  H    0.275748
    31  H    0.223854
    32  N    0.489216
    33  O   -0.458683
    34  O   -0.459801
 Sum of Mulliken charges =  -0.00000

 Dipole moment (field-independent basis, Debye):
    X=              4.7864    Y=             -1.9924    Z=             -1.7920  Tot=              5.4855
 Quadrupole moment (field-independent basis, Debye-Ang):
   XX=            -69.3604   YY=            -93.5442   ZZ=            -94.9737
   XY=             -4.3779   XZ=             -3.5287   YZ=              2.6950

 Normal termination of Gaussian 16 at Thu May  6 07:36:06 2021.
