 Gaussian 16, Revision A.03,
 Gaussian 16:  EM64L-G16RevA.03 25-Dec-2016

 -------------
 #p 6-31g* mp2
 -------------

 ------------------------------------------------------
 Input file generated by CHIRIPA (05-May-2021 14:53:11)
 ------------------------------------------------------
 Symbolic Z-matrix:
 Charge =  0 Multiplicity = 1

                         Standard orientation:
 ---------------------------------------------------------------------
 Center     Atomic      Atomic             Coordinates (Angstroms)
 Number     Number       Type             X           Y           Z
 ---------------------------------------------------------------------
      1          6           0       -4.805415   -0.004050    0.125059
      2          6           0       -5.289973    0.513050   -1.229856
      3          6           0       -6.629533    1.244536   -1.138746
      4          1           0       -5.564548   -0.677302    0.546240
      5          1           0       -4.716119    0.841071    0.821616
      6          1           0       -5.377004   -0.332606   -1.924052
      7          1           0       -4.529514    1.185000   -1.647949
      8          1           0       -6.553120    2.106112   -0.467591
      9          1           0       -7.405425    0.579883   -0.745262
     10          1           0       -6.957161    1.605757   -2.118562
     11          6           0       -3.467489   -0.737597    0.050291
     12          6           0       -2.982931   -1.254697    1.405206
     13          6           0       -1.643371   -1.986183    1.314096
     14          1           0       -3.556785   -1.582718   -0.646266
     15          1           0       -2.708356   -0.064345   -0.370890
     16          1           0       -3.743390   -1.926647    1.823299
     17          1           0       -2.895900   -0.409041    2.099402
     18          1           0       -0.867479   -1.321530    0.920612
     19          1           0       -1.719784   -2.847759    0.642941
     20          1           0       -1.315743   -2.347404    2.293912
     21          6           0        4.319890   -1.770668   -1.036181
     22          6           0        3.023076   -1.842333   -0.516896
     23          6           0        2.410213   -0.707085    0.021769
     24          6           0        3.126391    0.488895    0.025056
     25          6           0        4.419693    0.592250   -0.484825
     26          6           0        5.012838   -0.555748   -1.018519
     27          1           0        4.788318   -2.657508   -1.452698
     28          1           0        2.482539   -2.784517   -0.529289
     29          1           0        1.407369   -0.734371    0.430397
     30          1           0        4.933406    1.545573   -0.458526
     31          1           0        6.020078   -0.497136   -1.421109
     32          7           0        2.488019    1.697480    0.592685
     33          8           0        3.140181    2.739229    0.583807
     34          8           0        1.347587    1.580134    1.035724
 ---------------------------------------------------------------------

 SCF Done:  E(RHF) =  -669.535736046     A.U. after   15 cycles
 E2 =    -0.2090956850D+01 EUMP2 =    -0.67162669289607D+03

 The electronic state is 1-A.
 Alpha  occ. eigenvalues --  -20.60783 -20.60776 -15.85833 -11.31168 -11.27741
 Alpha  occ. eigenvalues --  -11.27717 -11.27482 -11.26755 -11.26734 -11.21539
 Alpha  occ. eigenvalues --  -11.21398 -11.21325 -11.21239 -11.21159 -11.20868
 Alpha  occ. eigenvalues --   -1.59856  -1.39411  -1.19342  -1.08744  -1.08285
 Alpha  occ. eigenvalues --   -1.04741  -1.03443  -0.95921  -0.95583  -0.86949
 Alpha  occ. eigenvalues --   -0.86142  -0.82414  -0.79514  -0.78089  -0.77465
 Alpha  occ. eigenvalues --   -0.72054  -0.71177  -0.70462  -0.64995  -0.64919
 Alpha  occ. eigenvalues --   -0.64737  -0.62121  -0.60815  -0.59280  -0.57520
 Alpha  occ. eigenvalues --   -0.55332  -0.55135  -0.53074  -0.52874  -0.52619
 Alpha  occ. eigenvalues --   -0.52323  -0.49850  -0.48811  -0.48807  -0.47832
 Alpha  occ. eigenvalues --   -0.46513  -0.45642  -0.45532  -0.44822  -0.43682
 Alpha  occ. eigenvalues --   -0.37327  -0.36342
 Alpha virt. eigenvalues --    0.05066   0.11307   0.16565   0.20501   0.23051
 Alpha virt. eigenvalues --    0.24030   0.25598   0.27000   0.27761   0.27913
 Alpha virt. eigenvalues --    0.29239   0.30352   0.31523   0.31753   0.32105

 Mulliken charges:
               1
     1  C   -0.298771
     2  C   -0.299962
     3  C   -0.475800
     4  H    0.148344
     5  H    0.152916
     6  H    0.150111
     7  H    0.154041
     8  H    0.156629
     9  H    0.154266
    10  H    0.159798
    11  C   -0.299947
    12  C   -0.298052
    13  C   -0.484246
    14  H    0.146256
    15  H    0.154700
    16  H    0.151375
    17  H    0.159372
    18  H    0.156605
    19  H    0.151451
    20  H    0.161819
    21  C   -0.170478
    22  C   -0.223399
    23  C   -0.180425
    24  C    0.157260
    25  C   -0.169796
    26  C   -0.219173
    27  H    0.225588
    28  H    0.224552
    29  H    0.291814
    30  H    0.275521
    31  H    0.223360
    32  N    0.486438
    33  O   -0.460132
    34  O   -0.462036
 Sum of Mulliken charges =  -0.00000

 Dipole moment (field-independent basis, Debye):
    X=              2.2003    Y=             -4.1923    Z=             -1.9603  Tot=              5.1244
 Quadrupole moment (field-independent basis, Debye-Ang):
   XX=            -78.0918   YY=            -97.6896   ZZ=            -95.4088
   XY=             -9.1683   XZ=             -7.5640   YZ=             -1.4519

 Normal termination of Gaussian 16 at Wed May  5 20:05:37 2021.
