 Gaussian 16, Revision A.03,
 Gaussian 16:  EM64L-G16RevA.03 25-Dec-2016

 -------------
 #p 6-31g* mp2
 -------------

 ------------------------------------------------------
 Input file generated by CHIRIPA (05-May-2021 14:57:22)
 ------------------------------------------------------
 Symbolic Z-matrix:
 Charge =  0 Multiplicity = 1

                         Standard orientation:
 ---------------------------------------------------------------------
 Center     Atomic      Atomic             Coordinates (Angstroms)
 Number     Number       Type             X           Y           Z
 ---------------------------------------------------------------------
      1          6           0       -4.904322    1.613265    0.820069
      2          6           0       -5.072662    0.227237    0.904384
      3          6           0       -4.121436   -0.638187    0.355969
      4          6           0       -3.008895   -0.080852   -0.272457
      5          6           0       -2.812899    1.295684   -0.372586
      6          6           0       -3.776965    2.142132    0.182977
      7          1           0       -5.648245    2.278176    1.248867
      8          1           0       -5.947195   -0.186302    1.398573
      9          1           0       -4.226811   -1.715084    0.407015
     10          1           0       -1.930721    1.678282   -0.871382
     11          1           0       -3.643615    3.218133    0.116006
     12          7           0       -1.995078   -0.986992   -0.856823
     13          8           0       -1.023709   -0.470957   -1.405264
     14          8           0       -2.191013   -2.196103   -0.755343
     15          6           0        2.018202   -2.240708    0.730169
     16          6           0        2.031977   -1.771001   -0.587294
     17          6           0        2.670441   -0.568726   -0.905801
     18          6           0        3.287914    0.141511    0.122586
     19          6           0        3.291411   -0.300190    1.444773
     20          6           0        2.646854   -1.505100    1.740217
     21          1           0        1.519861   -3.175688    0.968634
     22          1           0        1.544576   -2.340187   -1.373750
     23          1           0        2.696300   -0.181906   -1.917294
     24          1           0        3.785918    0.289296    2.207262
     25          1           0        2.637749   -1.867449    2.764260
     26          7           0        3.967053    1.415700   -0.202395
     27          8           0        4.503751    2.022768    0.721759
     28          8           0        3.949802    1.783215   -1.375115
 ---------------------------------------------------------------------

 SCF Done:  E(RHF) =  -868.340010547     A.U. after   16 cycles
 E2 =    -0.2599526464D+01 EUMP2 =    -0.87093953701143D+03

 The electronic state is 1-A.
 Alpha  occ. eigenvalues --  -20.61515 -20.61462 -20.60014 -20.60002 -15.86498
 Alpha  occ. eigenvalues --  -15.85049 -11.31611 -11.30133 -11.28170 -11.28117
 Alpha  occ. eigenvalues --  -11.27846 -11.27124 -11.27078 -11.26703 -11.26520
 Alpha  occ. eigenvalues --  -11.26268 -11.25722 -11.25404  -1.60552  -1.59093
 Alpha  occ. eigenvalues --   -1.40111  -1.38653  -1.19761  -1.18250  -1.09207
 Alpha  occ. eigenvalues --   -1.07701  -1.05122  -1.03582  -0.96086  -0.94588
 Alpha  occ. eigenvalues --   -0.86533  -0.85003  -0.82927  -0.81415  -0.77999
 Alpha  occ. eigenvalues --   -0.76506  -0.72750  -0.71847  -0.71277  -0.70865
 Alpha  occ. eigenvalues --   -0.70412  -0.69355  -0.65417  -0.65123  -0.63890
 Alpha  occ. eigenvalues --   -0.63571  -0.62468  -0.60936  -0.55637  -0.54103
 Alpha  occ. eigenvalues --   -0.53471  -0.53208  -0.51975  -0.51674  -0.49508
 Alpha  occ. eigenvalues --   -0.49470  -0.48045  -0.48003  -0.45566  -0.44120
 Alpha  occ. eigenvalues --   -0.37733  -0.36714  -0.36230  -0.35099
 Alpha virt. eigenvalues --    0.04499   0.05993   0.10944   0.12498   0.16046
 Alpha virt. eigenvalues --    0.17597   0.21122   0.22620   0.27054   0.27985
 Alpha virt. eigenvalues --    0.28603   0.29417   0.30709   0.32162   0.32244

 Mulliken charges:
               1
     1  C   -0.169986
     2  C   -0.218723
     3  C   -0.171218
     4  C    0.157819
     5  C   -0.170255
     6  C   -0.218684
     7  H    0.227402
     8  H    0.224208
     9  H    0.274392
    10  H    0.278400
    11  H    0.226615
    12  N    0.489397
    13  O   -0.461316
    14  O   -0.465978
    15  C   -0.176136
    16  C   -0.202190
    17  C   -0.168843
    18  C    0.155504
    19  C   -0.175285
    20  C   -0.219742
    21  H    0.226080
    22  H    0.235245
    23  H    0.274824
    24  H    0.270152
    25  H    0.217932
    26  N    0.487853
    27  O   -0.465184
    28  O   -0.462284
 Sum of Mulliken charges =  -0.00000

 Dipole moment (field-independent basis, Debye):
    X=             -6.3667    Y=             -1.3413    Z=              2.9859  Tot=              7.1589
 Quadrupole moment (field-independent basis, Debye-Ang):
   XX=            -99.3561   YY=           -104.1449   ZZ=           -101.6317
   XY=            -22.7993   XZ=             -2.1456   YZ=             -1.9048

 Normal termination of Gaussian 16 at Thu May  6 11:15:59 2021.
