 Gaussian 16, Revision A.03,
 Gaussian 16:  EM64L-G16RevA.03 25-Dec-2016

 -------------
 #p 6-31g* mp2
 -------------

 ------------------------------------------------------
 Input file generated by CHIRIPA (05-May-2021 14:57:22)
 ------------------------------------------------------
 Symbolic Z-matrix:
 Charge =  0 Multiplicity = 1

                         Standard orientation:
 ---------------------------------------------------------------------
 Center     Atomic      Atomic             Coordinates (Angstroms)
 Number     Number       Type             X           Y           Z
 ---------------------------------------------------------------------
      1          6           0       -5.934453    1.184146   -0.625227
      2          6           0       -5.442052    1.355584    0.672722
      3          6           0       -4.311133    0.654335    1.101465
      4          6           0       -3.694619   -0.214104    0.202014
      5          6           0       -4.161190   -0.406411   -1.097455
      6          6           0       -5.293580    0.305246   -1.504623
      7          1           0       -6.813549    1.732936   -0.949905
      8          1           0       -5.937727    2.037481    1.357826
      9          1           0       -3.908739    0.768086    2.100743
     10          1           0       -3.645633   -1.093207   -1.757705
     11          1           0       -5.673763    0.170116   -2.513209
     12          7           0       -2.496587   -0.961994    0.644484
     13          8           0       -1.971541   -1.721140   -0.167094
     14          8           0       -2.105300   -0.774882    1.794493
     15          6           0        3.068974   -2.290946   -0.253664
     16          6           0        4.411714   -2.028673    0.037513
     17          6           0        4.878821   -0.712908    0.109081
     18          6           0        3.971642    0.321106   -0.117046
     19          6           0        2.627973    0.092046   -0.409234
     20          6           0        2.182951   -1.231617   -0.475716
     21          1           0        2.714692   -3.316131   -0.307283
     22          1           0        5.102068   -2.849380    0.210415
     23          1           0        5.913150   -0.481409    0.332662
     24          1           0        1.963585    0.931044   -0.576826
     25          1           0        1.139619   -1.432319   -0.702040
     26          7           0        4.454458    1.718227   -0.043973
     27          8           0        3.635147    2.611569   -0.247213
     28          8           0        5.643057    1.893495    0.215159
 ---------------------------------------------------------------------

 SCF Done:  E(RHF) =  -868.340278379     A.U. after   16 cycles
 E2 =    -0.2598223035D+01 EUMP2 =    -0.87093850141340D+03

 The electronic state is 1-A.
 Alpha  occ. eigenvalues --  -20.61653 -20.61603 -20.60079 -20.60074 -15.86645
 Alpha  occ. eigenvalues --  -15.85121 -11.31733 -11.30285 -11.28285 -11.28248
 Alpha  occ. eigenvalues --  -11.27953 -11.27224 -11.27199 -11.26847 -11.26751
 Alpha  occ. eigenvalues --  -11.26450 -11.25845 -11.25573  -1.60688  -1.59157
 Alpha  occ. eigenvalues --   -1.40248  -1.38717  -1.19878  -1.18409  -1.09324
 Alpha  occ. eigenvalues --   -1.07834  -1.05238  -1.03766  -0.96205  -0.94716
 Alpha  occ. eigenvalues --   -0.86649  -0.85165  -0.83047  -0.81546  -0.78126
 Alpha  occ. eigenvalues --   -0.76627  -0.72873  -0.71990  -0.71348  -0.70980
 Alpha  occ. eigenvalues --   -0.70475  -0.69517  -0.65534  -0.65236  -0.64051
 Alpha  occ. eigenvalues --   -0.63724  -0.62588  -0.61106  -0.55745  -0.54260
 Alpha  occ. eigenvalues --   -0.53582  -0.53325  -0.52124  -0.51830  -0.49642
 Alpha  occ. eigenvalues --   -0.49599  -0.48114  -0.48080  -0.45707  -0.44168
 Alpha  occ. eigenvalues --   -0.37839  -0.36827  -0.36374  -0.35361
 Alpha virt. eigenvalues --    0.04358   0.05871   0.10832   0.12294   0.15899
 Alpha virt. eigenvalues --    0.17437   0.20999   0.22537   0.26933   0.27812
 Alpha virt. eigenvalues --    0.28531   0.29274   0.30589   0.31944   0.32270

 Mulliken charges:
               1
     1  C   -0.169600
     2  C   -0.218345
     3  C   -0.169991
     4  C    0.157354
     5  C   -0.170919
     6  C   -0.218338
     7  H    0.227945
     8  H    0.225967
     9  H    0.277209
    10  H    0.274114
    11  H    0.225021
    12  N    0.488750
    13  O   -0.470253
    14  O   -0.455312
    15  C   -0.171929
    16  C   -0.218597
    17  C   -0.173172
    18  C    0.158199
    19  C   -0.172595
    20  C   -0.222506
    21  H    0.226730
    22  H    0.220090
    23  H    0.272156
    24  H    0.272455
    25  H    0.243465
    26  N    0.488260
    27  O   -0.463008
    28  O   -0.463151
 Sum of Mulliken charges =  -0.00000

 Dipole moment (field-independent basis, Debye):
    X=             -6.4491    Y=             -2.3075    Z=             -1.7641  Tot=              7.0730
 Quadrupole moment (field-independent basis, Debye-Ang):
   XX=            -83.8251   YY=           -108.9375   ZZ=           -101.9257
   XY=            -31.7780   XZ=              4.9516   YZ=              3.2451

 Normal termination of Gaussian 16 at Thu May  6 19:30:07 2021.
