 Gaussian 16, Revision A.03,
 Gaussian 16:  EM64L-G16RevA.03 25-Dec-2016

 -------------
 #p 6-31g* mp2
 -------------

 ------------------------------------------------------
 Input file generated by CHIRIPA (05-May-2021 14:53:16)
 ------------------------------------------------------
 Symbolic Z-matrix:
 Charge =  0 Multiplicity = 1

                         Standard orientation:
 ---------------------------------------------------------------------
 Center     Atomic      Atomic             Coordinates (Angstroms)
 Number     Number       Type             X           Y           Z
 ---------------------------------------------------------------------
      1          6           0       -5.130495    0.069689   -0.052982
      2          6           0       -5.866034   -1.270756   -0.039762
      3          6           0       -7.385730   -1.111727   -0.094797
      4          1           0       -5.468414    0.674551    0.799600
      5          1           0       -5.409472    0.624165   -0.959692
      6          1           0       -5.584687   -1.823129    0.865967
      7          1           0       -5.526184   -1.872574   -0.892365
      8          1           0       -7.684995   -0.582839   -1.005466
      9          1           0       -7.743831   -0.533113    0.762857
     10          1           0       -7.891585   -2.082223   -0.084337
     11          6           0       -3.610479   -0.072797    0.001599
     12          6           0       -2.874940    1.267648   -0.011622
     13          6           0       -1.355244    1.108619    0.043413
     14          1           0       -3.331502   -0.627273    0.908308
     15          1           0       -3.272560   -0.677659   -0.850984
     16          1           0       -3.214790    1.869466    0.840982
     17          1           0       -3.156287    1.820021   -0.917351
     18          1           0       -0.997143    0.530005   -0.814240
     19          1           0       -1.055979    0.579731    0.954082
     20          1           0       -0.849389    2.079115    0.032954
     21          6           0        2.117305    2.162463    0.131231
     22          6           0        2.311569    1.402308    1.289222
     23          6           0        3.028653    0.203200    1.239411
     24          6           0        3.539845   -0.207727    0.009326
     25          6           0        3.363160    0.527466   -1.161813
     26          6           0        2.642794    1.723392   -1.088440
     27          1           0        1.558983    3.092723    0.179077
     28          1           0        1.904611    1.740842    2.237813
     29          1           0        3.193926   -0.404850    2.120534
     30          1           0        3.780887    0.164140   -2.092896
     31          1           0        2.493486    2.311689   -1.989361
     32          7           0        4.300727   -1.475485   -0.055879
     33          8           0        4.740915   -1.815682   -1.151843
     34          8           0        4.442511   -2.104950    0.990213
 ---------------------------------------------------------------------

 SCF Done:  E(RHF) =  -669.534886533     A.U. after   15 cycles
 E2 =    -0.2091857011D+01 EUMP2 =    -0.67162674354313D+03

 The electronic state is 1-A.
 Alpha  occ. eigenvalues --  -20.60731 -20.60726 -15.85786 -11.31136 -11.27724
 Alpha  occ. eigenvalues --  -11.27718 -11.27471 -11.26729 -11.26719 -11.22052
 Alpha  occ. eigenvalues --  -11.21815 -11.21731 -11.21647 -11.21623 -11.21255
 Alpha  occ. eigenvalues --   -1.59807  -1.39361  -1.19323  -1.08773  -1.08711
 Alpha  occ. eigenvalues --   -1.04727  -1.03880  -0.96342  -0.95553  -0.87355
 Alpha  occ. eigenvalues --   -0.86125  -0.82391  -0.79944  -0.78559  -0.77432
 Alpha  occ. eigenvalues --   -0.72005  -0.71131  -0.70462  -0.65391  -0.64979
 Alpha  occ. eigenvalues --   -0.64734  -0.62077  -0.61274  -0.59751  -0.57949
 Alpha  occ. eigenvalues --   -0.55613  -0.55261  -0.53440  -0.52826  -0.52773
 Alpha  occ. eigenvalues --   -0.52618  -0.50268  -0.48763  -0.48759  -0.48256
 Alpha  occ. eigenvalues --   -0.46972  -0.46102  -0.46021  -0.44771  -0.44152
 Alpha  occ. eigenvalues --   -0.37218  -0.36321
 Alpha virt. eigenvalues --    0.05091   0.11308   0.16515   0.20747   0.22641
 Alpha virt. eigenvalues --    0.24051   0.26318   0.26680   0.27052   0.27422
 Alpha virt. eigenvalues --    0.28456   0.30253   0.31114   0.31668   0.32560

 Mulliken charges:
               1
     1  C   -0.298365
     2  C   -0.299963
     3  C   -0.475869
     4  H    0.149316
     5  H    0.149472
     6  H    0.152583
     7  H    0.152891
     8  H    0.155199
     9  H    0.155056
    10  H    0.161307
    11  C   -0.298797
    12  C   -0.300923
    13  C   -0.471178
    14  H    0.150294
    15  H    0.151237
    16  H    0.150500
    17  H    0.151313
    18  H    0.159098
    19  H    0.155531
    20  H    0.148068
    21  C   -0.164873
    22  C   -0.216898
    23  C   -0.171454
    24  C    0.158420
    25  C   -0.171086
    26  C   -0.219549
    27  H    0.224848
    28  H    0.223240
    29  H    0.275333
    30  H    0.275375
    31  H    0.223159
    32  N    0.488113
    33  O   -0.460720
    34  O   -0.460675
 Sum of Mulliken charges =  -0.00000

 Dipole moment (field-independent basis, Debye):
    X=             -2.7269    Y=              4.4294    Z=              0.2202  Tot=              5.2062
 Quadrupole moment (field-independent basis, Debye-Ang):
   XX=           -115.6846   YY=            -97.3641   ZZ=            -88.8968
   XY=             16.7669   XZ=             -0.0255   YZ=             -0.7341

 Normal termination of Gaussian 16 at Thu May  6 12:15:52 2021.
