 Gaussian 16, Revision A.03,
 Gaussian 16:  EM64L-G16RevA.03 25-Dec-2016

 -------------
 #p 6-31g* mp2
 -------------

 ------------------------------------------------------
 Input file generated by CHIRIPA (05-May-2021 14:51:10)
 ------------------------------------------------------
 Symbolic Z-matrix:
 Charge =  0 Multiplicity = 1

                         Standard orientation:
 ---------------------------------------------------------------------
 Center     Atomic      Atomic             Coordinates (Angstroms)
 Number     Number       Type             X           Y           Z
 ---------------------------------------------------------------------
      1          6           0        3.046258    0.580803   -0.053279
      2          6           0        3.447585    1.984699   -0.507149
      3          6           0        2.340159    3.015930   -0.288138
      4          1           0        2.142522    0.271285   -0.595869
      5          1           0        2.776800    0.610302    1.011577
      6          1           0        3.717534    1.952291   -1.570490
      7          1           0        4.350581    2.290835    0.036445
      8          1           0        2.075519    3.077681    0.772406
      9          1           0        1.438874    2.737213   -0.843659
     10          1           0        2.648321    4.012476   -0.619487
     11          6           0        4.142955   -0.461226   -0.265788
     12          6           0        3.741629   -1.865122    0.188082
     13          6           0        4.849054   -2.896353   -0.030929
     14          1           0        4.412413   -0.490725   -1.330644
     15          1           0        5.046691   -0.151707    0.276802
     16          1           0        2.838632   -2.171258   -0.355512
     17          1           0        3.471680   -1.832714    1.251423
     18          1           0        5.750339   -2.617636    0.524592
     19          1           0        5.113695   -2.958104   -1.091473
     20          1           0        4.540893   -3.892899    0.300420
     21          6           0       -2.849003   -0.038648   -0.004963
     22          6           0       -2.001907    0.593045    1.100197
     23          6           0       -0.512487    0.628129    0.756406
     24          1           0       -2.490802   -1.059805   -0.194376
     25          1           0       -2.700166    0.522847   -0.937682
     26          1           0       -2.153362    0.031364    2.030891
     27          1           0       -2.362289    1.612749    1.287135
     28          1           0       -0.341653    1.205666   -0.157853
     29          1           0       -0.131540   -0.384704    0.590130
     30          1           0        0.074419    1.083655    1.560084
     31          6           0       -4.340211   -0.080930    0.324029
     32          6           0       -5.187306   -0.712623   -0.781131
     33          6           0       -6.676726   -0.747707   -0.437339
     34          1           0       -4.489047   -0.642424    1.256749
     35          1           0       -4.698412    0.940227    0.513443
     36          1           0       -4.826925   -1.732326   -0.968068
     37          1           0       -5.035851   -0.150941   -1.711824
     38          1           0       -7.057673    0.265127   -0.271062
     39          1           0       -6.847560   -1.325242    0.476919
     40          1           0       -7.263632   -1.203232   -1.241017
 ---------------------------------------------------------------------

 SCF Done:  E(RHF) =  -470.731826069     A.U. after   11 cycles
 E2 =    -0.1583952641D+01 EUMP2 =    -0.47231577871025D+03

 The electronic state is 1-A.
 Alpha  occ. eigenvalues --  -11.21592 -11.21566 -11.21523 -11.21518 -11.21385
 Alpha  occ. eigenvalues --  -11.21325 -11.21304 -11.21195 -11.21064 -11.21045
 Alpha  occ. eigenvalues --  -11.20984 -11.20952  -1.08415  -1.08339  -1.03535
 Alpha  occ. eigenvalues --   -1.03431  -0.95950  -0.95913  -0.86983  -0.86930
 Alpha  occ. eigenvalues --   -0.79728  -0.79424  -0.78293  -0.78026  -0.65045
 Alpha  occ. eigenvalues --   -0.64984  -0.60976  -0.60820  -0.59417  -0.59184
 Alpha  occ. eigenvalues --   -0.57591  -0.57520  -0.55323  -0.55114  -0.52728
 Alpha  occ. eigenvalues --   -0.52569  -0.52433  -0.52312  -0.49982  -0.49756
 Alpha  occ. eigenvalues --   -0.48035  -0.47760  -0.46658  -0.46456  -0.45952
 Alpha  occ. eigenvalues --   -0.45690  -0.45642  -0.45342  -0.43724  -0.43666
 Alpha virt. eigenvalues --    0.21759   0.23069   0.23630   0.24717   0.25430
 Alpha virt. eigenvalues --    0.26096   0.26706   0.27688   0.27821   0.29324
 Alpha virt. eigenvalues --    0.30032   0.31099   0.31682   0.32224   0.32516

 Mulliken charges:
               1
     1  C   -0.300917
     2  C   -0.299937
     3  C   -0.476280
     4  H    0.155668
     5  H    0.150271
     6  H    0.151069
     7  H    0.151177
     8  H    0.155208
     9  H    0.156845
    10  H    0.159127
    11  C   -0.297874
    12  C   -0.299689
    13  C   -0.475558
    14  H    0.148892
    15  H    0.148999
    16  H    0.151344
    17  H    0.151775
    18  H    0.155183
    19  H    0.155126
    20  H    0.159939
    21  C   -0.298391
    22  C   -0.301566
    23  C   -0.475166
    24  H    0.149304
    25  H    0.148969
    26  H    0.151298
    27  H    0.151588
    28  H    0.156961
    29  H    0.155475
    30  H    0.161221
    31  C   -0.298135
    32  C   -0.299593
    33  C   -0.475683
    34  H    0.149518
    35  H    0.149666
    36  H    0.151830
    37  H    0.151797
    38  H    0.155184
    39  H    0.155175
    40  H    0.160180
 Sum of Mulliken charges =  -0.00000

 Dipole moment (field-independent basis, Debye):
    X=             -0.0069    Y=              0.0044    Z=              0.0057  Tot=              0.0100
 Quadrupole moment (field-independent basis, Debye-Ang):
   XX=            -86.6877   YY=            -84.7648   ZZ=            -83.7535
   XY=              0.4259   XZ=              0.6293   YZ=             -0.2698

 Normal termination of Gaussian 16 at Wed May  5 16:42:34 2021.
