 Gaussian 16, Revision A.03,
 Gaussian 16:  EM64L-G16RevA.03 25-Dec-2016

 -------------
 #p 6-31g* mp2
 -------------

 ------------------------------------------------------
 Input file generated by CHIRIPA (05-May-2021 14:55:22)
 ------------------------------------------------------
 Symbolic Z-matrix:
 Charge =  0 Multiplicity = 1

                         Standard orientation:
 ---------------------------------------------------------------------
 Center     Atomic      Atomic             Coordinates (Angstroms)
 Number     Number       Type             X           Y           Z
 ---------------------------------------------------------------------
      1          6           0        2.766276   -1.905674   -1.608772
      2          6           0        2.942290   -0.531992   -1.805083
      3          6           0        2.637781    0.375601   -0.786213
      4          6           0        2.157100   -0.127433    0.421758
      5          6           0        1.970990   -1.490347    0.647853
      6          6           0        2.282042   -2.379632   -0.385088
      7          1           0        3.005368   -2.603603   -2.405720
      8          1           0        3.318189   -0.161060   -2.754374
      9          1           0        2.764565    1.444107   -0.911272
     10          1           0        1.594547   -1.830075    1.605085
     11          1           0        2.144354   -3.445922   -0.229809
     12          7           0        1.831266    0.823705    1.507838
     13          8           0        1.409246    0.355173    2.562833
     14          8           0        2.004068    2.019727    1.283548
     15          6           0       -2.619646    0.869573   -0.843098
     16          6           0       -1.666876    1.943401   -0.316686
     17          6           0       -1.255418    2.947933   -1.393445
     18          1           0       -2.139603    0.339359   -1.676991
     19          1           0       -3.515531    1.354276   -1.255223
     20          1           0       -0.773668    1.456745    0.095579
     21          1           0       -2.149168    2.470992    0.516176
     22          1           0       -2.134219    3.459887   -1.798676
     23          1           0       -0.750904    2.439877   -2.221664
     24          1           0       -0.574313    3.706600   -0.995475
     25          6           0       -3.040005   -0.142042    0.221637
     26          6           0       -3.992774   -1.215870   -0.304776
     27          6           0       -4.404233   -2.220402    0.771983
     28          1           0       -2.144120   -0.626746    0.633762
     29          1           0       -3.520047    0.388171    1.055529
     30          1           0       -3.510483   -1.743461   -1.137637
     31          1           0       -4.885982   -0.729214   -0.717039
     32          1           0       -4.908746   -1.712345    1.600202
     33          1           0       -3.525431   -2.732355    1.177214
     34          1           0       -5.085338   -2.979068    0.374014
 ---------------------------------------------------------------------

 SCF Done:  E(RHF) =  -669.535792431     A.U. after   15 cycles
 E2 =    -0.2092266708D+01 EUMP2 =    -0.67162805913915D+03

 The electronic state is 1-A.
 Alpha  occ. eigenvalues --  -20.60866 -20.60860 -15.85902 -11.31277 -11.27844
 Alpha  occ. eigenvalues --  -11.27834 -11.27580 -11.26856 -11.26845 -11.21464
 Alpha  occ. eigenvalues --  -11.21152 -11.21115 -11.21055 -11.20973 -11.20677
 Alpha  occ. eigenvalues --   -1.59936  -1.39488  -1.19447  -1.08844  -1.08150
 Alpha  occ. eigenvalues --   -1.04845  -1.03249  -0.95711  -0.95675  -0.86733
 Alpha  occ. eigenvalues --   -0.86243  -0.82505  -0.79313  -0.77947  -0.77552
 Alpha  occ. eigenvalues --   -0.72125  -0.71277  -0.70548  -0.65098  -0.64847
 Alpha  occ. eigenvalues --   -0.64785  -0.62190  -0.60660  -0.59067  -0.57294
 Alpha  occ. eigenvalues --   -0.55345  -0.55020  -0.53176  -0.52935  -0.52398
 Alpha  occ. eigenvalues --   -0.52132  -0.49679  -0.48887  -0.48882  -0.47626
 Alpha  occ. eigenvalues --   -0.46372  -0.45494  -0.45436  -0.44840  -0.43499
 Alpha  occ. eigenvalues --   -0.37422  -0.36447
 Alpha virt. eigenvalues --    0.04968   0.11166   0.16443   0.21294   0.22961
 Alpha virt. eigenvalues --    0.24403   0.26608   0.27179   0.27579   0.28059
 Alpha virt. eigenvalues --    0.28555   0.30881   0.31475   0.31973   0.32186

 Mulliken charges:
               1
     1  C   -0.170726
     2  C   -0.218619
     3  C   -0.171445
     4  C    0.155440
     5  C   -0.171830
     6  C   -0.218560
     7  H    0.225985
     8  H    0.223958
     9  H    0.276571
    10  H    0.275945
    11  H    0.223828
    12  N    0.489929
    13  O   -0.458956
    14  O   -0.458870
    15  C   -0.298549
    16  C   -0.297016
    17  C   -0.476944
    18  H    0.145660
    19  H    0.148409
    20  H    0.150447
    21  H    0.156971
    22  H    0.153295
    23  H    0.147703
    24  H    0.168030
    25  C   -0.297556
    26  C   -0.299303
    27  C   -0.474988
    28  H    0.148922
    29  H    0.152725
    30  H    0.148766
    31  H    0.151802
    32  H    0.157080
    33  H    0.153271
    34  H    0.158626
 Sum of Mulliken charges =  -0.00000

 Dipole moment (field-independent basis, Debye):
    X=              1.2212    Y=             -3.2759    Z=             -3.7273  Tot=              5.1103
 Quadrupole moment (field-independent basis, Debye-Ang):
   XX=            -89.7592   YY=            -91.3785   ZZ=            -97.2312
   XY=             -7.2711   XZ=             -9.0790   YZ=             -2.5946

 Normal termination of Gaussian 16 at Thu May  6 10:56:40 2021.
