 Gaussian 16, Revision A.03,
 Gaussian 16:  EM64L-G16RevA.03 25-Dec-2016

 -------------
 #p 6-31g* mp2
 -------------

 ------------------------------------------------------
 Input file generated by CHIRIPA (05-May-2021 14:51:10)
 ------------------------------------------------------
 Symbolic Z-matrix:
 Charge =  0 Multiplicity = 1

                         Standard orientation:
 ---------------------------------------------------------------------
 Center     Atomic      Atomic             Coordinates (Angstroms)
 Number     Number       Type             X           Y           Z
 ---------------------------------------------------------------------
      1          6           0       -3.588534   -0.119102    0.092931
      2          6           0       -4.179782   -0.561057   -1.246131
      3          6           0       -5.437131    0.222318   -1.624538
      4          1           0       -4.347008   -0.238494    0.878684
      5          1           0       -3.353298    0.953208    0.045911
      6          1           0       -4.412550   -1.632517   -1.197065
      7          1           0       -3.419751   -0.440779   -2.028756
      8          1           0       -5.216197    1.291867   -1.701051
      9          1           0       -6.214638    0.093358   -0.864634
     10          1           0       -5.843159   -0.109798   -2.585111
     11          6           0       -2.331123   -0.893039    0.484936
     12          6           0       -1.739875   -0.451084    1.823997
     13          6           0       -0.482526   -1.234458    2.202404
     14          1           0       -2.566359   -1.965348    0.531955
     15          1           0       -1.572649   -0.773647   -0.300818
     16          1           0       -2.499906   -0.571361    2.606622
     17          1           0       -1.507107    0.620377    1.774931
     18          1           0        0.294981   -1.105498    1.442500
     19          1           0       -0.703460   -2.304007    2.278917
     20          1           0       -0.076498   -0.902342    3.162977
     21          6           0        2.696559    1.202190   -0.460800
     22          6           0        1.721456    1.755455    0.578940
     23          6           0        1.203497    3.148819    0.221096
     24          1           0        3.543446    1.894236   -0.564712
     25          1           0        2.198169    1.168936   -1.439522
     26          1           0        2.221091    1.786358    1.555682
     27          1           0        0.876885    1.061916    0.680528
     28          1           0        0.680981    3.130282   -0.740795
     29          1           0        2.032825    3.858840    0.139330
     30          1           0        0.508034    3.525162    0.977771
     31          6           0        3.223098   -0.190050   -0.117067
     32          6           0        4.198201   -0.743315   -1.156806
     33          6           0        4.716160   -2.136678   -0.798962
     34          1           0        3.721487   -0.156796    0.861655
     35          1           0        2.376210   -0.882096   -0.013154
     36          1           0        5.042772   -0.049776   -1.258395
     37          1           0        3.698565   -0.774218   -2.133548
     38          1           0        3.886832   -2.846700   -0.717197
     39          1           0        5.238676   -2.118142    0.162928
     40          1           0        5.411623   -2.513022   -1.555637
 ---------------------------------------------------------------------

 SCF Done:  E(RHF) =  -470.732628720     A.U. after   11 cycles
 E2 =    -0.1584012454D+01 EUMP2 =    -0.47231664117450D+03

 The electronic state is 1-A.
 Alpha  occ. eigenvalues --  -11.21624 -11.21618 -11.21612 -11.21585 -11.21438
 Alpha  occ. eigenvalues --  -11.21432 -11.21376 -11.21373 -11.21104 -11.21086
 Alpha  occ. eigenvalues --  -11.21072 -11.21026  -1.08489  -1.08427  -1.03592
 Alpha  occ. eigenvalues --   -1.03505  -0.96001  -0.95995  -0.87026  -0.87001
 Alpha  occ. eigenvalues --   -0.79618  -0.79608  -0.78306  -0.78242  -0.65304
 Alpha  occ. eigenvalues --   -0.64922  -0.61184  -0.60735  -0.59377  -0.59336
 Alpha  occ. eigenvalues --   -0.57671  -0.57544  -0.55318  -0.55283  -0.52706
 Alpha  occ. eigenvalues --   -0.52669  -0.52448  -0.52391  -0.49973  -0.49941
 Alpha  occ. eigenvalues --   -0.47993  -0.47891  -0.46711  -0.46629  -0.45961
 Alpha  occ. eigenvalues --   -0.45764  -0.45738  -0.45418  -0.43804  -0.43798
 Alpha virt. eigenvalues --    0.20323   0.23109   0.23792   0.24304   0.25685
 Alpha virt. eigenvalues --    0.26512   0.26907   0.27673   0.28416   0.29315
 Alpha virt. eigenvalues --    0.30914   0.31192   0.31785   0.31839   0.32227

 Mulliken charges:
               1
     1  C   -0.298338
     2  C   -0.299636
     3  C   -0.475744
     4  H    0.149857
     5  H    0.149851
     6  H    0.151959
     7  H    0.151708
     8  H    0.155304
     9  H    0.155258
    10  H    0.160291
    11  C   -0.298731
    12  C   -0.302620
    13  C   -0.482189
    14  H    0.149900
    15  H    0.148398
    16  H    0.152723
    17  H    0.153583
    18  H    0.161266
    19  H    0.155117
    20  H    0.160852
    21  C   -0.298105
    22  C   -0.308001
    23  C   -0.475584
    24  H    0.149845
    25  H    0.148784
    26  H    0.152140
    27  H    0.161701
    28  H    0.154577
    29  H    0.155446
    30  H    0.160015
    31  C   -0.303013
    32  C   -0.299377
    33  C   -0.475772
    34  H    0.150107
    35  H    0.153438
    36  H    0.152133
    37  H    0.151785
    38  H    0.155447
    39  H    0.155358
    40  H    0.160266
 Sum of Mulliken charges =  -0.00000

 Dipole moment (field-independent basis, Debye):
    X=              0.0097    Y=             -0.0061    Z=              0.0156  Tot=              0.0194
 Quadrupole moment (field-independent basis, Debye-Ang):
   XX=            -84.8147   YY=            -85.4204   ZZ=            -84.4801
   XY=              1.6182   XZ=             -0.2872   YZ=              0.2177

 Normal termination of Gaussian 16 at Wed May  5 19:49:08 2021.
