 Gaussian 16, Revision A.03,
 Gaussian 16:  EM64L-G16RevA.03 25-Dec-2016

 -------------
 #p 6-31g* mp2
 -------------

 ------------------------------------------------------
 Input file generated by CHIRIPA (05-May-2021 14:57:23)
 ------------------------------------------------------
 Symbolic Z-matrix:
 Charge =  0 Multiplicity = 1

                         Standard orientation:
 ---------------------------------------------------------------------
 Center     Atomic      Atomic             Coordinates (Angstroms)
 Number     Number       Type             X           Y           Z
 ---------------------------------------------------------------------
      1          6           0       -3.647754    2.531087    0.359557
      2          6           0       -3.692601    1.643744    1.439897
      3          6           0       -3.558220    0.267435    1.234314
      4          6           0       -3.379569   -0.189074   -0.070666
      5          6           0       -3.330601    0.669767   -1.167609
      6          6           0       -3.467216    2.042128   -0.938459
      7          1           0       -3.753012    3.598703    0.528412
      8          1           0       -3.832696    2.020641    2.449038
      9          1           0       -3.589157   -0.441787    2.052523
     10          1           0       -3.189754    0.264185   -2.162136
     11          1           0       -3.431991    2.728915   -1.779368
     12          7           0       -3.236124   -1.644021   -0.300782
     13          8           0       -3.079740   -2.020986   -1.460125
     14          8           0       -3.282792   -2.379893    0.682555
     15          6           0        1.009357   -0.837351    0.161567
     16          6           0        1.292753    0.490166   -0.175934
     17          6           0        2.615379    0.937019   -0.250306
     18          6           0        3.634640    0.025330    0.020286
     19          6           0        3.384429   -1.303514    0.359194
     20          6           0        2.054257   -1.728383    0.427584
     21          1           0       -0.021022   -1.175938    0.217017
     22          1           0        0.483285    1.184367   -0.383041
     23          1           0        2.863137    1.959262   -0.509251
     24          1           0        4.212591   -1.972205    0.560238
     25          1           0        1.837141   -2.759924    0.689937
     26          7           0        5.038838    0.486756   -0.055282
     27          8           0        5.918873   -0.336133    0.187676
     28          8           0        5.232827    1.662576   -0.356040
 ---------------------------------------------------------------------

 SCF Done:  E(RHF) =  -868.338595973     A.U. after   16 cycles
 E2 =    -0.2599636695D+01 EUMP2 =    -0.87093823266846D+03

 The electronic state is 1-A.
 Alpha  occ. eigenvalues --  -20.61922 -20.61912 -20.60629 -20.60618 -15.86967
 Alpha  occ. eigenvalues --  -15.85677 -11.32278 -11.30979 -11.28821 -11.28800
 Alpha  occ. eigenvalues --  -11.28494 -11.27785 -11.27749 -11.27576 -11.27511
 Alpha  occ. eigenvalues --  -11.27226 -11.26562 -11.26462  -1.61018  -1.59703
 Alpha  occ. eigenvalues --   -1.40559  -1.39258  -1.20434  -1.19139  -1.09830
 Alpha  occ. eigenvalues --   -1.08534  -1.05796  -1.04536  -0.96669  -0.95384
 Alpha  occ. eigenvalues --   -0.87189  -0.85926  -0.83479  -0.82223  -0.78551
 Alpha  occ. eigenvalues --   -0.77288  -0.73157  -0.72405  -0.71896  -0.71480
 Alpha  occ. eigenvalues --   -0.71026  -0.70203  -0.66055  -0.65756  -0.64786
 Alpha  occ. eigenvalues --   -0.64526  -0.63120  -0.61888  -0.56259  -0.55004
 Alpha  occ. eigenvalues --   -0.54164  -0.53852  -0.52865  -0.52616  -0.49931
 Alpha  occ. eigenvalues --   -0.49922  -0.48656  -0.48648  -0.45961  -0.44679
 Alpha  occ. eigenvalues --   -0.38409  -0.37413  -0.37090  -0.36146
 Alpha virt. eigenvalues --    0.03931   0.05249   0.10244   0.11519   0.15450
 Alpha virt. eigenvalues --    0.16768   0.20531   0.21388   0.26473   0.27279
 Alpha virt. eigenvalues --    0.27479   0.27786   0.30180   0.30962   0.31648

 Mulliken charges:
               1
     1  C   -0.171017
     2  C   -0.218333
     3  C   -0.172781
     4  C    0.150266
     5  C   -0.174631
     6  C   -0.221238
     7  H    0.229988
     8  H    0.227763
     9  H    0.277886
    10  H    0.278524
    11  H    0.227445
    12  N    0.485982
    13  O   -0.457095
    14  O   -0.459853
    15  C   -0.169721
    16  C   -0.220335
    17  C   -0.171696
    18  C    0.158180
    19  C   -0.171275
    20  C   -0.219319
    21  H    0.228506
    22  H    0.220271
    23  H    0.272883
    24  H    0.275543
    25  H    0.228502
    26  N    0.488149
    27  O   -0.460298
    28  O   -0.462296
 Sum of Mulliken charges =  -0.00000

 Dipole moment (field-independent basis, Debye):
    X=             -5.7246    Y=              3.5008    Z=              1.1156  Tot=              6.8023
 Quadrupole moment (field-independent basis, Debye-Ang):
   XX=           -137.8791   YY=           -102.7180   ZZ=           -100.3942
   XY=            -25.7197   XZ=             -1.9806   YZ=             -2.7388

 Normal termination of Gaussian 16 at Thu May  6 19:36:03 2021.
