 Gaussian 16, Revision A.03,
 Gaussian 16:  EM64L-G16RevA.03 25-Dec-2016

 -------------
 #p 6-31g* mp2
 -------------

 ------------------------------------------------------
 Input file generated by CHIRIPA (05-May-2021 14:51:11)
 ------------------------------------------------------
 Symbolic Z-matrix:
 Charge =  0 Multiplicity = 1

                         Standard orientation:
 ---------------------------------------------------------------------
 Center     Atomic      Atomic             Coordinates (Angstroms)
 Number     Number       Type             X           Y           Z
 ---------------------------------------------------------------------
      1          6           0       -3.792187    0.428561   -0.119940
      2          6           0       -5.208803    0.154646    0.386177
      3          6           0       -6.074561    1.414127    0.430522
      4          1           0       -3.317330    1.179058    0.526753
      5          1           0       -3.848272    0.871605   -1.123913
      6          1           0       -5.150017   -0.289027    1.388332
      7          1           0       -5.680274   -0.595427   -0.261682
      8          1           0       -6.162918    1.856187   -0.567164
      9          1           0       -5.629647    2.164328    1.092225
     10          1           0       -7.083039    1.195436    0.795222
     11          6           0       -2.914580   -0.820852   -0.169962
     12          6           0       -1.497964   -0.546937   -0.676079
     13          6           0       -0.632207   -1.806418   -0.720423
     14          1           0       -2.858496   -1.263896    0.834011
     15          1           0       -3.389437   -1.571349   -0.816654
     16          1           0       -1.026493    0.203136   -0.028220
     17          1           0       -1.556751   -0.103264   -1.678233
     18          1           0       -1.077120   -2.556619   -1.382126
     19          1           0       -0.543850   -2.248478    0.277262
     20          1           0        0.376272   -1.587728   -1.085123
     21          6           0        3.400378    0.893705    0.452577
     22          6           0        3.620408    1.998714   -0.581119
     23          6           0        3.712323    3.388485    0.049660
     24          1           0        2.480367    1.104303    1.014872
     25          1           0        4.223102    0.913237    1.180683
     26          1           0        2.798238    1.976213   -1.307856
     27          1           0        4.539899    1.785360   -1.141148
     28          1           0        4.543661    3.434680    0.760536
     29          1           0        2.792103    3.626617    0.592882
     30          1           0        3.869668    4.163269   -0.707183
     31          6           0        3.306390   -0.501414   -0.162675
     32          6           0        3.086359   -1.606423    0.871021
     33          6           0        2.994444   -2.996194    0.240242
     34          1           0        2.483665   -0.520946   -0.890781
     35          1           0        4.226400   -0.712012   -0.724970
     36          1           0        2.166868   -1.393070    1.431050
     37          1           0        3.908529   -1.583922    1.597758
     38          1           0        3.914664   -3.234326   -0.302980
     39          1           0        2.163106   -3.042390   -0.470635
     40          1           0        2.837099   -3.770978    0.997085
 ---------------------------------------------------------------------

 SCF Done:  E(RHF) =  -470.732377538     A.U. after   11 cycles
 E2 =    -0.1583779800D+01 EUMP2 =    -0.47231615733821D+03

 The electronic state is 1-A.
 Alpha  occ. eigenvalues --  -11.21678 -11.21633 -11.21593 -11.21544 -11.21454
 Alpha  occ. eigenvalues --  -11.21393 -11.21391 -11.21330 -11.21119 -11.21096
 Alpha  occ. eigenvalues --  -11.21066 -11.20936  -1.08489  -1.08403  -1.03610
 Alpha  occ. eigenvalues --   -1.03470  -0.96054  -0.95926  -0.87069  -0.86952
 Alpha  occ. eigenvalues --   -0.79676  -0.79537  -0.78294  -0.78230  -0.65179
 Alpha  occ. eigenvalues --   -0.65025  -0.61119  -0.60860  -0.59453  -0.59204
 Alpha  occ. eigenvalues --   -0.57638  -0.57551  -0.55380  -0.55182  -0.52761
 Alpha  occ. eigenvalues --   -0.52624  -0.52477  -0.52340  -0.49972  -0.49880
 Alpha  occ. eigenvalues --   -0.47999  -0.47848  -0.46677  -0.46579  -0.45843
 Alpha  occ. eigenvalues --   -0.45758  -0.45756  -0.45680  -0.43772  -0.43727
 Alpha virt. eigenvalues --    0.20547   0.23148   0.23757   0.25116   0.26113
 Alpha virt. eigenvalues --    0.26275   0.27066   0.27308   0.28101   0.29186
 Alpha virt. eigenvalues --    0.30432   0.31080   0.31703   0.31883   0.32106

 Mulliken charges:
               1
     1  C   -0.298296
     2  C   -0.299678
     3  C   -0.475734
     4  H    0.149578
     5  H    0.149616
     6  H    0.152003
     7  H    0.152041
     8  H    0.155235
     9  H    0.155211
    10  H    0.160384
    11  C   -0.298646
    12  C   -0.300047
    13  C   -0.483176
    14  H    0.149676
    15  H    0.149973
    16  H    0.151470
    17  H    0.151959
    18  H    0.155557
    19  H    0.156895
    20  H    0.166586
    21  C   -0.297878
    22  C   -0.299780
    23  C   -0.475662
    24  H    0.149317
    25  H    0.149601
    26  H    0.152079
    27  H    0.151946
    28  H    0.155152
    29  H    0.155071
    30  H    0.160258
    31  C   -0.303339
    32  C   -0.300175
    33  C   -0.480306
    34  H    0.153002
    35  H    0.149839
    36  H    0.152818
    37  H    0.151918
    38  H    0.154155
    39  H    0.161903
    40  H    0.159473
 Sum of Mulliken charges =  -0.00000

 Dipole moment (field-independent basis, Debye):
    X=             -0.0345    Y=             -0.0087    Z=             -0.0126  Tot=              0.0377
 Quadrupole moment (field-independent basis, Debye-Ang):
   XX=            -84.3162   YY=            -86.5801   ZZ=            -83.9459
   XY=              0.5280   XZ=              0.4116   YZ=             -0.2029

 Normal termination of Gaussian 16 at Thu May  6 07:01:34 2021.
