 Gaussian 16, Revision A.03,
 Gaussian 16:  EM64L-G16RevA.03 25-Dec-2016

 -------------
 #p 6-31g* mp2
 -------------

 ------------------------------------------------------
 Input file generated by CHIRIPA (05-May-2021 14:53:13)
 ------------------------------------------------------
 Symbolic Z-matrix:
 Charge =  0 Multiplicity = 1

                         Standard orientation:
 ---------------------------------------------------------------------
 Center     Atomic      Atomic             Coordinates (Angstroms)
 Number     Number       Type             X           Y           Z
 ---------------------------------------------------------------------
      1          6           0        4.186402   -0.038286   -0.384878
      2          6           0        4.498817   -1.254415    0.487712
      3          6           0        5.926925   -1.766695    0.298320
      4          1           0        4.346422   -0.300891   -1.439571
      5          1           0        4.899028    0.764783   -0.151127
      6          1           0        3.784945   -2.054469    0.253367
      7          1           0        4.337850   -0.988942    1.540436
      8          1           0        6.652618   -0.986948    0.551236
      9          1           0        6.096572   -2.058530   -0.743147
     10          1           0        6.128788   -2.636283    0.931509
     11          6           0        2.762423    0.485425   -0.206724
     12          6           0        2.450009    1.701554   -1.079313
     13          6           0        1.021901    2.213834   -0.889921
     14          1           0        2.049798   -0.317644   -0.440475
     15          1           0        2.602403    0.748030    0.847969
     16          1           0        2.610976    1.436081   -2.132038
     17          1           0        3.163881    2.501608   -0.844968
     18          1           0        0.852254    2.505669    0.151546
     19          1           0        0.296208    1.434088   -1.142837
     20          1           0        0.820038    3.083422   -1.523110
     21          6           0       -1.793861    1.876586    1.376055
     22          6           0       -2.473570    1.999515    0.159747
     23          6           0       -2.987823    0.869805   -0.483564
     24          6           0       -2.803378   -0.372971    0.120404
     25          6           0       -2.130775   -0.527960    1.331549
     26          6           0       -1.624931    0.615464    1.957050
     27          1           0       -1.397643    2.759499    1.868876
     28          1           0       -2.606256    2.977651   -0.293784
     29          1           0       -3.518096    0.936286   -1.425800
     30          1           0       -2.014232   -1.516376    1.759181
     31          1           0       -1.097487    0.516989    2.901587
     32          7           0       -3.343344   -1.576203   -0.551213
     33          8           0       -3.167570   -2.659810    0.001542
     34          8           0       -3.932116   -1.412907   -1.617664
 ---------------------------------------------------------------------

 SCF Done:  E(RHF) =  -669.534519908     A.U. after   15 cycles
 E2 =    -0.2092853832D+01 EUMP2 =    -0.67162737374060D+03

 The electronic state is 1-A.
 Alpha  occ. eigenvalues --  -20.60773 -20.60768 -15.85827 -11.31188 -11.27757
 Alpha  occ. eigenvalues --  -11.27745 -11.27467 -11.26753 -11.26726 -11.21893
 Alpha  occ. eigenvalues --  -11.21792 -11.21674 -11.21581 -11.21419 -11.21214
 Alpha  occ. eigenvalues --   -1.59850  -1.39403  -1.19359  -1.08767  -1.08669
 Alpha  occ. eigenvalues --   -1.04757  -1.03781  -0.96247  -0.95587  -0.87268
 Alpha  occ. eigenvalues --   -0.86150  -0.82421  -0.79857  -0.78494  -0.77467
 Alpha  occ. eigenvalues --   -0.72044  -0.71175  -0.70474  -0.65311  -0.65007
 Alpha  occ. eigenvalues --   -0.64753  -0.62102  -0.61181  -0.59616  -0.57884
 Alpha  occ. eigenvalues --   -0.55569  -0.55229  -0.53476  -0.52937  -0.52834
 Alpha  occ. eigenvalues --   -0.52325  -0.50180  -0.48803  -0.48800  -0.48132
 Alpha  occ. eigenvalues --   -0.46882  -0.46036  -0.45949  -0.44811  -0.44048
 Alpha  occ. eigenvalues --   -0.37241  -0.36335
 Alpha virt. eigenvalues --    0.05040   0.11243   0.16488   0.21043   0.22691
 Alpha virt. eigenvalues --    0.24106   0.26281   0.26987   0.27060   0.27687
 Alpha virt. eigenvalues --    0.28562   0.30331   0.31323   0.31749   0.32061

 Mulliken charges:
               1
     1  C   -0.298429
     2  C   -0.299917
     3  C   -0.475836
     4  H    0.151430
     5  H    0.148953
     6  H    0.153854
     7  H    0.149720
     8  H    0.154753
     9  H    0.156416
    10  H    0.160913
    11  C   -0.297478
    12  C   -0.300631
    13  C   -0.474796
    14  H    0.152331
    15  H    0.144811
    16  H    0.154017
    17  H    0.150564
    18  H    0.146712
    19  H    0.162333
    20  H    0.155744
    21  C   -0.166846
    22  C   -0.214289
    23  C   -0.173193
    24  C    0.157932
    25  C   -0.171004
    26  C   -0.218569
    27  H    0.225200
    28  H    0.223897
    29  H    0.275581
    30  H    0.275590
    31  H    0.223254
    32  N    0.488059
    33  O   -0.460538
    34  O   -0.460537
 Sum of Mulliken charges =  -0.00000

 Dipole moment (field-independent basis, Debye):
    X=              1.8878    Y=              4.2050    Z=              2.3467  Tot=              5.1723
 Quadrupole moment (field-independent basis, Debye-Ang):
   XX=           -106.4837   YY=            -96.7556   ZZ=            -91.2136
   XY=            -13.4807   XZ=             -4.7787   YZ=             -2.2748

 Normal termination of Gaussian 16 at Wed May  5 23:25:43 2021.
