 Gaussian 16, Revision A.03,
 Gaussian 16:  EM64L-G16RevA.03 25-Dec-2016

 -------------
 #p 6-31g* mp2
 -------------

 ------------------------------------------------------
 Input file generated by CHIRIPA (05-May-2021 14:57:25)
 ------------------------------------------------------
 Symbolic Z-matrix:
 Charge =  0 Multiplicity = 1

                         Standard orientation:
 ---------------------------------------------------------------------
 Center     Atomic      Atomic             Coordinates (Angstroms)
 Number     Number       Type             X           Y           Z
 ---------------------------------------------------------------------
      1          6           0        4.759087    2.368886    0.524930
      2          6           0        5.635928    1.286640    0.396808
      3          6           0        5.150000    0.011049    0.094669
      4          6           0        3.775232   -0.147094   -0.073537
      5          6           0        2.876213    0.911381    0.047649
      6          6           0        3.384452    2.178139    0.350249
      7          1           0        5.145234    3.356365    0.759818
      8          1           0        6.703968    1.431827    0.531928
      9          1           0        5.806408   -0.844254   -0.010223
     10          1           0        1.816591    0.735560   -0.092729
     11          1           0        2.701136    3.016794    0.449153
     12          7           0        3.248991   -1.492829   -0.393642
     13          8           0        2.033553   -1.605903   -0.537033
     14          8           0        4.061927   -2.409061   -0.495088
     15          6           0       -1.959193   -1.705405    0.314370
     16          6           0       -1.804837   -0.592147   -0.518309
     17          6           0       -2.852372    0.317950   -0.688427
     18          6           0       -4.045915    0.082951   -0.007604
     19          6           0       -4.230411   -1.016819    0.828912
     20          6           0       -3.169354   -1.913819    0.984142
     21          1           0       -1.140191   -2.407303    0.440740
     22          1           0       -0.866135   -0.427760   -1.039713
     23          1           0       -2.759969    1.188087   -1.326973
     24          1           0       -5.178015   -1.154034    1.335504
     25          1           0       -3.292070   -2.777520    1.631449
     26          7           0       -5.162051    1.039498   -0.179819
     27          8           0       -6.203550    0.809960    0.431105
     28          8           0       -4.974245    2.000664   -0.922465
 ---------------------------------------------------------------------

 SCF Done:  E(RHF) =  -868.340238544     A.U. after   16 cycles
 E2 =    -0.2598684710D+01 EUMP2 =    -0.87093892325385D+03

 The electronic state is 1-A.
 Alpha  occ. eigenvalues --  -20.61859 -20.61787 -20.60453 -20.60446 -15.86863
 Alpha  occ. eigenvalues --  -15.85501 -11.31951 -11.30709 -11.28527 -11.28452
 Alpha  occ. eigenvalues --  -11.28141 -11.27427 -11.27406 -11.27278 -11.27274
 Alpha  occ. eigenvalues --  -11.26790 -11.26192 -11.26116  -1.60879  -1.59532
 Alpha  occ. eigenvalues --   -1.40448  -1.39090  -1.20089  -1.18850  -1.09526
 Alpha  occ. eigenvalues --   -1.08229  -1.05452  -1.04239  -0.96414  -0.95099
 Alpha  occ. eigenvalues --   -0.86863  -0.85609  -0.83264  -0.81953  -0.78352
 Alpha  occ. eigenvalues --   -0.77055  -0.73105  -0.72179  -0.71718  -0.71193
 Alpha  occ. eigenvalues --   -0.70856  -0.69845  -0.65748  -0.65448  -0.64476
 Alpha  occ. eigenvalues --   -0.64190  -0.62813  -0.61586  -0.55945  -0.54584
 Alpha  occ. eigenvalues --   -0.53790  -0.53541  -0.52572  -0.52298  -0.49858
 Alpha  occ. eigenvalues --   -0.49799  -0.48487  -0.48458  -0.45910  -0.44532
 Alpha  occ. eigenvalues --   -0.38038  -0.37041  -0.36763  -0.35872
 Alpha virt. eigenvalues --    0.04169   0.05481   0.10616   0.11753   0.15727
 Alpha virt. eigenvalues --    0.17011   0.19990   0.22070   0.25424   0.27093
 Alpha virt. eigenvalues --    0.28637   0.29064   0.30377   0.31094   0.32458

 Mulliken charges:
               1
     1  C   -0.169640
     2  C   -0.218334
     3  C   -0.170187
     4  C    0.158149
     5  C   -0.170727
     6  C   -0.218772
     7  H    0.228849
     8  H    0.226098
     9  H    0.276859
    10  H    0.270805
    11  H    0.226779
    12  N    0.492270
    13  O   -0.476216
    14  O   -0.454369
    15  C   -0.173501
    16  C   -0.227979
    17  C   -0.173360
    18  C    0.157794
    19  C   -0.171730
    20  C   -0.219774
    21  H    0.241612
    22  H    0.234220
    23  H    0.271366
    24  H    0.273666
    25  H    0.222783
    26  N    0.488233
    27  O   -0.461691
    28  O   -0.463203
 Sum of Mulliken charges =  -0.00000

 Dipole moment (field-independent basis, Debye):
    X=              6.3047    Y=              1.3047    Z=              1.7883  Tot=              6.6820
 Quadrupole moment (field-independent basis, Debye-Ang):
   XX=           -116.8054   YY=           -105.0836   ZZ=           -104.5359
   XY=             32.2537   XZ=             -0.1316   YZ=             -2.3289

 Normal termination of Gaussian 16 at Fri May  7 01:57:17 2021.
