 Gaussian 16, Revision A.03,
 Gaussian 16:  EM64L-G16RevA.03 25-Dec-2016

 -------------
 #p 6-31g* mp2
 -------------

 ------------------------------------------------------
 Input file generated by CHIRIPA (05-May-2021 14:51:09)
 ------------------------------------------------------
 Symbolic Z-matrix:
 Charge =  0 Multiplicity = 1

                         Standard orientation:
 ---------------------------------------------------------------------
 Center     Atomic      Atomic             Coordinates (Angstroms)
 Number     Number       Type             X           Y           Z
 ---------------------------------------------------------------------
      1          6           0       -3.211753    1.077988    0.389025
      2          6           0       -1.715111    1.351494    0.236568
      3          6           0       -1.211263    2.432544    1.193261
      4          1           0       -3.767686    2.009832    0.217120
      5          1           0       -3.418723    0.777194    1.425403
      6          1           0       -1.510817    1.650346   -0.799563
      7          1           0       -1.162688    0.418849    0.408667
      8          1           0       -1.386267    2.138612    2.233250
      9          1           0       -1.736374    3.377106    1.018155
     10          1           0       -0.138994    2.612076    1.067296
     11          6           0       -3.730358   -0.000369   -0.560671
     12          6           0       -5.227000   -0.273874   -0.408214
     13          6           0       -5.730848   -1.354924   -1.364907
     14          1           0       -3.523388    0.300426   -1.597050
     15          1           0       -3.174425   -0.932212   -0.388766
     16          1           0       -5.779423    0.658771   -0.580314
     17          1           0       -5.431294   -0.572726    0.627917
     18          1           0       -5.205737   -2.299486   -1.189801
     19          1           0       -5.555844   -1.060992   -2.404897
     20          1           0       -6.803117   -1.534457   -1.238942
     21          6           0        2.941298   -0.535018    0.636072
     22          6           0        2.083860   -1.800784    0.661013
     23          6           0        1.028620   -1.778274    1.767248
     24          1           0        3.432700   -0.413408    1.611101
     25          1           0        2.288654    0.339027    0.503796
     26          1           0        2.738056   -2.672295    0.791816
     27          1           0        1.594593   -1.919499   -0.314252
     28          1           0        0.352445   -0.927086    1.637378
     29          1           0        1.502406   -1.684161    2.749731
     30          1           0        0.427037   -2.692581    1.766888
     31          6           0        4.000814   -0.542602   -0.464426
     32          6           0        4.858251    0.723164   -0.489366
     33          6           0        5.913490    0.700654   -1.595602
     34          1           0        4.653457   -1.416646   -0.332149
     35          1           0        3.509412   -0.664212   -1.439455
     36          1           0        5.347519    0.841878    0.485899
     37          1           0        4.204054    1.594676   -0.620169
     38          1           0        5.439705    0.606541   -2.578085
     39          1           0        6.589666   -0.150533   -1.465732
     40          1           0        6.515074    1.614961   -1.595242
 ---------------------------------------------------------------------

 SCF Done:  E(RHF) =  -470.733377086     A.U. after   11 cycles
 E2 =    -0.1582790023D+01 EUMP2 =    -0.47231616710822D+03

 The electronic state is 1-A.
 Alpha  occ. eigenvalues --  -11.21634 -11.21614 -11.21608 -11.21603 -11.21421
 Alpha  occ. eigenvalues --  -11.21409 -11.21361 -11.21349 -11.21114 -11.21083
 Alpha  occ. eigenvalues --  -11.21076 -11.21071  -1.08457  -1.08430  -1.03572
 Alpha  occ. eigenvalues --   -1.03522  -0.96009  -0.95982  -0.87026  -0.86997
 Alpha  occ. eigenvalues --   -0.79653  -0.79570  -0.78283  -0.78228  -0.65161
 Alpha  occ. eigenvalues --   -0.65001  -0.61121  -0.60794  -0.59394  -0.59328
 Alpha  occ. eigenvalues --   -0.57632  -0.57578  -0.55367  -0.55204  -0.52697
 Alpha  occ. eigenvalues --   -0.52684  -0.52451  -0.52391  -0.50035  -0.49862
 Alpha  occ. eigenvalues --   -0.48009  -0.47854  -0.46802  -0.46487  -0.45866
 Alpha  occ. eigenvalues --   -0.45768  -0.45749  -0.45566  -0.43805  -0.43793
 Alpha virt. eigenvalues --    0.20348   0.23107   0.23658   0.24766   0.26245
 Alpha virt. eigenvalues --    0.26422   0.27107   0.27390   0.28338   0.28973
 Alpha virt. eigenvalues --    0.30500   0.31219   0.31622   0.31709   0.31971

 Mulliken charges:
               1
     1  C   -0.297732
     2  C   -0.307739
     3  C   -0.476307
     4  H    0.149774
     5  H    0.149865
     6  H    0.151928
     7  H    0.158238
     8  H    0.155814
     9  H    0.155610
    10  H    0.160390
    11  C   -0.298521
    12  C   -0.299697
    13  C   -0.475737
    14  H    0.149377
    15  H    0.150017
    16  H    0.151930
    17  H    0.152106
    18  H    0.155255
    19  H    0.155122
    20  H    0.160302
    21  C   -0.299386
    22  C   -0.299325
    23  C   -0.482886
    24  H    0.149731
    25  H    0.150381
    26  H    0.152090
    27  H    0.152139
    28  H    0.161694
    29  H    0.155577
    30  H    0.159842
    31  C   -0.298347
    32  C   -0.299644
    33  C   -0.475715
    34  H    0.149553
    35  H    0.149827
    36  H    0.151964
    37  H    0.151849
    38  H    0.155207
    39  H    0.155186
    40  H    0.160267
 Sum of Mulliken charges =  -0.00000

 Dipole moment (field-independent basis, Debye):
    X=             -0.0067    Y=              0.0034    Z=              0.0046  Tot=              0.0088
 Quadrupole moment (field-independent basis, Debye-Ang):
   XX=            -85.1876   YY=            -84.6919   ZZ=            -84.8256
   XY=             -0.9511   XZ=              0.8470   YZ=             -1.1585

 Normal termination of Gaussian 16 at Wed May  5 18:09:37 2021.
