 Gaussian 16, Revision A.03,
 Gaussian 16:  EM64L-G16RevA.03 25-Dec-2016

 -------------
 #p 6-31g* mp2
 -------------

 ------------------------------------------------------
 Input file generated by CHIRIPA (05-May-2021 14:55:24)
 ------------------------------------------------------
 Symbolic Z-matrix:
 Charge =  0 Multiplicity = 1

                         Standard orientation:
 ---------------------------------------------------------------------
 Center     Atomic      Atomic             Coordinates (Angstroms)
 Number     Number       Type             X           Y           Z
 ---------------------------------------------------------------------
      1          6           0       -3.360721   -2.405454   -0.223991
      2          6           0       -4.576545   -1.721687   -0.120279
      3          6           0       -4.602620   -0.325356   -0.056024
      4          6           0       -3.388624    0.358545   -0.098225
      5          6           0       -2.161135   -0.294102   -0.201241
      6          6           0       -2.159015   -1.690739   -0.264070
      7          1           0       -3.349770   -3.490276   -0.273352
      8          1           0       -5.511351   -2.274137   -0.088943
      9          1           0       -5.529635    0.229235    0.024545
     10          1           0       -1.245556    0.284077   -0.230267
     11          1           0       -1.213298   -2.219116   -0.344586
     12          7           0       -3.403548    1.836940   -0.030955
     13          8           0       -2.320270    2.416267   -0.070001
     14          8           0       -4.498242    2.388386    0.059542
     15          6           0        4.955617    0.278597    0.267213
     16          6           0        6.134160   -0.083106   -0.637327
     17          6           0        7.369765    0.777120   -0.370707
     18          1           0        4.703991    1.338460    0.124657
     19          1           0        5.260780    0.168254    1.317020
     20          1           0        5.826441    0.026555   -1.685134
     21          1           0        6.382886   -1.142278   -0.492742
     22          1           0        7.704104    0.660523    0.665258
     23          1           0        7.144497    1.835998   -0.533909
     24          1           0        8.200204    0.501673   -1.028248
     25          6           0        3.712963   -0.572710    0.012625
     26          6           0        2.534420   -0.211007    0.917165
     27          6           0        1.298816   -1.071234    0.650545
     28          1           0        3.407800   -0.462367   -1.037182
     29          1           0        3.964589   -1.632573    0.155181
     30          1           0        2.285693    0.848165    0.772581
     31          1           0        2.842140   -0.320668    1.964971
     32          1           0        1.524083   -2.130111    0.813747
     33          1           0        0.964476   -0.954637   -0.385419
     34          1           0        0.468377   -0.795786    1.308086
 ---------------------------------------------------------------------

 SCF Done:  E(RHF) =  -669.534609922     A.U. after   15 cycles
 E2 =    -0.2092294044D+01 EUMP2 =    -0.67162690396632D+03

 The electronic state is 1-A.
 Alpha  occ. eigenvalues --  -20.60703 -20.60698 -15.85753 -11.31073 -11.27655
 Alpha  occ. eigenvalues --  -11.27568 -11.27378 -11.26672 -11.26572 -11.22127
 Alpha  occ. eigenvalues --  -11.22034 -11.21790 -11.21777 -11.21604 -11.21189
 Alpha  occ. eigenvalues --   -1.59778  -1.39333  -1.19247  -1.08794  -1.08651
 Alpha  occ. eigenvalues --   -1.04663  -1.03949  -0.96466  -0.95490  -0.87511
 Alpha  occ. eigenvalues --   -0.86040  -0.82333  -0.80050  -0.78566  -0.77356
 Alpha  occ. eigenvalues --   -0.71974  -0.71101  -0.70371  -0.65428  -0.64899
 Alpha  occ. eigenvalues --   -0.64648  -0.62153  -0.61268  -0.59787  -0.58031
 Alpha  occ. eigenvalues --   -0.55761  -0.55135  -0.53252  -0.53047  -0.52826
 Alpha  occ. eigenvalues --   -0.52576  -0.50384  -0.48730  -0.48727  -0.48332
 Alpha  occ. eigenvalues --   -0.47027  -0.46118  -0.46010  -0.44747  -0.44186
 Alpha  occ. eigenvalues --   -0.37237  -0.36220
 Alpha virt. eigenvalues --    0.05116   0.11391   0.16558   0.20821   0.22586
 Alpha virt. eigenvalues --    0.23858   0.25941   0.26299   0.27233   0.28166
 Alpha virt. eigenvalues --    0.29641   0.30157   0.30953   0.31309   0.32154

 Mulliken charges:
               1
     1  C   -0.171362
     2  C   -0.218723
     3  C   -0.171180
     4  C    0.158839
     5  C   -0.176597
     6  C   -0.222928
     7  H    0.225172
     8  H    0.222896
     9  H    0.275060
    10  H    0.280077
    11  H    0.231949
    12  N    0.488342
    13  O   -0.461156
    14  O   -0.460764
    15  C   -0.299164
    16  C   -0.299950
    17  C   -0.476037
    18  H    0.152731
    19  H    0.150334
    20  H    0.152407
    21  H    0.151332
    22  H    0.155484
    23  H    0.156637
    24  H    0.160719
    25  C   -0.299276
    26  C   -0.301340
    27  C   -0.489015
    28  H    0.150061
    29  H    0.148778
    30  H    0.159749
    31  H    0.155539
    32  H    0.155922
    33  H    0.148914
    34  H    0.166550
 Sum of Mulliken charges =  -0.00000

 Dipole moment (field-independent basis, Debye):
    X=              0.2592    Y=             -5.1661    Z=             -0.1851  Tot=              5.1759
 Quadrupole moment (field-independent basis, Debye-Ang):
   XX=            -90.5637   YY=            -99.0271   ZZ=            -95.0744
   XY=             17.4017   XZ=              0.7226   YZ=             -0.0853

 Normal termination of Gaussian 16 at Thu May  6 07:55:37 2021.
