 Gaussian 16, Revision A.03,
 Gaussian 16:  EM64L-G16RevA.03 25-Dec-2016

 -------------
 #p 6-31g* mp2
 -------------

 ------------------------------------------------------
 Input file generated by CHIRIPA (05-May-2021 14:55:23)
 ------------------------------------------------------
 Symbolic Z-matrix:
 Charge =  0 Multiplicity = 1

                         Standard orientation:
 ---------------------------------------------------------------------
 Center     Atomic      Atomic             Coordinates (Angstroms)
 Number     Number       Type             X           Y           Z
 ---------------------------------------------------------------------
      1          6           0        2.129590   -2.863346   -0.384997
      2          6           0        1.892725   -2.379699    0.905934
      3          6           0        2.020113   -1.016300    1.187825
      4          6           0        2.387648   -0.160907    0.150274
      5          6           0        2.630397   -0.612295   -1.146110
      6          6           0        2.497022   -1.979658   -1.405100
      7          1           0        2.028306   -3.924007   -0.595082
      8          1           0        1.607239   -3.063666    1.700120
      9          1           0        1.842701   -0.614981    2.178222
     10          1           0        2.913568    0.093928   -1.917136
     11          1           0        2.681598   -2.352446   -2.408597
     12          7           0        2.525676    1.284562    0.436578
     13          8           0        2.850671    2.017556   -0.494945
     14          8           0        2.306255    1.657155    1.587084
     15          6           0       -2.435757    0.860568   -0.465885
     16          6           0       -2.238892    2.301914    0.005018
     17          6           0       -1.052100    2.988141   -0.672042
     18          1           0       -1.518588    0.288731   -0.269037
     19          1           0       -2.580126    0.854552   -1.555158
     20          1           0       -2.096316    2.305337    1.093263
     21          1           0       -3.156704    2.870337   -0.192798
     22          1           0       -1.190286    3.014238   -1.757779
     23          1           0       -0.123874    2.446027   -0.464411
     24          1           0       -0.929661    4.017456   -0.320790
     25          6           0       -3.618384    0.161224    0.201979
     26          6           0       -3.815248   -1.280123   -0.268924
     27          6           0       -5.002041   -1.966349    0.408137
     28          1           0       -3.474015    0.167239    1.291252
     29          1           0       -4.535553    0.733060    0.005132
     30          1           0       -2.897436   -1.848547   -0.071108
     31          1           0       -3.957824   -1.283545   -1.357168
     32          1           0       -5.930267   -1.424236    0.200506
     33          1           0       -4.863854   -1.992448    1.493873
     34          1           0       -5.124479   -2.995665    0.056885
 ---------------------------------------------------------------------

 SCF Done:  E(RHF) =  -669.535776290     A.U. after   15 cycles
 E2 =    -0.2091825505D+01 EUMP2 =    -0.67162760179553D+03

 The electronic state is 1-A.
 Alpha  occ. eigenvalues --  -20.60884 -20.60873 -15.85914 -11.31283 -11.27852
 Alpha  occ. eigenvalues --  -11.27833 -11.27577 -11.26851 -11.26836 -11.21642
 Alpha  occ. eigenvalues --  -11.21274 -11.21157 -11.21143 -11.21071 -11.20289
 Alpha  occ. eigenvalues --   -1.59956  -1.39505  -1.19447  -1.08844  -1.08228
 Alpha  occ. eigenvalues --   -1.04843  -1.03262  -0.95697  -0.95678  -0.86708
 Alpha  occ. eigenvalues --   -0.86242  -0.82510  -0.79346  -0.78021  -0.77561
 Alpha  occ. eigenvalues --   -0.72134  -0.71303  -0.70548  -0.65097  -0.64864
 Alpha  occ. eigenvalues --   -0.64842  -0.62189  -0.60655  -0.59106  -0.57301
 Alpha  occ. eigenvalues --   -0.55344  -0.54982  -0.53178  -0.52933  -0.52366
 Alpha  occ. eigenvalues --   -0.52117  -0.49654  -0.48896  -0.48889  -0.47651
 Alpha  occ. eigenvalues --   -0.46398  -0.45562  -0.45478  -0.44879  -0.43519
 Alpha  occ. eigenvalues --   -0.37423  -0.36443
 Alpha virt. eigenvalues --    0.04957   0.11205   0.16431   0.21347   0.22954
 Alpha virt. eigenvalues --    0.24467   0.26669   0.27267   0.27576   0.28076
 Alpha virt. eigenvalues --    0.28402   0.30740   0.31613   0.31947   0.32448

 Mulliken charges:
               1
     1  C   -0.170467
     2  C   -0.218777
     3  C   -0.171556
     4  C    0.156777
     5  C   -0.170570
     6  C   -0.218351
     7  H    0.226075
     8  H    0.223794
     9  H    0.275812
    10  H    0.276337
    11  H    0.223958
    12  N    0.486967
    13  O   -0.457863
    14  O   -0.459136
    15  C   -0.297966
    16  C   -0.301103
    17  C   -0.473555
    18  H    0.146585
    19  H    0.147974
    20  H    0.154113
    21  H    0.149718
    22  H    0.150866
    23  H    0.159455
    24  H    0.164658
    25  C   -0.297823
    26  C   -0.298898
    27  C   -0.475422
    28  H    0.149126
    29  H    0.150118
    30  H    0.148683
    31  H    0.151403
    32  H    0.156245
    33  H    0.154563
    34  H    0.158259
 Sum of Mulliken charges =  -0.00000

 Dipole moment (field-independent basis, Debye):
    X=             -0.3543    Y=             -5.0255    Z=             -0.9993  Tot=              5.1362
 Quadrupole moment (field-independent basis, Debye-Ang):
   XX=            -98.1332   YY=            -93.6018   ZZ=            -90.1796
   XY=            -12.7808   XZ=             -3.2085   YZ=             -1.4064

 Normal termination of Gaussian 16 at Thu May  6 17:39:22 2021.
