 Gaussian 16, Revision A.03,
 Gaussian 16:  EM64L-G16RevA.03 25-Dec-2016

 -------------
 #p 6-31g* mp2
 -------------

 ------------------------------------------------------
 Input file generated by CHIRIPA (05-May-2021 14:51:09)
 ------------------------------------------------------
 Symbolic Z-matrix:
 Charge =  0 Multiplicity = 1

                         Standard orientation:
 ---------------------------------------------------------------------
 Center     Atomic      Atomic             Coordinates (Angstroms)
 Number     Number       Type             X           Y           Z
 ---------------------------------------------------------------------
      1          6           0       -2.962693    0.824855   -0.127784
      2          6           0       -2.475498    1.607963    1.091793
      3          6           0       -3.181976    2.954628    1.250460
      4          1           0       -2.807040    1.430836   -1.030837
      5          1           0       -4.046271    0.663698   -0.042440
      6          1           0       -1.392929    1.766394    1.004850
      7          1           0       -2.632154    0.999970    1.992026
      8          1           0       -4.261711    2.812384    1.362442
      9          1           0       -3.015445    3.583162    0.369658
     10          1           0       -2.818471    3.497703    2.128409
     11          6           0       -2.265764   -0.523629   -0.299850
     12          6           0       -2.752959   -1.306737   -1.519427
     13          6           0       -2.046481   -2.653403   -1.678095
     14          1           0       -1.182187   -0.362472   -0.385194
     15          1           0       -2.421418   -1.129610    0.603202
     16          1           0       -2.596304   -0.698744   -2.419660
     17          1           0       -3.835528   -1.465168   -1.432485
     18          1           0       -2.213012   -3.281937   -0.797292
     19          1           0       -0.966746   -2.511158   -1.790077
     20          1           0       -2.409986   -3.196477   -2.556044
     21          6           0        2.543535    0.359855   -0.349971
     22          6           0        3.748416    1.292498   -0.478123
     23          6           0        3.592086    2.308062   -1.610370
     24          1           0        2.394723   -0.169344   -1.301154
     25          1           0        1.639365    0.961261   -0.182097
     26          1           0        4.650251    0.689433   -0.644325
     27          1           0        3.894494    1.819398    0.473537
     28          1           0        2.709044    2.934276   -1.446991
     29          1           0        3.469094    1.797893   -2.571204
     30          1           0        4.464654    2.964605   -1.684101
     31          6           0        2.684922   -0.661081    0.777605
     32          6           0        1.480041   -1.593724    0.905757
     33          6           0        1.636371   -2.609288    2.038005
     34          1           0        3.589092   -1.262487    0.609731
     35          1           0        2.833735   -0.131881    1.728788
     36          1           0        1.333963   -2.120623   -0.045903
     37          1           0        0.578206   -0.990659    1.071960
     38          1           0        1.759363   -2.099119    2.998839
     39          1           0        2.519413   -3.235502    1.874626
     40          1           0        0.763804   -3.265831    2.111736
 ---------------------------------------------------------------------

 SCF Done:  E(RHF) =  -470.732996100     A.U. after   11 cycles
 E2 =    -0.1583925329D+01 EUMP2 =    -0.47231692142910D+03

 The electronic state is 1-A.
 Alpha  occ. eigenvalues --  -11.21651 -11.21643 -11.21577 -11.21525 -11.21449
 Alpha  occ. eigenvalues --  -11.21385 -11.21361 -11.21295 -11.21110 -11.21105
 Alpha  occ. eigenvalues --  -11.21048 -11.21036  -1.08473  -1.08404  -1.03554
 Alpha  occ. eigenvalues --   -1.03512  -0.95988  -0.95978  -0.87014  -0.86987
 Alpha  occ. eigenvalues --   -0.79690  -0.79536  -0.78456  -0.78044  -0.65147
 Alpha  occ. eigenvalues --   -0.64994  -0.60941  -0.60928  -0.59419  -0.59286
 Alpha  occ. eigenvalues --   -0.57598  -0.57590  -0.55289  -0.55255  -0.52697
 Alpha  occ. eigenvalues --   -0.52665  -0.52446  -0.52381  -0.49985  -0.49871
 Alpha  occ. eigenvalues --   -0.48125  -0.47791  -0.46688  -0.46639  -0.46287
 Alpha  occ. eigenvalues --   -0.45754  -0.45718  -0.45039  -0.43794  -0.43772
 Alpha virt. eigenvalues --    0.20524   0.22862   0.23485   0.24349   0.24743
 Alpha virt. eigenvalues --    0.25860   0.26804   0.27864   0.28461   0.30362
 Alpha virt. eigenvalues --    0.30616   0.31399   0.31473   0.31836   0.32206

 Mulliken charges:
               1
     1  C   -0.297662
     2  C   -0.301021
     3  C   -0.475594
     4  H    0.149557
     5  H    0.149449
     6  H    0.151293
     7  H    0.152014
     8  H    0.155552
     9  H    0.155321
    10  H    0.160178
    11  C   -0.305062
    12  C   -0.299251
    13  C   -0.477269
    14  H    0.158421
    15  H    0.148897
    16  H    0.151741
    17  H    0.151615
    18  H    0.154930
    19  H    0.157092
    20  H    0.159924
    21  C   -0.300296
    22  C   -0.299572
    23  C   -0.475748
    24  H    0.149193
    25  H    0.149718
    26  H    0.152355
    27  H    0.152206
    28  H    0.154953
    29  H    0.155162
    30  H    0.160511
    31  C   -0.297913
    32  C   -0.307184
    33  C   -0.475291
    34  H    0.149434
    35  H    0.149596
    36  H    0.152858
    37  H    0.159906
    38  H    0.154858
    39  H    0.154812
    40  H    0.160314
 Sum of Mulliken charges =  -0.00000

 Dipole moment (field-independent basis, Debye):
    X=              0.0035    Y=              0.0011    Z=              0.0024  Tot=              0.0044
 Quadrupole moment (field-independent basis, Debye-Ang):
   XX=            -84.2822   YY=            -85.8338   ZZ=            -84.7152
   XY=              0.4337   XZ=             -0.6083   YZ=              0.5395

 Normal termination of Gaussian 16 at Thu May  6 05:18:38 2021.
