 Gaussian 16, Revision A.03,
 Gaussian 16:  EM64L-G16RevA.03 25-Dec-2016

 -------------
 #p 6-31g* mp2
 -------------

 ------------------------------------------------------
 Input file generated by CHIRIPA (05-May-2021 14:57:26)
 ------------------------------------------------------
 Symbolic Z-matrix:
 Charge =  0 Multiplicity = 1

                         Standard orientation:
 ---------------------------------------------------------------------
 Center     Atomic      Atomic             Coordinates (Angstroms)
 Number     Number       Type             X           Y           Z
 ---------------------------------------------------------------------
      1          6           0       -1.823815    2.689142   -0.273620
      2          6           0       -1.625054    1.681716   -1.223412
      3          6           0       -2.206320    0.421558   -1.054058
      4          6           0       -2.983945    0.202388    0.081967
      5          6           0       -3.200581    1.185704    1.046047
      6          6           0       -2.609559    2.438363    0.856087
      7          1           0       -1.368484    3.665151   -0.413182
      8          1           0       -1.015319    1.873636   -2.101726
      9          1           0       -2.068863   -0.376366   -1.773670
     10          1           0       -3.813494    0.964481    1.911389
     11          1           0       -2.765641    3.218857    1.595352
     12          7           0       -3.604469   -1.127715    0.272162
     13          8           0       -4.285252   -1.295555    1.281618
     14          8           0       -3.398303   -1.977225   -0.591820
     15          6           0        4.842290    0.952388    0.745654
     16          6           0        4.380899   -0.120643    1.515228
     17          6           0        3.295369   -0.888807    1.083839
     18          6           0        2.692130   -0.554438   -0.127602
     19          6           0        3.128613    0.508566   -0.916774
     20          6           0        4.215779    1.263020   -0.465756
     21          1           0        5.686191    1.543791    1.088392
     22          1           0        4.865516   -0.364186    2.456439
     23          1           0        2.917694   -1.724879    1.659828
     24          1           0        2.625087    0.727096   -1.850650
     25          1           0        4.571955    2.095787   -1.065491
     26          7           0        1.542062   -1.360402   -0.594685
     27          8           0        1.027859   -1.045351   -1.665654
     28          8           0        1.176617   -2.291905    0.119030
 ---------------------------------------------------------------------

 SCF Done:  E(RHF) =  -868.338073902     A.U. after   16 cycles
 E2 =    -0.2600169223D+01 EUMP2 =    -0.87093824312465D+03

 The electronic state is 1-A.
 Alpha  occ. eigenvalues --  -20.61167 -20.61109 -20.59824 -20.59763 -15.86176
 Alpha  occ. eigenvalues --  -15.84853 -11.31544 -11.30297 -11.28158 -11.28070
 Alpha  occ. eigenvalues --  -11.27846 -11.27152 -11.27093 -11.26992 -11.26795
 Alpha  occ. eigenvalues --  -11.26765 -11.26051 -11.25922  -1.60191  -1.58868
 Alpha  occ. eigenvalues --   -1.39752  -1.38416  -1.19713  -1.18524  -1.09104
 Alpha  occ. eigenvalues --   -1.07928  -1.05120  -1.03924  -0.95942  -0.94728
 Alpha  occ. eigenvalues --   -0.86517  -0.85336  -0.82783  -0.81547  -0.77831
 Alpha  occ. eigenvalues --   -0.76552  -0.72405  -0.71511  -0.71075  -0.70823
 Alpha  occ. eigenvalues --   -0.70185  -0.69655  -0.65370  -0.65123  -0.64178
 Alpha  occ. eigenvalues --   -0.63951  -0.62471  -0.61242  -0.55615  -0.54508
 Alpha  occ. eigenvalues --   -0.53445  -0.53214  -0.52288  -0.52024  -0.49164
 Alpha  occ. eigenvalues --   -0.49123  -0.47855  -0.47809  -0.45161  -0.43800
 Alpha  occ. eigenvalues --   -0.37689  -0.36728  -0.36574  -0.35507
 Alpha virt. eigenvalues --    0.04680   0.05995   0.10922   0.12114   0.16172
 Alpha virt. eigenvalues --    0.17414   0.20956   0.22151   0.26715   0.27478
 Alpha virt. eigenvalues --    0.28512   0.29108   0.30599   0.31494   0.32532

 Mulliken charges:
               1
     1  C   -0.172768
     2  C   -0.221427
     3  C   -0.163146
     4  C    0.156051
     5  C   -0.171926
     6  C   -0.220193
     7  H    0.219461
     8  H    0.221777
     9  H    0.288913
    10  H    0.272990
    11  H    0.218786
    12  N    0.488669
    13  O   -0.466028
    14  O   -0.453207
    15  C   -0.170843
    16  C   -0.218473
    17  C   -0.170376
    18  C    0.159887
    19  C   -0.171402
    20  C   -0.218783
    21  H    0.226293
    22  H    0.225077
    23  H    0.278258
    24  H    0.270799
    25  H    0.222502
    26  N    0.489236
    27  O   -0.468664
    28  O   -0.451464
 Sum of Mulliken charges =  -0.00000

 Dipole moment (field-independent basis, Debye):
    X=              6.4240    Y=              7.1651    Z=              0.9267  Tot=              9.6677
 Quadrupole moment (field-independent basis, Debye-Ang):
   XX=            -96.8262   YY=           -105.3919   ZZ=            -98.8327
   XY=             -8.5988   XZ=              5.2995   YZ=             -2.2280

 Normal termination of Gaussian 16 at Thu May  6 13:09:52 2021.
