 Gaussian 16, Revision A.03,
 Gaussian 16:  EM64L-G16RevA.03 25-Dec-2016

 -------------
 #p 6-31g* mp2
 -------------

 ------------------------------------------------------
 Input file generated by CHIRIPA (05-May-2021 14:53:14)
 ------------------------------------------------------
 Symbolic Z-matrix:
 Charge =  0 Multiplicity = 1

                         Standard orientation:
 ---------------------------------------------------------------------
 Center     Atomic      Atomic             Coordinates (Angstroms)
 Number     Number       Type             X           Y           Z
 ---------------------------------------------------------------------
      1          6           0       -3.402517    0.460694    0.127863
      2          6           0       -3.455787    1.978712   -0.047542
      3          6           0       -2.077234    2.633376    0.046282
      4          1           0       -2.949041    0.226061    1.100618
      5          1           0       -2.739734    0.033210   -0.637232
      6          1           0       -4.119363    2.403067    0.716792
      7          1           0       -3.909365    2.209762   -1.019910
      8          1           0       -1.409485    2.237649   -0.725801
      9          1           0       -1.620676    2.432052    1.020768
     10          1           0       -2.138587    3.718575   -0.081926
     11          6           0       -4.772934   -0.208155    0.036602
     12          6           0       -4.719664   -1.726174    0.212008
     13          6           0       -6.098217   -2.380837    0.118184
     14          1           0       -5.435717    0.219329    0.801697
     15          1           0       -5.226410    0.026478   -0.936152
     16          1           0       -4.266087   -1.957223    1.184376
     17          1           0       -4.056088   -2.150528   -0.552326
     18          1           0       -6.554775   -2.179513   -0.856303
     19          1           0       -6.765966   -1.985110    0.890267
     20          1           0       -6.036864   -3.466037    0.246391
     21          6           0        5.206806   -1.591858    0.223831
     22          6           0        4.003516   -2.123214   -0.251853
     23          6           0        2.881605   -1.305219   -0.415394
     24          6           0        2.998900    0.045710   -0.092094
     25          6           0        4.183842    0.604783    0.383972
     26          6           0        5.292977   -0.231953    0.539669
     27          1           0        6.073372   -2.234576    0.347826
     28          1           0        3.933687   -3.178966   -0.497935
     29          1           0        1.937771   -1.690397   -0.781772
     30          1           0        4.222810    1.661086    0.620876
     31          1           0        6.226180    0.183450    0.909288
     32          7           0        1.817945    0.921605   -0.261075
     33          8           0        1.947153    2.108502    0.030846
     34          8           0        0.785467    0.404649   -0.682243
 ---------------------------------------------------------------------

 SCF Done:  E(RHF) =  -669.536204130     A.U. after   15 cycles
 E2 =    -0.2091437322D+01 EUMP2 =    -0.67162764145195D+03

 The electronic state is 1-A.
 Alpha  occ. eigenvalues --  -20.60980 -20.60972 -15.85996 -11.31315 -11.27874
 Alpha  occ. eigenvalues --  -11.27870 -11.27610 -11.26879 -11.26869 -11.20901
 Alpha  occ. eigenvalues --  -11.20527 -11.20450 -11.20156 -11.20063 -11.18994
 Alpha  occ. eigenvalues --   -1.60025  -1.39582  -1.19480  -1.08885  -1.07336
 Alpha  occ. eigenvalues --   -1.04874  -1.02359  -0.95729  -0.94772  -0.86275
 Alpha  occ. eigenvalues --   -0.85779  -0.82561  -0.78486  -0.77615  -0.77055
 Alpha  occ. eigenvalues --   -0.72209  -0.71337  -0.70587  -0.65134  -0.64877
 Alpha  occ. eigenvalues --   -0.63983  -0.62221  -0.59768  -0.58257  -0.56380
 Alpha  occ. eigenvalues --   -0.55379  -0.54061  -0.53207  -0.52965  -0.51495
 Alpha  occ. eigenvalues --   -0.51208  -0.49116  -0.48961  -0.48579  -0.46693
 Alpha  occ. eigenvalues --   -0.45532  -0.45005  -0.44589  -0.44439  -0.42621
 Alpha  occ. eigenvalues --   -0.37459  -0.36475
 Alpha virt. eigenvalues --    0.04915   0.11181   0.16417   0.21314   0.23843
 Alpha virt. eigenvalues --    0.25537   0.27236   0.27682   0.28169   0.28560
 Alpha virt. eigenvalues --    0.29317   0.30896   0.32383   0.32592   0.32724

 Mulliken charges:
               1
     1  C   -0.297144
     2  C   -0.300460
     3  C   -0.476807
     4  H    0.147087
     5  H    0.157502
     6  H    0.144556
     7  H    0.146484
     8  H    0.180524
     9  H    0.152414
    10  H    0.150638
    11  C   -0.297480
    12  C   -0.298355
    13  C   -0.474909
    14  H    0.146634
    15  H    0.147456
    16  H    0.150038
    17  H    0.150713
    18  H    0.154277
    19  H    0.154164
    20  H    0.157000
    21  C   -0.170565
    22  C   -0.218555
    23  C   -0.170749
    24  C    0.158276
    25  C   -0.170770
    26  C   -0.218593
    27  H    0.226057
    28  H    0.223904
    29  H    0.275787
    30  H    0.275976
    31  H    0.223897
    32  N    0.489034
    33  O   -0.458168
    34  O   -0.459862
 Sum of Mulliken charges =  -0.00000

 Dipole moment (field-independent basis, Debye):
    X=              4.6037    Y=             -3.0900    Z=              0.5194  Tot=              5.5689
 Quadrupole moment (field-independent basis, Debye-Ang):
   XX=            -71.2241   YY=            -93.1092   ZZ=            -94.1863
   XY=             -7.3123   XZ=              2.5446   YZ=              1.8043

 Normal termination of Gaussian 16 at Thu May  6 01:00:48 2021.
