 Gaussian 16, Revision A.03,
 Gaussian 16:  EM64L-G16RevA.03 25-Dec-2016

 -------------
 #p 6-31g* mp2
 -------------

 ------------------------------------------------------
 Input file generated by CHIRIPA (05-May-2021 14:55:24)
 ------------------------------------------------------
 Symbolic Z-matrix:
 Charge =  0 Multiplicity = 1

                         Standard orientation:
 ---------------------------------------------------------------------
 Center     Atomic      Atomic             Coordinates (Angstroms)
 Number     Number       Type             X           Y           Z
 ---------------------------------------------------------------------
      1          6           0        1.781553    2.150055   -0.699857
      2          6           0        3.176038    2.056408   -0.756094
      3          6           0        3.822786    0.868846   -0.401182
      4          6           0        3.040529   -0.210309    0.007216
      5          6           0        1.649487   -0.148096    0.073704
      6          6           0        1.024064    1.049444   -0.285867
      7          1           0        1.287427    3.076457   -0.977371
      8          1           0        3.766863    2.909546   -1.077227
      9          1           0        4.900865    0.768916   -0.435490
     10          1           0        1.087374   -1.015514    0.397793
     11          1           0       -0.059067    1.119296   -0.241226
     12          7           0        3.713925   -1.472809    0.385412
     13          8           0        3.002087   -2.409221    0.741862
     14          8           0        4.940819   -1.502039    0.318231
     15          6           0       -3.641211    0.559086    0.582650
     16          6           0       -3.253299    1.896823   -0.048196
     17          6           0       -3.039456    2.999642    0.989038
     18          1           0       -4.557981    0.691623    1.173338
     19          1           0       -2.856344    0.253013    1.288126
     20          1           0       -4.038005    2.199605   -0.753302
     21          1           0       -2.337453    1.761043   -0.637609
     22          1           0       -2.242310    2.723053    1.686647
     23          1           0       -3.952525    3.164106    1.570295
     24          1           0       -2.762918    3.947231    0.516320
     25          6           0       -3.858426   -0.553368   -0.441554
     26          6           0       -4.246338   -1.891106    0.189291
     27          6           0       -4.460181   -2.993924   -0.847944
     28          1           0       -4.643293   -0.247294   -1.147031
     29          1           0       -2.941657   -0.685905   -1.032243
     30          1           0       -5.162184   -1.755326    0.778703
     31          1           0       -3.461631   -2.193887    0.894398
     32          1           0       -3.547113   -3.158388   -1.429200
     33          1           0       -5.257328   -2.717335   -1.545552
     34          1           0       -4.736719   -3.941512   -0.375225
 ---------------------------------------------------------------------

 SCF Done:  E(RHF) =  -669.535502822     A.U. after   15 cycles
 E2 =    -0.2091309766D+01 EUMP2 =    -0.67162681258831D+03

 The electronic state is 1-A.
 Alpha  occ. eigenvalues --  -20.60763 -20.60757 -15.85816 -11.31180 -11.27751
 Alpha  occ. eigenvalues --  -11.27748 -11.27486 -11.26763 -11.26736 -11.22657
 Alpha  occ. eigenvalues --  -11.22219 -11.22090 -11.22030 -11.22010 -11.21396
 Alpha  occ. eigenvalues --   -1.59838  -1.39392  -1.19352  -1.09197  -1.08746
 Alpha  occ. eigenvalues --   -1.04758  -1.04245  -0.96671  -0.95582  -0.87686
 Alpha  occ. eigenvalues --   -0.86157  -0.82416  -0.80332  -0.78968  -0.77465
 Alpha  occ. eigenvalues --   -0.72034  -0.71161  -0.70459  -0.65926  -0.65004
 Alpha  occ. eigenvalues --   -0.64731  -0.62176  -0.61566  -0.60061  -0.58271
 Alpha  occ. eigenvalues --   -0.55958  -0.55252  -0.53363  -0.53087  -0.53084
 Alpha  occ. eigenvalues --   -0.52851  -0.50616  -0.48806  -0.48790  -0.48608
 Alpha  occ. eigenvalues --   -0.47386  -0.46500  -0.46423  -0.44798  -0.44498
 Alpha  occ. eigenvalues --   -0.37331  -0.36360
 Alpha virt. eigenvalues --    0.05072   0.11275   0.16558   0.18430   0.22904
 Alpha virt. eigenvalues --    0.23659   0.25309   0.26518   0.27065   0.28458
 Alpha virt. eigenvalues --    0.29179   0.30083   0.31005   0.31330   0.32067

 Mulliken charges:
               1
     1  C   -0.172932
     2  C   -0.218515
     3  C   -0.171198
     4  C    0.159049
     5  C   -0.173060
     6  C   -0.227400
     7  H    0.225949
     8  H    0.223432
     9  H    0.275585
    10  H    0.275568
    11  H    0.235991
    12  N    0.488022
    13  O   -0.460565
    14  O   -0.460451
    15  C   -0.300146
    16  C   -0.303882
    17  C   -0.477587
    18  H    0.154516
    19  H    0.147744
    20  H    0.157831
    21  H    0.142000
    22  H    0.155143
    23  H    0.160832
    24  H    0.159568
    25  C   -0.298516
    26  C   -0.300394
    27  C   -0.476245
    28  H    0.151990
    29  H    0.145876
    30  H    0.153603
    31  H    0.153018
    32  H    0.156411
    33  H    0.155553
    34  H    0.163210
 Sum of Mulliken charges =  -0.00000

 Dipole moment (field-independent basis, Debye):
    X=             -2.5852    Y=              4.4246    Z=             -1.2989  Tot=              5.2866
 Quadrupole moment (field-independent basis, Debye-Ang):
   XX=           -103.3426   YY=            -96.7626   ZZ=            -95.8062
   XY=             15.9107   XZ=             -5.3141   YZ=             -0.6965

 Normal termination of Gaussian 16 at Thu May  6 07:57:13 2021.
