 Gaussian 16, Revision A.03,
 Gaussian 16:  EM64L-G16RevA.03 25-Dec-2016

 -------------
 #p 6-31g* mp2
 -------------

 ------------------------------------------------------
 Input file generated by CHIRIPA (05-May-2021 14:57:23)
 ------------------------------------------------------
 Symbolic Z-matrix:
 Charge =  0 Multiplicity = 1

                         Standard orientation:
 ---------------------------------------------------------------------
 Center     Atomic      Atomic             Coordinates (Angstroms)
 Number     Number       Type             X           Y           Z
 ---------------------------------------------------------------------
      1          6           0       -3.308371   -2.299182   -0.617209
      2          6           0       -4.548965   -1.743527   -0.946898
      3          6           0       -4.844353   -0.418202   -0.614019
      4          6           0       -3.871481    0.326103    0.051428
      5          6           0       -2.626314   -0.199064    0.393551
      6          6           0       -2.352689   -1.526539    0.050786
      7          1           0       -3.087360   -3.329561   -0.879637
      8          1           0       -5.293075   -2.341214   -1.465663
      9          1           0       -5.796721    0.037066   -0.857212
     10          1           0       -1.904724    0.421589    0.910772
     11          1           0       -1.388383   -1.955436    0.308089
     12          7           0       -4.172674    1.730304    0.409065
     13          8           0       -3.298539    2.365059    0.995248
     14          8           0       -5.277182    2.169572    0.096426
     15          6           0        1.879520   -1.489340    0.812638
     16          6           0        3.031881   -1.374940    1.597175
     17          6           0        4.114171   -0.604877    1.161056
     18          6           0        4.009617    0.040157   -0.070321
     19          6           0        2.875041   -0.054407   -0.874738
     20          6           0        1.804910   -0.829871   -0.418644
     21          1           0        1.043494   -2.089642    1.159184
     22          1           0        3.092620   -1.885981    2.553832
     23          1           0        5.018246   -0.499180    1.748333
     24          1           0        2.843944    0.466731   -1.823878
     25          1           0        0.911225   -0.916920   -1.030031
     26          7           0        5.148952    0.858247   -0.542594
     27          8           0        5.031978    1.416640   -1.631240
     28          8           0        6.137366    0.925583    0.184827
 ---------------------------------------------------------------------

 SCF Done:  E(RHF) =  -868.336410368     A.U. after   16 cycles
 E2 =    -0.2600209218D+01 EUMP2 =    -0.87093661958649D+03

 The electronic state is 1-A.
 Alpha  occ. eigenvalues --  -20.61325 -20.61320 -20.61071 -20.61066 -15.86389
 Alpha  occ. eigenvalues --  -15.86129 -11.31927 -11.31652 -11.28598 -11.28510
 Alpha  occ. eigenvalues --  -11.28351 -11.28233 -11.28214 -11.28156 -11.27740
 Alpha  occ. eigenvalues --  -11.27523 -11.27358 -11.27310  -1.60399  -1.60142
 Alpha  occ. eigenvalues --   -1.39947  -1.39691  -1.20147  -1.19853  -1.09507
 Alpha  occ. eigenvalues --   -1.09255  -1.05595  -1.05268  -0.96301  -0.96058
 Alpha  occ. eigenvalues --   -0.86989  -0.86680  -0.83148  -0.82871  -0.78168
 Alpha  occ. eigenvalues --   -0.77856  -0.72602  -0.72348  -0.71727  -0.71464
 Alpha  occ. eigenvalues --   -0.71241  -0.71064  -0.65806  -0.65729  -0.65499
 Alpha  occ. eigenvalues --   -0.65228  -0.62954  -0.62572  -0.56102  -0.55875
 Alpha  occ. eigenvalues --   -0.53901  -0.53693  -0.53596  -0.53355  -0.49377
 Alpha  occ. eigenvalues --   -0.49345  -0.49120  -0.49089  -0.45314  -0.45060
 Alpha  occ. eigenvalues --   -0.38130  -0.37896  -0.37204  -0.36850
 Alpha virt. eigenvalues --    0.04395   0.04658   0.10408   0.10750   0.15745
 Alpha virt. eigenvalues --    0.16081   0.17859   0.22011   0.24682   0.26841
 Alpha virt. eigenvalues --    0.27593   0.28709   0.29906   0.31367   0.31782

 Mulliken charges:
               1
     1  C   -0.171096
     2  C   -0.218461
     3  C   -0.168909
     4  C    0.159112
     5  C   -0.172493
     6  C   -0.225261
     7  H    0.227281
     8  H    0.226444
     9  H    0.278617
    10  H    0.277808
    11  H    0.216462
    12  N    0.488025
    13  O   -0.458516
    14  O   -0.458097
    15  C   -0.176019
    16  C   -0.216964
    17  C   -0.169882
    18  C    0.159640
    19  C   -0.169051
    20  C   -0.221457
    21  H    0.218372
    22  H    0.225275
    23  H    0.277818
    24  H    0.278431
    25  H    0.222078
    26  N    0.487962
    27  O   -0.458377
    28  O   -0.458741
 Sum of Mulliken charges =  -0.00000

 Dipole moment (field-independent basis, Debye):
    X=             -2.9955    Y=             -7.6656    Z=              0.3552  Tot=              8.2377
 Quadrupole moment (field-independent basis, Debye-Ang):
   XX=           -138.2480   YY=           -109.4606   ZZ=           -101.6578
   XY=              7.7862   XZ=             16.7725   YZ=             -1.1934

 Normal termination of Gaussian 16 at Fri May  7 04:56:01 2021.
