 Gaussian 16, Revision A.03,
 Gaussian 16:  EM64L-G16RevA.03 25-Dec-2016

 -------------
 #p 6-31g* mp2
 -------------

 ------------------------------------------------------
 Input file generated by CHIRIPA (05-May-2021 14:53:13)
 ------------------------------------------------------
 Symbolic Z-matrix:
 Charge =  0 Multiplicity = 1

                         Standard orientation:
 ---------------------------------------------------------------------
 Center     Atomic      Atomic             Coordinates (Angstroms)
 Number     Number       Type             X           Y           Z
 ---------------------------------------------------------------------
      1          6           0        3.100204    0.823197   -0.199609
      2          6           0        2.593477    1.564369   -1.437300
      3          6           0        2.493065    3.074787   -1.222010
      4          1           0        2.428748    1.030818    0.644776
      5          1           0        4.085694    1.221030    0.079556
      6          1           0        1.609850    1.164306   -1.714867
      7          1           0        3.266109    1.354806   -2.278884
      8          1           0        3.472045    3.493546   -0.967374
      9          1           0        1.806375    3.301963   -0.400153
     10          1           0        2.128855    3.584863   -2.119246
     11          6           0        3.205995   -0.687657   -0.399251
     12          6           0        3.712722   -1.428829    0.838440
     13          6           0        3.813134   -2.939247    0.623150
     14          1           0        2.220505   -1.085490   -0.678416
     15          1           0        3.877450   -0.895277   -1.243636
     16          1           0        3.040090   -1.219266    1.680024
     17          1           0        4.696349   -1.028766    1.116007
     18          1           0        4.499823   -3.166423   -0.198707
     19          1           0        2.834154   -3.358005    0.368514
     20          1           0        4.177344   -3.449323    1.520386
     21          6           0       -3.934010   -1.391291   -1.319113
     22          6           0       -2.586995   -1.733972   -1.162137
     23          6           0       -1.762824   -0.999490   -0.304333
     24          6           0       -2.321181    0.076441    0.384072
     25          6           0       -3.659432    0.442641    0.248891
     26          6           0       -4.464993   -0.305991   -0.614341
     27          1           0       -4.567017   -1.967349   -1.987585
     28          1           0       -2.171914   -2.576331   -1.708198
     29          1           0       -0.716646   -1.242918   -0.164083
     30          1           0       -4.044626    1.287590    0.806659
     31          1           0       -5.510749   -0.037569   -0.734289
     32          7           0       -1.458520    0.861494    1.295064
     33          8           0       -1.974562    1.804963    1.890214
     34          8           0       -0.282657    0.518484    1.396701
 ---------------------------------------------------------------------

 SCF Done:  E(RHF) =  -669.536394693     A.U. after   15 cycles
 E2 =    -0.2091935449D+01 EUMP2 =    -0.67162833014198D+03

 The electronic state is 1-A.
 Alpha  occ. eigenvalues --  -20.61023 -20.61013 -15.86052 -11.31334 -11.27894
 Alpha  occ. eigenvalues --  -11.27887 -11.27620 -11.26891 -11.26881 -11.20998
 Alpha  occ. eigenvalues --  -11.20883 -11.20820 -11.20747 -11.20338 -11.20300
 Alpha  occ. eigenvalues --   -1.60079  -1.39636  -1.19497  -1.08909  -1.07705
 Alpha  occ. eigenvalues --   -1.04888  -1.02888  -0.95760  -0.95339  -0.86362
 Alpha  occ. eigenvalues --   -0.86290  -0.82595  -0.78960  -0.77657  -0.77502
 Alpha  occ. eigenvalues --   -0.72286  -0.71391  -0.70607  -0.65164  -0.64895
 Alpha  occ. eigenvalues --   -0.64292  -0.62235  -0.60279  -0.58725  -0.56957
 Alpha  occ. eigenvalues --   -0.55394  -0.54620  -0.53221  -0.52981  -0.52074
 Alpha  occ. eigenvalues --   -0.51774  -0.49284  -0.49038  -0.49015  -0.47288
 Alpha  occ. eigenvalues --   -0.45986  -0.45196  -0.45062  -0.44745  -0.43114
 Alpha  occ. eigenvalues --   -0.37472  -0.36486
 Alpha virt. eigenvalues --    0.04850   0.11146   0.16342   0.20058   0.22867
 Alpha virt. eigenvalues --    0.24893   0.25754   0.27485   0.28158   0.28488
 Alpha virt. eigenvalues --    0.29314   0.31257   0.31805   0.32267   0.32632

 Mulliken charges:
               1
     1  C   -0.308199
     2  C   -0.296499
     3  C   -0.477620
     4  H    0.178966
     5  H    0.145094
     6  H    0.146299
     7  H    0.146427
     8  H    0.153404
     9  H    0.164256
    10  H    0.155279
    11  C   -0.294845
    12  C   -0.302207
    13  C   -0.474068
    14  H    0.140463
    15  H    0.145131
    16  H    0.162110
    17  H    0.151288
    18  H    0.153123
    19  H    0.148569
    20  H    0.159887
    21  C   -0.170309
    22  C   -0.219335
    23  C   -0.173617
    24  C    0.157306
    25  C   -0.170226
    26  C   -0.218670
    27  H    0.226256
    28  H    0.224446
    29  H    0.279480
    30  H    0.275911
    31  H    0.224000
    32  N    0.491685
    33  O   -0.458349
    34  O   -0.465437
 Sum of Mulliken charges =  -0.00000

 Dipole moment (field-independent basis, Debye):
    X=             -3.2474    Y=             -2.6558    Z=             -2.9890  Tot=              5.1510
 Quadrupole moment (field-independent basis, Debye-Ang):
   XX=            -77.2521   YY=            -95.4888   ZZ=            -97.8022
   XY=              4.1625   XZ=              5.7688   YZ=             -0.1973

 Normal termination of Gaussian 16 at Thu May  6 10:30:53 2021.
