 Gaussian 16, Revision A.03,
 Gaussian 16:  EM64L-G16RevA.03 25-Dec-2016

 -------------
 #p 6-31g* mp2
 -------------

 ------------------------------------------------------
 Input file generated by CHIRIPA (05-May-2021 14:53:18)
 ------------------------------------------------------
 Symbolic Z-matrix:
 Charge =  0 Multiplicity = 1

                         Standard orientation:
 ---------------------------------------------------------------------
 Center     Atomic      Atomic             Coordinates (Angstroms)
 Number     Number       Type             X           Y           Z
 ---------------------------------------------------------------------
      1          6           0        2.729583    0.688129   -0.178368
      2          6           0        3.041263    2.013498   -0.874241
      3          6           0        1.962756    3.071806   -0.640577
      4          1           0        1.761324    0.312208   -0.536281
      5          1           0        2.616567    0.865923    0.900062
      6          1           0        3.155025    1.833029   -1.950858
      7          1           0        4.008983    2.386212   -0.514772
      8          1           0        1.853428    3.280919    0.428497
      9          1           0        0.994618    2.724592   -1.015748
     10          1           0        2.205709    4.011203   -1.146905
     11          6           0        3.798568   -0.379912   -0.402620
     12          6           0        3.486888   -1.705280    0.293253
     13          6           0        4.565395   -2.763588    0.059589
     14          1           0        3.911584   -0.557705   -1.481050
     15          1           0        4.766827   -0.003990   -0.044708
     16          1           0        2.519167   -2.077994   -0.066216
     17          1           0        3.373125   -1.524811    1.369870
     18          1           0        5.533532   -2.416374    0.434760
     19          1           0        4.674722   -2.972701   -1.009486
     20          1           0        4.322442   -3.702985    0.565916
     21          6           0       -0.541273    0.874581    1.384844
     22          6           0       -0.548978   -0.480235    1.037088
     23          6           0       -1.656570   -1.042227    0.395253
     24          6           0       -2.744261   -0.216589    0.115008
     25          6           0       -2.766684    1.136692    0.448799
     26          6           0       -1.648200    1.677306    1.090109
     27          1           0        0.323362    1.302847    1.883233
     28          1           0        0.309273   -1.106033    1.264742
     29          1           0       -1.689092   -2.088042    0.114837
     30          1           0       -3.637012    1.735312    0.208798
     31          1           0       -1.645001    2.729793    1.359008
     32          7           0       -3.922585   -0.800228   -0.564196
     33          8           0       -4.868363   -0.051558   -0.800062
     34          8           0       -3.878064   -1.995304   -0.847830
 ---------------------------------------------------------------------

 SCF Done:  E(RHF) =  -669.534037007     A.U. after   15 cycles
 E2 =    -0.2094472320D+01 EUMP2 =    -0.67162850932652D+03

 The electronic state is 1-A.
 Alpha  occ. eigenvalues --  -20.60722 -20.60717 -15.85776 -11.31119 -11.27704
 Alpha  occ. eigenvalues --  -11.27690 -11.27376 -11.26688 -11.26625 -11.22592
 Alpha  occ. eigenvalues --  -11.22397 -11.22282 -11.22198 -11.21897 -11.21797
 Alpha  occ. eigenvalues --   -1.59799  -1.39353  -1.19301  -1.09339  -1.08676
 Alpha  occ. eigenvalues --   -1.04701  -1.04381  -0.96812  -0.95530  -0.87835
 Alpha  occ. eigenvalues --   -0.86094  -0.82367  -0.80465  -0.79221  -0.77399
 Alpha  occ. eigenvalues --   -0.71994  -0.71124  -0.70394  -0.65949  -0.64944
 Alpha  occ. eigenvalues --   -0.64686  -0.62052  -0.61769  -0.60193  -0.58441
 Alpha  occ. eigenvalues --   -0.56096  -0.55188  -0.53514  -0.53273  -0.53058
 Alpha  occ. eigenvalues --   -0.52771  -0.50752  -0.48793  -0.48751  -0.48717
 Alpha  occ. eigenvalues --   -0.47491  -0.46673  -0.46588  -0.44765  -0.44630
 Alpha  occ. eigenvalues --   -0.37160  -0.36284
 Alpha virt. eigenvalues --    0.05100   0.11222   0.16487   0.19681   0.22571
 Alpha virt. eigenvalues --    0.22764   0.24950   0.25537   0.26848   0.28591
 Alpha virt. eigenvalues --    0.29179   0.29956   0.31122   0.31306   0.31789

 Mulliken charges:
               1
     1  C   -0.306648
     2  C   -0.298954
     3  C   -0.479002
     4  H    0.160383
     5  H    0.137390
     6  H    0.156358
     7  H    0.153294
     8  H    0.145440
     9  H    0.161491
    10  H    0.163965
    11  C   -0.297170
    12  C   -0.304032
    13  C   -0.475691
    14  H    0.153923
    15  H    0.151828
    16  H    0.149341
    17  H    0.147840
    18  H    0.157558
    19  H    0.158673
    20  H    0.161992
    21  C   -0.166621
    22  C   -0.224244
    23  C   -0.173885
    24  C    0.158069
    25  C   -0.171394
    26  C   -0.220171
    27  H    0.228380
    28  H    0.230979
    29  H    0.275140
    30  H    0.275377
    31  H    0.223784
    32  N    0.488149
    33  O   -0.460733
    34  O   -0.460807
 Sum of Mulliken charges =  -0.00000

 Dipole moment (field-independent basis, Debye):
    X=              4.3176    Y=              2.0457    Z=              2.2570  Tot=              5.2840
 Quadrupole moment (field-independent basis, Debye-Ang):
   XX=           -116.9309   YY=            -92.3621   ZZ=            -94.2327
   XY=             -8.4372   XZ=             -6.1605   YZ=             -0.0740

 Normal termination of Gaussian 16 at Wed May  5 15:47:44 2021.
