 Gaussian 16, Revision A.03,
 Gaussian 16:  EM64L-G16RevA.03 25-Dec-2016

 -------------
 #p 6-31g* mp2
 -------------

 ------------------------------------------------------
 Input file generated by CHIRIPA (05-May-2021 14:57:27)
 ------------------------------------------------------
 Symbolic Z-matrix:
 Charge =  0 Multiplicity = 1

                         Standard orientation:
 ---------------------------------------------------------------------
 Center     Atomic      Atomic             Coordinates (Angstroms)
 Number     Number       Type             X           Y           Z
 ---------------------------------------------------------------------
      1          6           0        1.876562   -1.201106    1.624541
      2          6           0        1.526315   -0.995831    0.285994
      3          6           0        2.430831   -0.406382   -0.602235
      4          6           0        3.682660   -0.032664   -0.115873
      5          6           0        4.061140   -0.223953    1.212077
      6          6           0        3.140628   -0.815192    2.082504
      7          1           0        1.167700   -1.659699    2.307624
      8          1           0        0.545328   -1.294540   -0.072448
      9          1           0        2.185729   -0.235791   -1.643504
     10          1           0        5.046434    0.084318    1.540072
     11          1           0        3.415364   -0.973387    3.121513
     12          7           0        4.648697    0.592307   -1.046778
     13          8           0        5.745315    0.912686   -0.593540
     14          8           0        4.290968    0.749946   -2.212031
     15          6           0       -3.367332    2.541273    0.707168
     16          6           0       -4.457787    2.114737   -0.058009
     17          6           0       -4.554664    0.784214   -0.476182
     18          6           0       -3.538538   -0.096899   -0.109548
     19          6           0       -2.439625    0.297693    0.652014
     20          6           0       -2.363500    1.632991    1.059117
     21          1           0       -3.300136    3.576710    1.027715
     22          1           0       -5.238854    2.817917   -0.332815
     23          1           0       -5.387858    0.427201   -1.069264
     24          1           0       -1.676596   -0.426497    0.910382
     25          1           0       -1.515486    1.961435    1.653289
     26          7           0       -3.630112   -1.507991   -0.546389
     27          8           0       -2.721752   -2.264644   -0.210238
     28          8           0       -4.608513   -1.830635   -1.216666
 ---------------------------------------------------------------------

 SCF Done:  E(RHF) =  -868.338484025     A.U. after   16 cycles
 E2 =    -0.2599693594D+01 EUMP2 =    -0.87093817761945D+03

 The electronic state is 1-A.
 Alpha  occ. eigenvalues --  -20.61602 -20.61549 -20.60876 -20.60870 -15.86614
 Alpha  occ. eigenvalues --  -15.85928 -11.31883 -11.31323 -11.28501 -11.28371
 Alpha  occ. eigenvalues --  -11.28084 -11.27898 -11.27863 -11.27642 -11.27414
 Alpha  occ. eigenvalues --  -11.27361 -11.26923 -11.26845  -1.60637  -1.59951
 Alpha  occ. eigenvalues --   -1.40201  -1.39503  -1.20025  -1.19496  -1.09425
 Alpha  occ. eigenvalues --   -1.08891  -1.05416  -1.04889  -0.96288  -0.95718
 Alpha  occ. eigenvalues --   -0.86823  -0.86286  -0.83124  -0.82537  -0.78213
 Alpha  occ. eigenvalues --   -0.77574  -0.72834  -0.72145  -0.71951  -0.71276
 Alpha  occ. eigenvalues --   -0.71137  -0.70599  -0.65675  -0.65452  -0.65140
 Alpha  occ. eigenvalues --   -0.64853  -0.62808  -0.62175  -0.55889  -0.55396
 Alpha  occ. eigenvalues --   -0.53742  -0.53538  -0.53227  -0.52923  -0.49608
 Alpha  occ. eigenvalues --   -0.49565  -0.48905  -0.48898  -0.45622  -0.44901
 Alpha  occ. eigenvalues --   -0.37972  -0.37505  -0.37017  -0.36487
 Alpha virt. eigenvalues --    0.04305   0.04938   0.10576   0.11071   0.15860
 Alpha virt. eigenvalues --    0.16428   0.19555   0.21809   0.25390   0.27171
 Alpha virt. eigenvalues --    0.27864   0.28959   0.30469   0.31003   0.31603

 Mulliken charges:
               1
     1  C   -0.175598
     2  C   -0.230259
     3  C   -0.171275
     4  C    0.158457
     5  C   -0.171506
     6  C   -0.218771
     7  H    0.226863
     8  H    0.236741
     9  H    0.277766
    10  H    0.275777
    11  H    0.223604
    12  N    0.487909
    13  O   -0.460471
    14  O   -0.459499
    15  C   -0.170094
    16  C   -0.217771
    17  C   -0.170126
    18  C    0.159196
    19  C   -0.174165
    20  C   -0.218310
    21  H    0.228727
    22  H    0.226367
    23  H    0.277473
    24  H    0.267763
    25  H    0.225912
    26  N    0.489234
    27  O   -0.469164
    28  O   -0.454782
 Sum of Mulliken charges =  -0.00000

 Dipole moment (field-independent basis, Debye):
    X=             -3.2691    Y=              2.8946    Z=              4.7417  Tot=              6.4459
 Quadrupole moment (field-independent basis, Debye-Ang):
   XX=           -125.7119   YY=           -106.4672   ZZ=           -102.9987
   XY=            -27.0181   XZ=             12.3119   YZ=             -0.6358

 Normal termination of Gaussian 16 at Wed May  5 18:03:34 2021.
