 Gaussian 16, Revision A.03,
 Gaussian 16:  EM64L-G16RevA.03 25-Dec-2016

 -------------
 #p 6-31g* mp2
 -------------

 ------------------------------------------------------
 Input file generated by CHIRIPA (05-May-2021 14:51:10)
 ------------------------------------------------------
 Symbolic Z-matrix:
 Charge =  0 Multiplicity = 1

                         Standard orientation:
 ---------------------------------------------------------------------
 Center     Atomic      Atomic             Coordinates (Angstroms)
 Number     Number       Type             X           Y           Z
 ---------------------------------------------------------------------
      1          6           0       -4.332323   -0.015101   -0.292013
      2          6           0       -5.685667   -0.452200    0.269580
      3          6           0       -6.863923    0.212468   -0.442967
      4          1           0       -4.243749    1.076839   -0.209754
      5          1           0       -4.294408   -0.251872   -1.364346
      6          1           0       -5.720486   -0.215933    1.340832
      7          1           0       -5.770950   -1.543247    0.186149
      8          1           0       -6.857211   -0.033170   -1.509840
      9          1           0       -6.806461    1.301685   -0.348597
     10          1           0       -7.821528   -0.114171   -0.025643
     11          6           0       -3.144661   -0.671035    0.410082
     12          6           0       -1.791316   -0.233936   -0.151511
     13          6           0       -0.613060   -0.898604    0.561035
     14          1           0       -3.182575   -0.434264    1.482414
     15          1           0       -3.233234   -1.762975    0.327823
     16          1           0       -1.706033    0.857111   -0.068081
     17          1           0       -1.756497   -0.470203   -1.222764
     18          1           0       -0.670522   -1.987821    0.466665
     19          1           0       -0.619772   -0.652966    1.627908
     20          1           0        0.344545   -0.571965    0.143711
     21          6           0        4.365971   -0.091814   -0.034960
     22          6           0        4.078108   -1.582317   -0.218044
     23          6           0        5.343328   -2.439321   -0.167479
     24          1           0        5.065699    0.238491   -0.814847
     25          1           0        4.875098    0.060751    0.926762
     26          1           0        3.568437   -1.731863   -1.178507
     27          1           0        3.378834   -1.909069    0.562254
     28          1           0        5.851489   -2.319631    0.794835
     29          1           0        6.042169   -2.141417   -0.955817
     30          1           0        5.114472   -3.501294   -0.300513
     31          6           0        3.111013    0.777950   -0.083108
     32          6           0        3.398875    2.268454    0.099977
     33          6           0        2.133655    3.125457    0.049411
     34          1           0        2.601885    0.625386   -1.044830
     35          1           0        2.411284    0.447646    0.696779
     36          1           0        4.098148    2.595206   -0.680322
     37          1           0        3.908545    2.417998    1.060438
     38          1           0        1.434814    2.827554    0.837749
     39          1           0        1.625494    3.005767   -0.912903
     40          1           0        2.362511    4.187430    0.182445
 ---------------------------------------------------------------------

 SCF Done:  E(RHF) =  -470.733099510     A.U. after   11 cycles
 E2 =    -0.1582914480D+01 EUMP2 =    -0.47231601398918D+03

 The electronic state is 1-A.
 Alpha  occ. eigenvalues --  -11.21617 -11.21592 -11.21576 -11.21539 -11.21409
 Alpha  occ. eigenvalues --  -11.21365 -11.21350 -11.21304 -11.21087 -11.21065
 Alpha  occ. eigenvalues --  -11.21051 -11.20935  -1.08448  -1.08383  -1.03537
 Alpha  occ. eigenvalues --   -1.03478  -0.96001  -0.95919  -0.87023  -0.86933
 Alpha  occ. eigenvalues --   -0.79608  -0.79545  -0.78275  -0.78195  -0.65080
 Alpha  occ. eigenvalues --   -0.65014  -0.60939  -0.60871  -0.59405  -0.59275
 Alpha  occ. eigenvalues --   -0.57681  -0.57464  -0.55282  -0.55213  -0.52796
 Alpha  occ. eigenvalues --   -0.52632  -0.52419  -0.52252  -0.49936  -0.49865
 Alpha  occ. eigenvalues --   -0.47953  -0.47832  -0.46637  -0.46575  -0.45789
 Alpha  occ. eigenvalues --   -0.45737  -0.45727  -0.45666  -0.43805  -0.43633
 Alpha virt. eigenvalues --    0.21911   0.23091   0.23787   0.24676   0.26234
 Alpha virt. eigenvalues --    0.26448   0.26662   0.27402   0.27996   0.29169
 Alpha virt. eigenvalues --    0.31074   0.31491   0.31547   0.31754   0.32124

 Mulliken charges:
               1
     1  C   -0.298211
     2  C   -0.299587
     3  C   -0.475675
     4  H    0.149657
     5  H    0.149377
     6  H    0.151846
     7  H    0.151860
     8  H    0.155122
     9  H    0.155169
    10  H    0.160149
    11  C   -0.298273
    12  C   -0.299210
    13  C   -0.484424
    14  H    0.149244
    15  H    0.149480
    16  H    0.152208
    17  H    0.151400
    18  H    0.154416
    19  H    0.153152
    20  H    0.170844
    21  C   -0.297616
    22  C   -0.300760
    23  C   -0.475640
    24  H    0.149534
    25  H    0.149488
    26  H    0.151769
    27  H    0.153388
    28  H    0.155197
    29  H    0.155102
    30  H    0.160348
    31  C   -0.304403
    32  C   -0.298962
    33  C   -0.476424
    34  H    0.149406
    35  H    0.155920
    36  H    0.151943
    37  H    0.151935
    38  H    0.155470
    39  H    0.155357
    40  H    0.160405
 Sum of Mulliken charges =  -0.00000

 Dipole moment (field-independent basis, Debye):
    X=              0.0478    Y=              0.0108    Z=             -0.0016  Tot=              0.0491
 Quadrupole moment (field-independent basis, Debye-Ang):
   XX=            -86.4279   YY=            -84.9139   ZZ=            -83.4804
   XY=              1.0034   XZ=             -0.4512   YZ=              0.6177

 Normal termination of Gaussian 16 at Wed May  5 19:46:46 2021.
