 Gaussian 16, Revision A.03,
 Gaussian 16:  EM64L-G16RevA.03 25-Dec-2016

 -------------
 #p 6-31g* mp2
 -------------

 ------------------------------------------------------
 Input file generated by CHIRIPA (05-May-2021 14:55:19)
 ------------------------------------------------------
 Symbolic Z-matrix:
 Charge =  0 Multiplicity = 1

                         Standard orientation:
 ---------------------------------------------------------------------
 Center     Atomic      Atomic             Coordinates (Angstroms)
 Number     Number       Type             X           Y           Z
 ---------------------------------------------------------------------
      1          6           0        2.877923   -2.526507   -0.801791
      2          6           0        2.674894   -2.358980    0.571976
      3          6           0        2.433368   -1.089018    1.104338
      4          6           0        2.401500   -0.003696    0.230068
      5          6           0        2.600010   -0.138294   -1.143165
      6          6           0        2.839901   -1.417585   -1.653475
      7          1           0        3.064911   -3.516668   -1.206777
      8          1           0        2.703866   -3.218378    1.235784
      9          1           0        2.272859   -0.930812    2.163879
     10          1           0        2.565266    0.737424   -1.779819
     11          1           0        2.997227   -1.544700   -2.720778
     12          7           0        2.146674    1.345694    0.781983
     13          8           0        2.123548    2.285800   -0.009410
     14          8           0        1.974891    1.437689    1.995517
     15          6           0       -3.224674   -0.461537   -0.077446
     16          6           0       -4.663784   -0.846217    0.267472
     17          6           0       -4.841915   -2.351791    0.465735
     18          1           0       -2.918774   -0.991681   -0.989760
     19          1           0       -2.557710   -0.808210    0.724035
     20          1           0       -5.328001   -0.497702   -0.533758
     21          1           0       -4.966359   -0.314947    1.178963
     22          1           0       -4.202878   -2.711579    1.278623
     23          1           0       -4.566575   -2.895372   -0.443831
     24          1           0       -5.878052   -2.604547    0.711487
     25          6           0       -3.030683    1.040331   -0.278664
     26          6           0       -1.591573    1.425011   -0.623580
     27          6           0       -1.413443    2.930586   -0.821845
     28          1           0       -3.697648    1.387004   -1.080144
     29          1           0       -3.336583    1.570476    0.633651
     30          1           0       -1.288999    0.893741   -1.535072
     31          1           0       -0.927356    1.076496    0.177649
     32          1           0       -1.688782    3.474166    0.087721
     33          1           0       -2.052480    3.290373   -1.634731
     34          1           0       -0.377305    3.183341   -1.067596
 ---------------------------------------------------------------------

 SCF Done:  E(RHF) =  -669.536112206     A.U. after   15 cycles
 E2 =    -0.2092310016D+01 EUMP2 =    -0.67162842222186D+03

 The electronic state is 1-A.
 Alpha  occ. eigenvalues --  -20.60922 -20.60916 -15.85945 -11.31250 -11.27813
 Alpha  occ. eigenvalues --  -11.27809 -11.27547 -11.26818 -11.26809 -11.21421
 Alpha  occ. eigenvalues --  -11.21129 -11.21037 -11.21001 -11.20923 -11.19999
 Alpha  occ. eigenvalues --   -1.59979  -1.39536  -1.19416  -1.08826  -1.08057
 Alpha  occ. eigenvalues --   -1.04812  -1.03084  -0.95677  -0.95499  -0.86521
 Alpha  occ. eigenvalues --   -0.86214  -0.82508  -0.79185  -0.77875  -0.77563
 Alpha  occ. eigenvalues --   -0.72178  -0.71303  -0.70529  -0.65076  -0.64819
 Alpha  occ. eigenvalues --   -0.64689  -0.62162  -0.60485  -0.58900  -0.57098
 Alpha  occ. eigenvalues --   -0.55319  -0.54804  -0.53143  -0.52907  -0.52156
 Alpha  occ. eigenvalues --   -0.51933  -0.49469  -0.48935  -0.48919  -0.47486
 Alpha  occ. eigenvalues --   -0.46240  -0.45405  -0.45332  -0.44916  -0.43308
 Alpha  occ. eigenvalues --   -0.37383  -0.36408
 Alpha virt. eigenvalues --    0.04938   0.11227   0.16399   0.21325   0.23182
 Alpha virt. eigenvalues --    0.24688   0.26873   0.27235   0.27594   0.28118
 Alpha virt. eigenvalues --    0.28710   0.30826   0.31624   0.31990   0.32141

 Mulliken charges:
               1
     1  C   -0.170416
     2  C   -0.218354
     3  C   -0.171358
     4  C    0.157942
     5  C   -0.169892
     6  C   -0.218627
     7  H    0.225861
     8  H    0.223668
     9  H    0.275577
    10  H    0.275501
    11  H    0.223618
    12  N    0.490428
    13  O   -0.459722
    14  O   -0.459552
    15  C   -0.297462
    16  C   -0.299347
    17  C   -0.475227
    18  H    0.146499
    19  H    0.148458
    20  H    0.151603
    21  H    0.152980
    22  H    0.153892
    23  H    0.153308
    24  H    0.159852
    25  C   -0.297663
    26  C   -0.299005
    27  C   -0.481274
    28  H    0.148118
    29  H    0.151746
    30  H    0.144822
    31  H    0.149499
    32  H    0.157151
    33  H    0.147257
    34  H    0.180120
 Sum of Mulliken charges =  -0.00000

 Dipole moment (field-independent basis, Debye):
    X=              1.0763    Y=             -4.6642    Z=             -1.8972  Tot=              5.1490
 Quadrupole moment (field-independent basis, Debye-Ang):
   XX=            -91.6941   YY=            -95.3709   ZZ=            -90.6228
   XY=            -11.7787   XZ=             -4.8434   YZ=             -2.7331

 Normal termination of Gaussian 16 at Thu May  6 06:05:29 2021.
