 Gaussian 16, Revision A.03,
 Gaussian 16:  EM64L-G16RevA.03 25-Dec-2016

 -------------
 #p 6-31g* mp2
 -------------

 ------------------------------------------------------
 Input file generated by CHIRIPA (05-May-2021 14:57:21)
 ------------------------------------------------------
 Symbolic Z-matrix:
 Charge =  0 Multiplicity = 1

                         Standard orientation:
 ---------------------------------------------------------------------
 Center     Atomic      Atomic             Coordinates (Angstroms)
 Number     Number       Type             X           Y           Z
 ---------------------------------------------------------------------
      1          6           0        2.033227    2.666193    0.116892
      2          6           0        3.377840    2.363952    0.356030
      3          6           0        3.851620    1.058506    0.195127
      4          6           0        2.949132    0.075454   -0.207879
      5          6           0        1.603753    0.345170   -0.453840
      6          6           0        1.152028    1.657615   -0.286569
      7          1           0        1.673750    3.683014    0.244359
      8          1           0        4.064459    3.145209    0.669458
      9          1           0        4.887538    0.796802    0.373464
     10          1           0        0.943201   -0.454890   -0.765279
     11          1           0        0.107256    1.889434   -0.472999
     12          7           0        3.439027   -1.310269   -0.381591
     13          8           0        2.623753   -2.158387   -0.737486
     14          8           0        4.629005   -1.522042   -0.158563
     15          6           0       -4.229575    1.694543   -0.541567
     16          6           0       -4.511122    0.429321   -1.067366
     17          6           0       -3.763442   -0.684995   -0.675165
     18          6           0       -2.736798   -0.497034    0.248935
     19          6           0       -2.431994    0.750679    0.790782
     20          6           0       -3.192737    1.850909    0.384196
     21          1           0       -4.815464    2.554700   -0.851826
     22          1           0       -5.315753    0.304910   -1.786488
     23          1           0       -3.959973   -1.675835   -1.066355
     24          1           0       -1.623678    0.843345    1.505944
     25          1           0       -2.971838    2.832307    0.794203
     26          7           0       -1.938348   -1.669254    0.671756
     27          8           0       -1.039123   -1.477189    1.487319
     28          8           0       -2.226867   -2.757909    0.179593
 ---------------------------------------------------------------------

 SCF Done:  E(RHF) =  -868.336435899     A.U. after   16 cycles
 E2 =    -0.2602000296D+01 EUMP2 =    -0.87093843619564D+03

 The electronic state is 1-A.
 Alpha  occ. eigenvalues --  -20.61197 -20.61186 -20.60168 -20.60113 -15.86243
 Alpha  occ. eigenvalues --  -15.85204 -11.31850 -11.30758 -11.28465 -11.28388
 Alpha  occ. eigenvalues --  -11.28187 -11.27540 -11.27421 -11.27409 -11.27365
 Alpha  occ. eigenvalues --  -11.27262 -11.26471 -11.26450  -1.60264  -1.59214
 Alpha  occ. eigenvalues --   -1.39809  -1.38760  -1.20047  -1.18985  -1.09381
 Alpha  occ. eigenvalues --   -1.08362  -1.05478  -1.04425  -0.96174  -0.95154
 Alpha  occ. eigenvalues --   -0.86846  -0.85825  -0.82995  -0.81990  -0.78021
 Alpha  occ. eigenvalues --   -0.76977  -0.72437  -0.71642  -0.71415  -0.71106
 Alpha  occ. eigenvalues --   -0.70533  -0.70124  -0.65678  -0.65451  -0.64649
 Alpha  occ. eigenvalues --   -0.64472  -0.62802  -0.61757  -0.55923  -0.54990
 Alpha  occ. eigenvalues --   -0.53826  -0.53545  -0.52728  -0.52493  -0.49215
 Alpha  occ. eigenvalues --   -0.49187  -0.48208  -0.48159  -0.45144  -0.44121
 Alpha  occ. eigenvalues --   -0.38027  -0.37137  -0.36974  -0.35991
 Alpha virt. eigenvalues --    0.04450   0.05589   0.10495   0.11606   0.15873
 Alpha virt. eigenvalues --    0.16949   0.20646   0.21752   0.26409   0.27425
 Alpha virt. eigenvalues --    0.27991   0.28398   0.30260   0.31276   0.31939

 Mulliken charges:
               1
     1  C   -0.172055
     2  C   -0.218886
     3  C   -0.170196
     4  C    0.157833
     5  C   -0.160764
     6  C   -0.227137
     7  H    0.220209
     8  H    0.221421
     9  H    0.275387
    10  H    0.277681
    11  H    0.219479
    12  N    0.488071
    13  O   -0.453095
    14  O   -0.463587
    15  C   -0.170505
    16  C   -0.217994
    17  C   -0.169822
    18  C    0.155365
    19  C   -0.180063
    20  C   -0.222998
    21  H    0.227588
    22  H    0.226699
    23  H    0.279585
    24  H    0.279156
    25  H    0.222592
    26  N    0.485898
    27  O   -0.457101
    28  O   -0.452763
 Sum of Mulliken charges =  -0.00000

 Dipole moment (field-independent basis, Debye):
    X=             -4.7564    Y=              8.6177    Z=             -0.8908  Tot=              9.8834
 Quadrupole moment (field-independent basis, Debye-Ang):
   XX=            -93.7707   YY=           -107.1825   ZZ=           -104.9428
   XY=              7.6278   XZ=              9.1356   YZ=              3.2913

 Normal termination of Gaussian 16 at Thu May  6 14:31:24 2021.
