 Gaussian 16, Revision A.03,
 Gaussian 16:  EM64L-G16RevA.03 25-Dec-2016

 -------------
 #p 6-31g* mp2
 -------------

 ------------------------------------------------------
 Input file generated by CHIRIPA (05-May-2021 14:51:11)
 ------------------------------------------------------
 Symbolic Z-matrix:
 Charge =  0 Multiplicity = 1

                         Standard orientation:
 ---------------------------------------------------------------------
 Center     Atomic      Atomic             Coordinates (Angstroms)
 Number     Number       Type             X           Y           Z
 ---------------------------------------------------------------------
      1          6           0       -3.069415   -0.413876    0.054220
      2          6           0       -3.679824   -1.579186   -0.725162
      3          6           0       -3.030158   -2.921338   -0.386994
      4          1           0       -1.992219   -0.364749   -0.155971
      5          1           0       -3.169190   -0.609669    1.130838
      6          1           0       -3.580166   -1.380605   -1.799987
      7          1           0       -4.755727   -1.625427   -0.513240
      8          1           0       -3.141891   -3.145768    0.678720
      9          1           0       -1.959650   -2.899556   -0.615338
     10          1           0       -3.481685   -3.740453   -0.955354
     11          6           0       -3.708402    0.934589   -0.272989
     12          6           0       -3.097992    2.099900    0.506393
     13          6           0       -3.747659    3.442051    0.168226
     14          1           0       -3.608627    1.130382   -1.349606
     15          1           0       -4.785598    0.885462   -0.062798
     16          1           0       -2.022089    2.146140    0.294472
     17          1           0       -3.197651    1.901319    1.581218
     18          1           0       -4.818166    3.420269    0.396569
     19          1           0       -3.635925    3.666482   -0.897489
     20          1           0       -3.296132    4.261167    0.736586
     21          6           0        2.637759   -0.367169    0.021075
     22          6           0        2.095944   -1.553258    0.819583
     23          6           0        0.591785   -1.754107    0.632607
     24          1           0        2.104305    0.544460    0.323238
     25          1           0        2.416945   -0.519894   -1.044435
     26          1           0        2.318936   -1.399003    1.883114
     27          1           0        2.630883   -2.462139    0.515622
     28          1           0        0.355095   -1.933158   -0.421205
     29          1           0        0.041375   -0.863983    0.954057
     30          1           0        0.225548   -2.607175    1.212267
     31          6           0        4.140057   -0.153544    0.197694
     32          6           0        4.681873    1.032544   -0.600814
     33          6           0        6.186031    1.233393   -0.413838
     34          1           0        4.360872   -0.000820    1.263203
     35          1           0        4.673512   -1.065174   -0.104469
     36          1           0        4.146934    1.941425   -0.296853
     37          1           0        4.458881    0.878290   -1.664345
     38          1           0        6.736441    0.343269   -0.735288
     39          1           0        6.422722    1.412445    0.639973
     40          1           0        6.552268    2.086461   -0.993498
 ---------------------------------------------------------------------

 SCF Done:  E(RHF) =  -470.732236392     A.U. after   11 cycles
 E2 =    -0.1583657308D+01 EUMP2 =    -0.47231589369953D+03

 The electronic state is 1-A.
 Alpha  occ. eigenvalues --  -11.21622 -11.21605 -11.21581 -11.21498 -11.21433
 Alpha  occ. eigenvalues --  -11.21372 -11.21315 -11.21208 -11.21087 -11.21066
 Alpha  occ. eigenvalues --  -11.21054 -11.20909  -1.08459  -1.08348  -1.03568
 Alpha  occ. eigenvalues --   -1.03443  -0.96013  -0.95898  -0.87041  -0.86917
 Alpha  occ. eigenvalues --   -0.79726  -0.79451  -0.78320  -0.78092  -0.65086
 Alpha  occ. eigenvalues --   -0.64991  -0.60989  -0.60839  -0.59395  -0.59260
 Alpha  occ. eigenvalues --   -0.57660  -0.57487  -0.55439  -0.55065  -0.52747
 Alpha  occ. eigenvalues --   -0.52622  -0.52492  -0.52252  -0.50089  -0.49684
 Alpha  occ. eigenvalues --   -0.48106  -0.47758  -0.46686  -0.46507  -0.45988
 Alpha  occ. eigenvalues --   -0.45735  -0.45653  -0.45297  -0.43784  -0.43700
 Alpha virt. eigenvalues --    0.21986   0.23021   0.23740   0.24435   0.25852
 Alpha virt. eigenvalues --    0.26413   0.27024   0.27415   0.27934   0.29623
 Alpha virt. eigenvalues --    0.30222   0.31470   0.31572   0.32166   0.32299

 Mulliken charges:
               1
     1  C   -0.304565
     2  C   -0.299266
     3  C   -0.480454
     4  H    0.158657
     5  H    0.148352
     6  H    0.150847
     7  H    0.151217
     8  H    0.154208
     9  H    0.162705
    10  H    0.158861
    11  C   -0.297562
    12  C   -0.299752
    13  C   -0.475536
    14  H    0.149070
    15  H    0.149251
    16  H    0.151050
    17  H    0.151624
    18  H    0.155268
    19  H    0.155208
    20  H    0.159944
    21  C   -0.298476
    22  C   -0.300461
    23  C   -0.479210
    24  H    0.149257
    25  H    0.149162
    26  H    0.151996
    27  H    0.151877
    28  H    0.154122
    29  H    0.160019
    30  H    0.162188
    31  C   -0.298214
    32  C   -0.299660
    33  C   -0.475722
    34  H    0.149683
    35  H    0.149770
    36  H    0.151925
    37  H    0.151843
    38  H    0.155223
    39  H    0.155251
    40  H    0.160300
 Sum of Mulliken charges =  -0.00000

 Dipole moment (field-independent basis, Debye):
    X=              0.0521    Y=             -0.0123    Z=              0.0169  Tot=              0.0562
 Quadrupole moment (field-independent basis, Debye-Ang):
   XX=            -85.8936   YY=            -85.6317   ZZ=            -83.6065
   XY=              0.0180   XZ=             -0.7729   YZ=              0.4897

 Normal termination of Gaussian 16 at Wed May  5 19:52:29 2021.
