 Gaussian 16, Revision A.03,
 Gaussian 16:  EM64L-G16RevA.03 25-Dec-2016

 -------------
 #p 6-31g* mp2
 -------------

 ------------------------------------------------------
 Input file generated by CHIRIPA (05-May-2021 14:53:12)
 ------------------------------------------------------
 Symbolic Z-matrix:
 Charge =  0 Multiplicity = 1

                         Standard orientation:
 ---------------------------------------------------------------------
 Center     Atomic      Atomic             Coordinates (Angstroms)
 Number     Number       Type             X           Y           Z
 ---------------------------------------------------------------------
      1          6           0        3.118310   -0.075652   -0.019449
      2          6           0        3.682611   -1.231809   -0.845797
      3          6           0        4.392036   -2.280245    0.011696
      4          1           0        3.935253    0.398894    0.541225
      5          1           0        2.417851   -0.475251    0.726924
      6          1           0        4.380747   -0.830007   -1.591301
      7          1           0        2.864260   -1.703537   -1.404717
      8          1           0        3.701967   -2.708555    0.745832
      9          1           0        5.227071   -1.830062    0.558188
     10          1           0        4.787704   -3.097628   -0.599198
     11          6           0        2.406152    0.980591   -0.862604
     12          6           0        1.841851    2.136748   -0.036256
     13          6           0        1.132426    3.185184   -0.893749
     14          1           0        3.106610    1.380190   -1.608977
     15          1           0        1.589209    0.506045   -1.423278
     16          1           0        2.660201    2.608476    0.522664
     17          1           0        1.143715    1.734946    0.709248
     18          1           0        0.297391    2.735001   -1.440241
     19          1           0        1.822494    3.613494   -1.627885
     20          1           0        0.736757    4.002567   -0.282855
     21          6           0       -0.516571    0.071682    2.212943
     22          6           0       -0.537269   -1.169492    1.568289
     23          6           0       -1.442449   -1.416204    0.531789
     24          6           0       -2.316679   -0.394596    0.163923
     25          6           0       -2.320457    0.852484    0.786873
     26          6           0       -1.406663    1.076936    1.820869
     27          1           0        0.189940    0.254688    3.017148
     28          1           0        0.152823   -1.952041    1.870674
     29          1           0       -1.480000   -2.367843    0.015659
     30          1           0       -3.020643    1.613029    0.463253
     31          1           0       -1.392845    2.041816    2.319728
     32          7           0       -3.279513   -0.643996   -0.932048
     33          8           0       -4.039354    0.272537   -1.237406
     34          8           0       -3.256109   -1.751289   -1.464958
 ---------------------------------------------------------------------

 SCF Done:  E(RHF) =  -669.534439025     A.U. after   15 cycles
 E2 =    -0.2094893884D+01 EUMP2 =    -0.67162933290937D+03

 The electronic state is 1-A.
 Alpha  occ. eigenvalues --  -20.60883 -20.60878 -15.85939 -11.31354 -11.27937
 Alpha  occ. eigenvalues --  -11.27919 -11.27656 -11.26948 -11.26918 -11.22001
 Alpha  occ. eigenvalues --  -11.21805 -11.21773 -11.21627 -11.21571 -11.21322
 Alpha  occ. eigenvalues --   -1.59958  -1.39510  -1.19543  -1.08961  -1.08744
 Alpha  occ. eigenvalues --   -1.04946  -1.03875  -0.96337  -0.95751  -0.87353
 Alpha  occ. eigenvalues --   -0.86339  -0.82572  -0.79949  -0.78610  -0.77608
 Alpha  occ. eigenvalues --   -0.72155  -0.71284  -0.70633  -0.65465  -0.65189
 Alpha  occ. eigenvalues --   -0.64906  -0.62287  -0.61301  -0.59717  -0.57956
 Alpha  occ. eigenvalues --   -0.55635  -0.55433  -0.53334  -0.53025  -0.53001
 Alpha  occ. eigenvalues --   -0.52762  -0.50276  -0.48918  -0.48907  -0.48271
 Alpha  occ. eigenvalues --   -0.46997  -0.46136  -0.46072  -0.44905  -0.44128
 Alpha  occ. eigenvalues --   -0.37364  -0.36508
 Alpha virt. eigenvalues --    0.04892   0.10919   0.16328   0.20342   0.22930
 Alpha virt. eigenvalues --    0.23516   0.26052   0.26772   0.27385   0.27514
 Alpha virt. eigenvalues --    0.29236   0.30246   0.31272   0.31357   0.32053

 Mulliken charges:
               1
     1  C   -0.299825
     2  C   -0.300482
     3  C   -0.474547
     4  H    0.148461
     5  H    0.143178
     6  H    0.154602
     7  H    0.153229
     8  H    0.148277
     9  H    0.155916
    10  H    0.162888
    11  C   -0.296890
    12  C   -0.308190
    13  C   -0.475633
    14  H    0.150576
    15  H    0.152634
    16  H    0.148044
    17  H    0.157640
    18  H    0.158287
    19  H    0.156920
    20  H    0.155351
    21  C   -0.172726
    22  C   -0.216068
    23  C   -0.172169
    24  C    0.158122
    25  C   -0.170162
    26  C   -0.217435
    27  H    0.228402
    28  H    0.224664
    29  H    0.276453
    30  H    0.276726
    31  H    0.225478
    32  N    0.488024
    33  O   -0.459759
    34  O   -0.459988
 Sum of Mulliken charges =  -0.00000

 Dipole moment (field-independent basis, Debye):
    X=              3.2722    Y=              0.8437    Z=              3.8345  Tot=              5.1110
 Quadrupole moment (field-independent basis, Debye-Ang):
   XX=           -110.1046   YY=            -91.9624   ZZ=            -94.1629
   XY=             -4.5659   XZ=             -9.2930   YZ=             -0.4231

 Normal termination of Gaussian 16 at Thu May  6 10:25:14 2021.
