 Gaussian 16, Revision A.03,
 Gaussian 16:  EM64L-G16RevA.03 25-Dec-2016

 -------------
 #p 6-31g* mp2
 -------------

 ------------------------------------------------------
 Input file generated by CHIRIPA (05-May-2021 14:57:25)
 ------------------------------------------------------
 Symbolic Z-matrix:
 Charge =  0 Multiplicity = 1

                         Standard orientation:
 ---------------------------------------------------------------------
 Center     Atomic      Atomic             Coordinates (Angstroms)
 Number     Number       Type             X           Y           Z
 ---------------------------------------------------------------------
      1          6           0       -3.017385    2.757861   -0.247857
      2          6           0       -4.102511    2.036219    0.260332
      3          6           0       -4.041511    0.643600    0.367283
      4          6           0       -2.874661    0.001991   -0.045135
      5          6           0       -1.776825    0.693000   -0.555579
      6          6           0       -1.860046    2.085135   -0.653475
      7          1           0       -3.073402    3.839493   -0.327422
      8          1           0       -5.002588    2.556018    0.576107
      9          1           0       -4.866846    0.060239    0.757066
     10          1           0       -0.892998    0.146922   -0.862281
     11          1           0       -1.015779    2.642983   -1.048523
     12          7           0       -2.798321   -1.472056    0.063296
     13          8           0       -1.758999   -2.013746   -0.306864
     14          8           0       -3.779254   -2.057814    0.516392
     15          6           0        4.409106    1.748315    0.340176
     16          6           0        4.196117    1.201418   -0.929494
     17          6           0        3.354948    0.097051   -1.094889
     18          6           0        2.740114   -0.437631    0.036210
     19          6           0        2.932332    0.084715    1.314293
     20          6           0        3.777647    1.189203    1.456049
     21          1           0        5.064156    2.606261    0.459477
     22          1           0        4.685193    1.633563   -1.797884
     23          1           0        3.172421   -0.346228   -2.066283
     24          1           0        2.430855   -0.367873    2.161113
     25          1           0        3.941208    1.611846    2.443301
     26          7           0        1.847412   -1.606840   -0.126375
     27          8           0        1.317512   -2.059486    0.886026
     28          8           0        1.694515   -2.048480   -1.263129
 ---------------------------------------------------------------------

 SCF Done:  E(RHF) =  -868.334848238     A.U. after   16 cycles
 E2 =    -0.2601980900D+01 EUMP2 =    -0.87093682913775D+03

 The electronic state is 1-A.
 Alpha  occ. eigenvalues --  -20.60413 -20.60372 -20.59832 -20.59674 -15.85454
 Alpha  occ. eigenvalues --  -15.84798 -11.31232 -11.30612 -11.27842 -11.27810
 Alpha  occ. eigenvalues --  -11.27621 -11.27236 -11.27233 -11.27076 -11.26920
 Alpha  occ. eigenvalues --  -11.26896 -11.26367 -11.26345  -1.59454  -1.58829
 Alpha  occ. eigenvalues --   -1.39002  -1.38363  -1.19433  -1.18830  -1.08747
 Alpha  occ. eigenvalues --   -1.08148  -1.04877  -1.04300  -0.95510  -0.94904
 Alpha  occ. eigenvalues --   -0.86254  -0.85677  -0.82332  -0.81729  -0.77319
 Alpha  occ. eigenvalues --   -0.76708  -0.71649  -0.71152  -0.70694  -0.70506
 Alpha  occ. eigenvalues --   -0.70153  -0.69939  -0.65058  -0.64861  -0.64466
 Alpha  occ. eigenvalues --   -0.64313  -0.62207  -0.61641  -0.55345  -0.54800
 Alpha  occ. eigenvalues --   -0.53209  -0.52957  -0.52605  -0.52402  -0.48437
 Alpha  occ. eigenvalues --   -0.48379  -0.47819  -0.47726  -0.44383  -0.43567
 Alpha  occ. eigenvalues --   -0.37444  -0.36837  -0.36508  -0.35923
 Alpha virt. eigenvalues --    0.05184   0.05847   0.11133   0.11725   0.16610
 Alpha virt. eigenvalues --    0.17258   0.21298   0.21722   0.27204   0.27433
 Alpha virt. eigenvalues --    0.28191   0.28536   0.30679   0.31293   0.32445

 Mulliken charges:
               1
     1  C   -0.172278
     2  C   -0.218693
     3  C   -0.171436
     4  C    0.159705
     5  C   -0.171695
     6  C   -0.219214
     7  H    0.222181
     8  H    0.221257
     9  H    0.275223
    10  H    0.276600
    11  H    0.219446
    12  N    0.486201
    13  O   -0.442413
    14  O   -0.466737
    15  C   -0.172583
    16  C   -0.219294
    17  C   -0.175343
    18  C    0.154017
    19  C   -0.172101
    20  C   -0.218866
    21  H    0.224918
    22  H    0.222849
    23  H    0.276162
    24  H    0.277702
    25  H    0.223517
    26  N    0.486266
    27  O   -0.448128
    28  O   -0.457263
 Sum of Mulliken charges =  -0.00000

 Dipole moment (field-independent basis, Debye):
    X=              2.9667    Y=              8.9212    Z=              0.2404  Tot=              9.4046
 Quadrupole moment (field-independent basis, Debye-Ang):
   XX=            -83.4636   YY=           -109.7191   ZZ=            -99.9423
   XY=             -4.7597   XZ=             -0.0258   YZ=             -0.3458

 Normal termination of Gaussian 16 at Fri May  7 09:37:35 2021.
