 Gaussian 16, Revision A.03,
 Gaussian 16:  EM64L-G16RevA.03 25-Dec-2016

 -------------
 #p 6-31g* mp2
 -------------

 ------------------------------------------------------
 Input file generated by CHIRIPA (05-May-2021 14:55:24)
 ------------------------------------------------------
 Symbolic Z-matrix:
 Charge =  0 Multiplicity = 1

                         Standard orientation:
 ---------------------------------------------------------------------
 Center     Atomic      Atomic             Coordinates (Angstroms)
 Number     Number       Type             X           Y           Z
 ---------------------------------------------------------------------
      1          6           0       -1.025605   -1.886382    1.908987
      2          6           0       -1.559045   -0.617244    2.156475
      3          6           0       -2.132389    0.126290    1.120626
      4          6           0       -2.155544   -0.432417   -0.156324
      5          6           0       -1.632311   -1.694198   -0.434580
      6          6           0       -1.063874   -2.419868    0.616529
      7          1           0       -0.582124   -2.457039    2.719587
      8          1           0       -1.530710   -0.200417    3.159220
      9          1           0       -2.552635    1.111191    1.284270
     10          1           0       -1.675148   -2.083221   -1.444651
     11          1           0       -0.650360   -3.405249    0.421397
     12          7           0       -2.759921    0.345273   -1.261008
     13          8           0       -2.768002   -0.169313   -2.377150
     14          8           0       -3.214106    1.454687   -0.989800
     15          6           0        2.353882    1.423404   -0.122855
     16          6           0        1.303645    1.799555    0.922850
     17          6           0        0.757520    3.214565    0.729756
     18          1           0        3.180290    2.145988   -0.079666
     19          1           0        1.912085    1.513347   -1.124913
     20          1           0        1.746879    1.707594    1.922701
     21          1           0        0.479731    1.075879    0.877297
     22          1           0        0.290194    3.316073   -0.255081
     23          1           0        1.564542    3.951378    0.796263
     24          1           0        0.008275    3.462666    1.488002
     25          6           0        2.909313    0.011706    0.056957
     26          6           0        3.959551   -0.364445   -0.988747
     27          6           0        4.505677   -1.779456   -0.795653
     28          1           0        3.351111   -0.078238    1.059016
     29          1           0        2.082905   -0.710879    0.013768
     30          1           0        4.783465    0.359230   -0.943194
     31          1           0        3.516317   -0.272484   -1.988599
     32          1           0        3.698654   -2.516268   -0.862161
     33          1           0        4.973002   -1.880964    0.189183
     34          1           0        5.254920   -2.027556   -1.553900
 ---------------------------------------------------------------------

 SCF Done:  E(RHF) =  -669.534865829     A.U. after   15 cycles
 E2 =    -0.2094051746D+01 EUMP2 =    -0.67162891757519D+03

 The electronic state is 1-A.
 Alpha  occ. eigenvalues --  -20.60867 -20.60862 -15.85921 -11.31308 -11.27905
 Alpha  occ. eigenvalues --  -11.27857 -11.27626 -11.26925 -11.26865 -11.21726
 Alpha  occ. eigenvalues --  -11.21495 -11.21482 -11.21354 -11.21316 -11.20993
 Alpha  occ. eigenvalues --   -1.59943  -1.39494  -1.19508  -1.08879  -1.08484
 Alpha  occ. eigenvalues --   -1.04914  -1.03591  -0.96051  -0.95709  -0.87061
 Alpha  occ. eigenvalues --   -0.86290  -0.82539  -0.79663  -0.78307  -0.77582
 Alpha  occ. eigenvalues --   -0.72136  -0.71273  -0.70587  -0.65150  -0.65127
 Alpha  occ. eigenvalues --   -0.64887  -0.62244  -0.61017  -0.59438  -0.57676
 Alpha  occ. eigenvalues --   -0.55388  -0.55338  -0.53341  -0.52981  -0.52722
 Alpha  occ. eigenvalues --   -0.52470  -0.49978  -0.48899  -0.48891  -0.47975
 Alpha  occ. eigenvalues --   -0.46691  -0.45820  -0.45700  -0.44890  -0.43842
 Alpha  occ. eigenvalues --   -0.37471  -0.36404
 Alpha virt. eigenvalues --    0.04939   0.11098   0.16412   0.21144   0.22798
 Alpha virt. eigenvalues --    0.24044   0.26471   0.26966   0.27373   0.27761
 Alpha virt. eigenvalues --    0.28600   0.30762   0.31443   0.31632   0.31880

 Mulliken charges:
               1
     1  C   -0.169652
     2  C   -0.214785
     3  C   -0.177289
     4  C    0.162162
     5  C   -0.172041
     6  C   -0.218293
     7  H    0.226813
     8  H    0.224795
     9  H    0.276913
    10  H    0.276187
    11  H    0.224458
    12  N    0.487928
    13  O   -0.460317
    14  O   -0.459884
    15  C   -0.297789
    16  C   -0.309702
    17  C   -0.476071
    18  H    0.149365
    19  H    0.152535
    20  H    0.145683
    21  H    0.162195
    22  H    0.163043
    23  H    0.155125
    24  H    0.154498
    25  C   -0.299580
    26  C   -0.299907
    27  C   -0.474898
    28  H    0.146302
    29  H    0.148647
    30  H    0.152829
    31  H    0.154083
    32  H    0.151195
    33  H    0.153961
    34  H    0.161489
 Sum of Mulliken charges =  -0.00000

 Dipole moment (field-independent basis, Debye):
    X=              2.0021    Y=             -2.7659    Z=              3.8582  Tot=              5.1522
 Quadrupole moment (field-independent basis, Debye-Ang):
   XX=           -104.4226   YY=            -90.7875   ZZ=            -93.9343
   XY=              4.9399   XZ=             -9.3223   YZ=              1.3798

 Normal termination of Gaussian 16 at Thu May  6 11:04:35 2021.
