 Gaussian 16, Revision A.03,
 Gaussian 16:  EM64L-G16RevA.03 25-Dec-2016

 -------------
 #p 6-31g* mp2
 -------------

 ------------------------------------------------------
 Input file generated by CHIRIPA (05-May-2021 14:55:20)
 ------------------------------------------------------
 Symbolic Z-matrix:
 Charge =  0 Multiplicity = 1

                         Standard orientation:
 ---------------------------------------------------------------------
 Center     Atomic      Atomic             Coordinates (Angstroms)
 Number     Number       Type             X           Y           Z
 ---------------------------------------------------------------------
      1          6           0        4.586180    2.096022    0.612373
      2          6           0        5.238187    0.870635    0.439645
      3          6           0        4.538217   -0.246755   -0.025145
      4          6           0        3.181001   -0.102454   -0.308749
      5          6           0        2.503268    1.104934   -0.146939
      6          6           0        3.223204    2.209061    0.319047
      7          1           0        5.137689    2.958886    0.973897
      8          1           0        6.296622    0.779917    0.666646
      9          1           0        5.018164   -1.207317   -0.167938
     10          1           0        1.447435    1.164494   -0.381649
     11          1           0        2.714247    3.159465    0.452238
     12          7           0        2.429405   -1.278364   -0.801434
     13          8           0        1.234313   -1.125170   -1.044177
     14          8           0        3.049627   -2.330970   -0.935529
     15          6           0       -4.983983   -0.015551    0.220391
     16          6           0       -5.355250    1.164085   -0.678832
     17          6           0       -6.866636    1.354078   -0.810777
     18          1           0       -5.436404   -0.932065   -0.182428
     19          1           0       -5.423366    0.138577    1.215670
     20          1           0       -4.914140    1.008449   -1.671714
     21          1           0       -4.901733    2.077866   -0.273932
     22          1           0       -7.319283    1.534379    0.169633
     23          1           0       -7.331759    0.458887   -1.236091
     24          1           0       -7.109610    2.202669   -1.457861
     25          6           0       -3.476492   -0.218306    0.362133
     26          6           0       -3.105224   -1.397943    1.261356
     27          6           0       -1.593838   -1.587936    1.393301
     28          1           0       -3.037107   -0.372434   -0.633146
     29          1           0       -3.024070    0.698208    0.764952
     30          1           0       -3.558741   -2.311723    0.856456
     31          1           0       -3.546334   -1.242307    2.254238
     32          1           0       -1.128714   -0.692744    1.818615
     33          1           0       -1.141191   -1.768237    0.412891
     34          1           0       -1.350864   -2.436526    2.040385
 ---------------------------------------------------------------------

 SCF Done:  E(RHF) =  -669.536119003     A.U. after   15 cycles
 E2 =    -0.2090872460D+01 EUMP2 =    -0.67162699146382D+03

 The electronic state is 1-A.
 Alpha  occ. eigenvalues --  -20.60880 -20.60871 -15.85911 -11.31238 -11.27804
 Alpha  occ. eigenvalues --  -11.27797 -11.27546 -11.26815 -11.26805 -11.21281
 Alpha  occ. eigenvalues --  -11.20949 -11.20876 -11.20810 -11.20787 -11.19988
 Alpha  occ. eigenvalues --   -1.59937  -1.39494  -1.19408  -1.08812  -1.07908
 Alpha  occ. eigenvalues --   -1.04806  -1.02956  -0.95657  -0.95385  -0.86402
 Alpha  occ. eigenvalues --   -0.86206  -0.82489  -0.79040  -0.77717  -0.77529
 Alpha  occ. eigenvalues --   -0.72142  -0.71248  -0.70519  -0.65066  -0.64811
 Alpha  occ. eigenvalues --   -0.64540  -0.62153  -0.60349  -0.58798  -0.56999
 Alpha  occ. eigenvalues --   -0.55313  -0.54662  -0.53137  -0.52899  -0.52086
 Alpha  occ. eigenvalues --   -0.51804  -0.49341  -0.48895  -0.48873  -0.47349
 Alpha  occ. eigenvalues --   -0.46087  -0.45291  -0.45190  -0.44770  -0.43227
 Alpha  occ. eigenvalues --   -0.37388  -0.36408
 Alpha virt. eigenvalues --    0.04969   0.11243   0.16442   0.21323   0.23352
 Alpha virt. eigenvalues --    0.24826   0.27071   0.27293   0.27767   0.28203
 Alpha virt. eigenvalues --    0.28934   0.30990   0.31930   0.32177   0.32580

 Mulliken charges:
               1
     1  C   -0.170640
     2  C   -0.218608
     3  C   -0.170762
     4  C    0.158361
     5  C   -0.170780
     6  C   -0.218642
     7  H    0.225772
     8  H    0.223602
     9  H    0.275707
    10  H    0.276380
    11  H    0.223659
    12  N    0.490070
    13  O   -0.461441
    14  O   -0.459416
    15  C   -0.297802
    16  C   -0.299186
    17  C   -0.475364
    18  H    0.150191
    19  H    0.147707
    20  H    0.152710
    21  H    0.149176
    22  H    0.154261
    23  H    0.155587
    24  H    0.158765
    25  C   -0.298006
    26  C   -0.299285
    27  C   -0.483803
    28  H    0.154847
    29  H    0.143824
    30  H    0.151941
    31  H    0.147094
    32  H    0.144817
    33  H    0.182536
    34  H    0.156728
 Sum of Mulliken charges =  -0.00000

 Dipole moment (field-independent basis, Debye):
    X=              2.8525    Y=              4.0628    Z=              1.6090  Tot=              5.2184
 Quadrupole moment (field-independent basis, Debye-Ang):
   XX=            -76.3461   YY=            -94.1357   ZZ=            -96.4071
   XY=             10.9531   XZ=              5.1827   YZ=             -0.8284

 Normal termination of Gaussian 16 at Thu May  6 20:39:42 2021.
