 Gaussian 16, Revision A.03,
 Gaussian 16:  EM64L-G16RevA.03 25-Dec-2016

 -------------
 #p 6-31g* mp2
 -------------

 ------------------------------------------------------
 Input file generated by CHIRIPA (05-May-2021 14:51:08)
 ------------------------------------------------------
 Symbolic Z-matrix:
 Charge =  0 Multiplicity = 1

                         Standard orientation:
 ---------------------------------------------------------------------
 Center     Atomic      Atomic             Coordinates (Angstroms)
 Number     Number       Type             X           Y           Z
 ---------------------------------------------------------------------
      1          6           0       -2.127792    1.419185   -0.296164
      2          6           0       -1.834473    2.404086    0.836055
      3          6           0       -0.927325    3.554536    0.398628
      4          1           0       -1.179732    1.015828   -0.677519
      5          1           0       -2.595820    1.959464   -1.130696
      6          1           0       -1.368399    1.861857    1.668748
      7          1           0       -2.783351    2.805001    1.214887
      8          1           0       -1.389218    4.120757   -0.416633
      9          1           0        0.033773    3.172254    0.039808
     10          1           0       -0.730600    4.246571    1.223398
     11          6           0       -3.033426    0.263487    0.125637
     12          6           0       -3.326745   -0.721413   -1.006582
     13          6           0       -4.233893   -1.871863   -0.569155
     14          1           0       -2.565398   -0.276792    0.960169
     15          1           0       -3.981485    0.666844    0.506992
     16          1           0       -2.377867   -1.122328   -1.385414
     17          1           0       -3.792819   -0.179184   -1.839276
     18          1           0       -5.194991   -1.489581   -0.210335
     19          1           0       -3.771999   -2.438084    0.246106
     20          1           0       -4.430618   -2.563898   -1.393925
     21          6           0        3.279675   -0.571422    0.233196
     22          6           0        3.802722    0.379961   -0.843501
     23          6           0        5.202368    0.911559   -0.533353
     24          1           0        3.269588   -0.050431    1.200362
     25          1           0        3.977609   -1.413493    0.339032
     26          1           0        3.103299    1.219277   -0.948246
     27          1           0        3.811386   -0.143295   -1.808252
     28          1           0        5.917711    0.087057   -0.449204
     29          1           0        5.205600    1.457371    0.415688
     30          1           0        5.556788    1.589669   -1.315922
     31          6           0        1.881542   -1.111250   -0.062669
     32          6           0        1.358495   -2.062633    1.014028
     33          6           0       -0.041150   -2.594232    0.703880
     34          1           0        1.183609   -0.269180   -0.168505
     35          1           0        1.891630   -1.632242   -1.029835
     36          1           0        1.349832   -1.539377    1.978779
     37          1           0        2.057919   -2.901950    1.118773
     38          1           0       -0.044383   -3.140044   -0.245161
     39          1           0       -0.756493   -1.769729    0.619731
     40          1           0       -0.395570   -3.272342    1.486449
 ---------------------------------------------------------------------

 SCF Done:  E(RHF) =  -470.732967515     A.U. after   11 cycles
 E2 =    -0.1584412313D+01 EUMP2 =    -0.47231737982797D+03

 The electronic state is 1-A.
 Alpha  occ. eigenvalues --  -11.21673 -11.21649 -11.21648 -11.21549 -11.21477
 Alpha  occ. eigenvalues --  -11.21427 -11.21412 -11.21359 -11.21125 -11.21116
 Alpha  occ. eigenvalues --  -11.21099 -11.21010  -1.08514  -1.08435  -1.03601
 Alpha  occ. eigenvalues --   -1.03521  -0.96040  -0.95986  -0.87081  -0.86980
 Alpha  occ. eigenvalues --   -0.79655  -0.79595  -0.78333  -0.78243  -0.65368
 Alpha  occ. eigenvalues --   -0.64906  -0.61091  -0.60849  -0.59406  -0.59349
 Alpha  occ. eigenvalues --   -0.57652  -0.57577  -0.55400  -0.55207  -0.52727
 Alpha  occ. eigenvalues --   -0.52674  -0.52468  -0.52407  -0.50162  -0.49747
 Alpha  occ. eigenvalues --   -0.48029  -0.47846  -0.46754  -0.46604  -0.46096
 Alpha  occ. eigenvalues --   -0.45805  -0.45694  -0.45439  -0.43843  -0.43792
 Alpha virt. eigenvalues --    0.19256   0.22299   0.23883   0.24723   0.25482
 Alpha virt. eigenvalues --    0.26590   0.27083   0.27554   0.28231   0.29945
 Alpha virt. eigenvalues --    0.31039   0.31502   0.31734   0.31880   0.32053

 Mulliken charges:
               1
     1  C   -0.303742
     2  C   -0.299422
     3  C   -0.475779
     4  H    0.153596
     5  H    0.150273
     6  H    0.151338
     7  H    0.152427
     8  H    0.155640
     9  H    0.154329
    10  H    0.160464
    11  C   -0.302561
    12  C   -0.301727
    13  C   -0.476447
    14  H    0.151165
    15  H    0.150823
    16  H    0.154489
    17  H    0.152013
    18  H    0.154685
    19  H    0.156957
    20  H    0.160088
    21  C   -0.298144
    22  C   -0.299743
    23  C   -0.475767
    24  H    0.149831
    25  H    0.149938
    26  H    0.151567
    27  H    0.152167
    28  H    0.155276
    29  H    0.155366
    30  H    0.160527
    31  C   -0.303211
    32  C   -0.299324
    33  C   -0.485172
    34  H    0.152795
    35  H    0.149949
    36  H    0.151747
    37  H    0.152437
    38  H    0.155645
    39  H    0.165208
    40  H    0.160298
 Sum of Mulliken charges =  -0.00000

 Dipole moment (field-independent basis, Debye):
    X=              0.0094    Y=             -0.0102    Z=             -0.0047  Tot=              0.0146
 Quadrupole moment (field-independent basis, Debye-Ang):
   XX=            -85.3086   YY=            -84.8307   ZZ=            -84.5014
   XY=             -1.8525   XZ=              0.0191   YZ=              0.3668

 Normal termination of Gaussian 16 at Wed May  5 18:06:24 2021.
