 Gaussian 16, Revision A.03,
 Gaussian 16:  EM64L-G16RevA.03 25-Dec-2016

 -------------
 #p 6-31g* mp2
 -------------

 ------------------------------------------------------
 Input file generated by CHIRIPA (05-May-2021 14:55:22)
 ------------------------------------------------------
 Symbolic Z-matrix:
 Charge =  0 Multiplicity = 1

                         Standard orientation:
 ---------------------------------------------------------------------
 Center     Atomic      Atomic             Coordinates (Angstroms)
 Number     Number       Type             X           Y           Z
 ---------------------------------------------------------------------
      1          6           0        1.890958    1.985252    0.598949
      2          6           0        3.063071    2.373911   -0.058027
      3          6           0        4.042996    1.430098   -0.379759
      4          6           0        3.817050    0.100229   -0.028068
      5          6           0        2.659729   -0.318125    0.626821
      6          6           0        1.693377    0.642841    0.938677
      7          1           0        1.135000    2.725091    0.845042
      8          1           0        3.219206    3.415741   -0.323086
      9          1           0        4.959658    1.703522   -0.888078
     10          1           0        2.532438   -1.364088    0.878170
     11          1           0        0.784068    0.338125    1.448923
     12          7           0        4.847268   -0.908023   -0.363443
     13          8           0        4.624273   -2.073379   -0.042732
     14          8           0        5.858242   -0.513843   -0.940671
     15          6           0       -3.925412   -0.196569    0.067210
     16          6           0       -3.080944   -1.459024    0.243459
     17          6           0       -1.596577   -1.153745    0.446573
     18          1           0       -3.546013    0.373720   -0.791726
     19          1           0       -3.799713    0.446358    0.949389
     20          1           0       -3.209281   -2.100014   -0.638175
     21          1           0       -3.462518   -2.026471    1.101959
     22          1           0       -1.449052   -0.534022    1.336955
     23          1           0       -1.194376   -0.607983   -0.413066
     24          1           0       -1.011484   -2.070357    0.570459
     25          6           0       -5.411565   -0.485419   -0.136858
     26          6           0       -6.256034    0.777036   -0.313107
     27          6           0       -7.740401    0.471757   -0.516222
     28          1           0       -5.537265   -1.128346   -1.019038
     29          1           0       -5.790965   -1.055708    0.722077
     30          1           0       -5.874460    1.344483   -1.171608
     31          1           0       -6.127698    1.418027    0.568526
     32          1           0       -8.142602   -0.074005    0.343417
     33          1           0       -7.887927   -0.147967   -1.406603
     34          1           0       -8.325494    1.388369   -0.640108
 ---------------------------------------------------------------------

 SCF Done:  E(RHF) =  -669.535352826     A.U. after   15 cycles
 E2 =    -0.2091235257D+01 EUMP2 =    -0.67162658808335D+03

 The electronic state is 1-A.
 Alpha  occ. eigenvalues --  -20.60699 -20.60694 -15.85751 -11.31097 -11.27664
 Alpha  occ. eigenvalues --  -11.27638 -11.27389 -11.26685 -11.26591 -11.22297
 Alpha  occ. eigenvalues --  -11.22056 -11.22047 -11.22020 -11.21864 -11.21432
 Alpha  occ. eigenvalues --   -1.59775  -1.39329  -1.19262  -1.09014  -1.08662
 Alpha  occ. eigenvalues --   -1.04660  -1.04137  -0.96617  -0.95501  -0.87655
 Alpha  occ. eigenvalues --   -0.86052  -0.82333  -0.80220  -0.78810  -0.77374
 Alpha  occ. eigenvalues --   -0.71970  -0.71098  -0.70374  -0.65641  -0.64910
 Alpha  occ. eigenvalues --   -0.64674  -0.62034  -0.61520  -0.59980  -0.58204
 Alpha  occ. eigenvalues --   -0.55915  -0.55168  -0.53393  -0.53176  -0.52966
 Alpha  occ. eigenvalues --   -0.52544  -0.50548  -0.48744  -0.48726  -0.48486
 Alpha  occ. eigenvalues --   -0.47225  -0.46353  -0.46261  -0.44739  -0.44383
 Alpha  occ. eigenvalues --   -0.37245  -0.36246
 Alpha virt. eigenvalues --    0.05140   0.11362   0.16608   0.20694   0.22382
 Alpha virt. eigenvalues --    0.23797   0.25474   0.26275   0.26930   0.28086
 Alpha virt. eigenvalues --    0.28801   0.29710   0.31098   0.31349   0.32023

 Mulliken charges:
               1
     1  C   -0.173465
     2  C   -0.218464
     3  C   -0.171494
     4  C    0.158670
     5  C   -0.173900
     6  C   -0.220270
     7  H    0.225312
     8  H    0.222878
     9  H    0.275149
    10  H    0.275402
    11  H    0.232873
    12  N    0.488100
    13  O   -0.460643
    14  O   -0.460812
    15  C   -0.298822
    16  C   -0.299923
    17  C   -0.481695
    18  H    0.149894
    19  H    0.147209
    20  H    0.156348
    21  H    0.154262
    22  H    0.145580
    23  H    0.160388
    24  H    0.163380
    25  C   -0.298773
    26  C   -0.299949
    27  C   -0.476016
    28  H    0.151411
    29  H    0.150801
    30  H    0.152053
    31  H    0.151296
    32  H    0.155871
    33  H    0.156251
    34  H    0.161096
 Sum of Mulliken charges =  -0.00000

 Dipole moment (field-independent basis, Debye):
    X=             -3.8370    Y=              3.4958    Z=              1.1287  Tot=              5.3120
 Quadrupole moment (field-independent basis, Debye-Ang):
   XX=           -122.1247   YY=            -91.7296   ZZ=            -93.7556
   XY=             15.6894   XZ=              3.1061   YZ=             -1.6215

 Normal termination of Gaussian 16 at Wed May  5 22:18:09 2021.
