 Gaussian 16, Revision A.03,
 Gaussian 16:  EM64L-G16RevA.03 25-Dec-2016

 -------------
 #p 6-31g* mp2
 -------------

 ------------------------------------------------------
 Input file generated by CHIRIPA (05-May-2021 14:55:21)
 ------------------------------------------------------
 Symbolic Z-matrix:
 Charge =  0 Multiplicity = 1

                         Standard orientation:
 ---------------------------------------------------------------------
 Center     Atomic      Atomic             Coordinates (Angstroms)
 Number     Number       Type             X           Y           Z
 ---------------------------------------------------------------------
      1          6           0        0.762998    0.283074    0.486806
      2          6           0        1.696309    1.205178    0.971756
      3          6           0        3.063579    1.014418    0.751002
      4          6           0        3.464273   -0.114546    0.038139
      5          6           0        2.558749   -1.051239   -0.457768
      6          6           0        1.196433   -0.840211   -0.225154
      7          1           0       -0.297206    0.439134    0.662900
      8          1           0        1.362579    2.078443    1.524998
      9          1           0        3.807608    1.712417    1.115193
     10          1           0        2.921783   -1.912195   -1.005837
     11          1           0        0.473864   -1.557991   -0.602951
     12          7           0        4.909118   -0.327224   -0.201842
     13          8           0        5.236502   -1.329913   -0.832772
     14          8           0        5.686845    0.512795    0.245534
     15          6           0       -3.936085   -0.637189   -0.100023
     16          6           0       -5.079703   -1.563582    0.314609
     17          6           0       -4.677376   -3.038671    0.308568
     18          1           0       -3.589005   -0.919954   -1.103281
     19          1           0       -3.085818   -0.789083    0.579217
     20          1           0       -5.928060   -1.408991   -0.364367
     21          1           0       -5.424230   -1.278458    1.316917
     22          1           0       -3.846628   -3.214230    0.999682
     23          1           0       -4.353322   -3.345504   -0.691154
     24          1           0       -5.509794   -3.683072    0.608050
     25          6           0       -4.322846    0.840696   -0.098864
     26          6           0       -3.179228    1.767088   -0.513497
     27          6           0       -3.581555    3.242178   -0.507456
     28          1           0       -5.173113    0.992590   -0.778104
     29          1           0       -4.669926    1.123459    0.904393
     30          1           0       -2.834701    1.481963   -1.515805
     31          1           0       -2.330871    1.612496    0.165479
     32          1           0       -3.905609    3.549010    0.492266
     33          1           0       -4.412303    3.417735   -1.198570
     34          1           0       -2.749137    3.886578   -0.806937
 ---------------------------------------------------------------------

 SCF Done:  E(RHF) =  -669.535534665     A.U. after   15 cycles
 E2 =    -0.2091266314D+01 EUMP2 =    -0.67162680097867D+03

 The electronic state is 1-A.
 Alpha  occ. eigenvalues --  -20.60715 -20.60710 -15.85769 -11.31121 -11.27694
 Alpha  occ. eigenvalues --  -11.27688 -11.27393 -11.26701 -11.26683 -11.22761
 Alpha  occ. eigenvalues --  -11.22486 -11.22418 -11.22357 -11.21974 -11.21824
 Alpha  occ. eigenvalues --   -1.59792  -1.39345  -1.19292  -1.09434  -1.08685
 Alpha  occ. eigenvalues --   -1.04695  -1.04464  -0.96889  -0.95525  -0.87905
 Alpha  occ. eigenvalues --   -0.86090  -0.82363  -0.80546  -0.79273  -0.77409
 Alpha  occ. eigenvalues --   -0.71987  -0.71115  -0.70413  -0.66061  -0.64942
 Alpha  occ. eigenvalues --   -0.64696  -0.62045  -0.61862  -0.60267  -0.58511
 Alpha  occ. eigenvalues --   -0.56169  -0.55223  -0.53559  -0.53310  -0.53023
 Alpha  occ. eigenvalues --   -0.52785  -0.50831  -0.48853  -0.48743  -0.48736
 Alpha  occ. eigenvalues --   -0.47580  -0.46781  -0.46713  -0.44754  -0.44731
 Alpha  occ. eigenvalues --   -0.37262  -0.36304
 Alpha virt. eigenvalues --    0.05119   0.11351   0.16587   0.19027   0.22562
 Alpha virt. eigenvalues --    0.23394   0.24656   0.25994   0.26960   0.27371
 Alpha virt. eigenvalues --    0.29756   0.30313   0.30866   0.31145   0.32111

 Mulliken charges:
               1
     1  C   -0.176482
     2  C   -0.221191
     3  C   -0.170803
     4  C    0.158247
     5  C   -0.170840
     6  C   -0.221305
     7  H    0.236188
     8  H    0.222985
     9  H    0.275318
    10  H    0.275321
    11  H    0.224297
    12  N    0.488015
    13  O   -0.460613
    14  O   -0.460660
    15  C   -0.299810
    16  C   -0.300072
    17  C   -0.476571
    18  H    0.150106
    19  H    0.141809
    20  H    0.155120
    21  H    0.154004
    22  H    0.154245
    23  H    0.155425
    24  H    0.163887
    25  C   -0.298529
    26  C   -0.303619
    27  C   -0.476036
    28  H    0.154178
    29  H    0.151734
    30  H    0.155272
    31  H    0.142400
    32  H    0.156509
    33  H    0.159391
    34  H    0.162079
 Sum of Mulliken charges =  -0.00000

 Dipole moment (field-independent basis, Debye):
    X=             -5.3800    Y=              0.7755    Z=              0.7874  Tot=              5.4924
 Quadrupole moment (field-independent basis, Debye-Ang):
   XX=           -129.2357   YY=            -92.4212   ZZ=            -93.1380
   XY=              4.3018   XZ=              3.7840   YZ=              2.4106

 Normal termination of Gaussian 16 at Wed May  5 18:59:16 2021.
