 Gaussian 16, Revision A.03,
 Gaussian 16:  EM64L-G16RevA.03 25-Dec-2016

 -------------
 #p 6-31g* mp2
 -------------

 ------------------------------------------------------
 Input file generated by CHIRIPA (05-May-2021 14:53:12)
 ------------------------------------------------------
 Symbolic Z-matrix:
 Charge =  0 Multiplicity = 1

                         Standard orientation:
 ---------------------------------------------------------------------
 Center     Atomic      Atomic             Coordinates (Angstroms)
 Number     Number       Type             X           Y           Z
 ---------------------------------------------------------------------
      1          6           0        3.762879    0.234328    0.493034
      2          6           0        4.209811   -1.078569   -0.150813
      3          6           0        5.245805   -1.826271    0.689099
      4          1           0        4.640920    0.875485    0.650852
      5          1           0        3.346763    0.023706    1.487961
      6          1           0        4.623692   -0.865688   -1.144795
      7          1           0        3.330579   -1.716598   -0.307293
      8          1           0        4.839609   -2.067400    1.676754
      9          1           0        6.140069   -1.211654    0.834493
     10          1           0        5.551306   -2.761820    0.210270
     11          6           0        2.727305    0.993309   -0.334771
     12          6           0        2.280373    2.306206    0.309076
     13          6           0        1.244379    3.053908   -0.530836
     14          1           0        3.143421    1.203931   -1.329698
     15          1           0        1.849264    0.352151   -0.492589
     16          1           0        3.159605    2.944235    0.465556
     17          1           0        1.866492    2.093324    1.303058
     18          1           0        0.350115    2.439291   -0.676230
     19          1           0        1.650575    3.295036   -1.518491
     20          1           0        0.938878    3.989456   -0.052007
     21          6           0       -3.718203    1.687028    0.460152
     22          6           0       -2.535102    1.697585   -0.285960
     23          6           0       -1.871162    0.503180   -0.581135
     24          6           0       -2.420862   -0.689002   -0.112284
     25          6           0       -3.597900   -0.732240    0.633373
     26          6           0       -4.244897    0.474287    0.916632
     27          1           0       -4.227386    2.619578    0.684824
     28          1           0       -2.123757    2.637926   -0.641768
     29          1           0       -0.953732    0.482482   -1.156732
     30          1           0       -3.983641   -1.685310    0.974368
     31          1           0       -5.163549    0.463062    1.496284
     32          7           0       -1.726948   -1.959881   -0.418466
     33          8           0       -2.231756   -2.996946    0.006153
     34          8           0       -0.691388   -1.894868   -1.077272
 ---------------------------------------------------------------------

 SCF Done:  E(RHF) =  -669.535105659     A.U. after   15 cycles
 E2 =    -0.2092774463D+01 EUMP2 =    -0.67162788012231D+03

 The electronic state is 1-A.
 Alpha  occ. eigenvalues --  -20.60867 -20.60861 -15.85907 -11.31234 -11.27796
 Alpha  occ. eigenvalues --  -11.27773 -11.27521 -11.26809 -11.26764 -11.21830
 Alpha  occ. eigenvalues --  -11.21702 -11.21283 -11.21143 -11.21075 -11.20636
 Alpha  occ. eigenvalues --   -1.59933  -1.39488  -1.19403  -1.08801  -1.08319
 Alpha  occ. eigenvalues --   -1.04809  -1.03479  -0.95972  -0.95644  -0.87007
 Alpha  occ. eigenvalues --   -0.86196  -0.82486  -0.79574  -0.78066  -0.77519
 Alpha  occ. eigenvalues --   -0.72126  -0.71250  -0.70522  -0.65086  -0.64947
 Alpha  occ. eigenvalues --   -0.64796  -0.62253  -0.60804  -0.59377  -0.57534
 Alpha  occ. eigenvalues --   -0.55388  -0.55183  -0.53131  -0.52930  -0.52645
 Alpha  occ. eigenvalues --   -0.52389  -0.49931  -0.48881  -0.48877  -0.47866
 Alpha  occ. eigenvalues --   -0.46562  -0.45616  -0.45486  -0.44872  -0.43700
 Alpha  occ. eigenvalues --   -0.37378  -0.36378
 Alpha virt. eigenvalues --    0.04949   0.11221   0.16399   0.20332   0.23099
 Alpha virt. eigenvalues --    0.24220   0.25783   0.26599   0.27312   0.28247
 Alpha virt. eigenvalues --    0.29682   0.30217   0.31508   0.31540   0.32117

 Mulliken charges:
               1
     1  C   -0.297810
     2  C   -0.302881
     3  C   -0.475740
     4  H    0.147540
     5  H    0.149659
     6  H    0.150593
     7  H    0.164419
     8  H    0.155216
     9  H    0.152380
    10  H    0.161521
    11  C   -0.305338
    12  C   -0.298987
    13  C   -0.480655
    14  H    0.149441
    15  H    0.159430
    16  H    0.153552
    17  H    0.153000
    18  H    0.145699
    19  H    0.158517
    20  H    0.158901
    21  C   -0.171228
    22  C   -0.219346
    23  C   -0.175532
    24  C    0.157489
    25  C   -0.171067
    26  C   -0.218535
    27  H    0.225958
    28  H    0.227444
    29  H    0.280183
    30  H    0.275566
    31  H    0.223634
    32  N    0.488873
    33  O   -0.459505
    34  O   -0.462390
 Sum of Mulliken charges =  -0.00000

 Dipole moment (field-independent basis, Debye):
    X=             -2.4349    Y=              4.3625    Z=              1.0901  Tot=              5.1136
 Quadrupole moment (field-independent basis, Debye-Ang):
   XX=            -80.6482   YY=           -100.4081   ZZ=            -94.4888
   XY=             -6.5812   XZ=             -5.3130   YZ=             -2.5382

 Normal termination of Gaussian 16 at Thu May  6 13:40:54 2021.
