 Gaussian 16, Revision A.03,
 Gaussian 16:  EM64L-G16RevA.03 25-Dec-2016

 -------------
 #p 6-31g* mp2
 -------------

 ------------------------------------------------------
 Input file generated by CHIRIPA (05-May-2021 14:51:08)
 ------------------------------------------------------
 Symbolic Z-matrix:
 Charge =  0 Multiplicity = 1

                         Standard orientation:
 ---------------------------------------------------------------------
 Center     Atomic      Atomic             Coordinates (Angstroms)
 Number     Number       Type             X           Y           Z
 ---------------------------------------------------------------------
      1          6           0        2.692780   -0.008843   -0.311806
      2          6           0        4.079253   -0.320214   -0.876364
      3          6           0        4.282535   -1.809440   -1.156854
      4          1           0        2.543723   -0.581450    0.613855
      5          1           0        1.929099   -0.356906   -1.021057
      6          1           0        4.840114    0.029579   -0.166891
      7          1           0        4.225101    0.253348   -1.800686
      8          1           0        3.545280   -2.169030   -1.881941
      9          1           0        4.163787   -2.394070   -0.238863
     10          1           0        5.280248   -2.009535   -1.559830
     11          6           0        2.474392    1.475909   -0.026242
     12          6           0        1.087919    1.787280    0.538316
     13          6           0        0.884637    3.276506    0.818806
     14          1           0        3.238073    1.823972    0.683009
     15          1           0        2.623449    2.048516   -0.951903
     16          1           0        0.942071    1.213718    1.462638
     17          1           0        0.327058    1.437487   -0.171157
     18          1           0        1.003385    3.861136   -0.099186
     19          1           0        1.621892    3.636096    1.543893
     20          1           0       -0.113076    3.476601    1.221782
     21          6           0       -2.106906   -0.772370    0.764591
     22          6           0       -1.094414   -1.913151    0.657496
     23          6           0       -0.147736   -1.977836    1.856416
     24          1           0       -1.567810    0.180136    0.859732
     25          1           0       -2.690464   -0.894794    1.687557
     26          1           0       -0.513879   -1.789377   -0.265691
     27          1           0       -1.635983   -2.863034    0.562407
     28          1           0       -0.710326   -2.125183    2.783984
     29          1           0        0.418155   -1.045427    1.951183
     30          1           0        0.567604   -2.800451    1.759183
     31          6           0       -3.060266   -0.694696   -0.426542
     32          6           0       -4.072758    0.446084   -0.319448
     33          6           0       -5.019436    0.510770   -1.518369
     34          1           0       -2.476708   -0.572272   -1.349509
     35          1           0       -3.599362   -1.647201   -0.521684
     36          1           0       -3.531189    1.395968   -0.224358
     37          1           0       -4.653293    0.322311    0.603738
     38          1           0       -5.585326   -0.421639   -1.613134
     39          1           0       -4.456847    0.658117   -2.445937
     40          1           0       -5.734776    1.333385   -1.421135
 ---------------------------------------------------------------------

 SCF Done:  E(RHF) =  -470.732094673     A.U. after   11 cycles
 E2 =    -0.1585149505D+01 EUMP2 =    -0.47231724417807D+03

 The electronic state is 1-A.
 Alpha  occ. eigenvalues --  -11.21704 -11.21630 -11.21581 -11.21514 -11.21462
 Alpha  occ. eigenvalues --  -11.21385 -11.21346 -11.21236 -11.21160 -11.21091
 Alpha  occ. eigenvalues --  -11.21059 -11.20965  -1.08523  -1.08350  -1.03606
 Alpha  occ. eigenvalues --   -1.03470  -0.96050  -0.95917  -0.87059  -0.86947
 Alpha  occ. eigenvalues --   -0.79731  -0.79519  -0.78391  -0.78112  -0.65148
 Alpha  occ. eigenvalues --   -0.65011  -0.61021  -0.60882  -0.59455  -0.59244
 Alpha  occ. eigenvalues --   -0.57675  -0.57536  -0.55334  -0.55221  -0.52737
 Alpha  occ. eigenvalues --   -0.52632  -0.52455  -0.52360  -0.49985  -0.49923
 Alpha  occ. eigenvalues --   -0.48170  -0.47818  -0.46708  -0.46661  -0.46100
 Alpha  occ. eigenvalues --   -0.45738  -0.45579  -0.45179  -0.43838  -0.43724
 Alpha virt. eigenvalues --    0.20445   0.22819   0.23719   0.23898   0.25054
 Alpha virt. eigenvalues --    0.26158   0.26581   0.28332   0.28802   0.29733
 Alpha virt. eigenvalues --    0.30366   0.31543   0.31679   0.31831   0.31980

 Mulliken charges:
               1
     1  C   -0.303920
     2  C   -0.299460
     3  C   -0.475708
     4  H    0.155396
     5  H    0.150266
     6  H    0.152025
     7  H    0.151829
     8  H    0.155080
     9  H    0.155416
    10  H    0.160376
    11  C   -0.297901
    12  C   -0.307460
    13  C   -0.475861
    14  H    0.149702
    15  H    0.149708
    16  H    0.156575
    17  H    0.154060
    18  H    0.155533
    19  H    0.155806
    20  H    0.160573
    21  C   -0.305571
    22  C   -0.300276
    23  C   -0.481732
    24  H    0.158336
    25  H    0.148744
    26  H    0.153250
    27  H    0.151517
    28  H    0.154195
    29  H    0.161834
    30  H    0.159323
    31  C   -0.298205
    32  C   -0.299488
    33  C   -0.475607
    34  H    0.148358
    35  H    0.149583
    36  H    0.151426
    37  H    0.151989
    38  H    0.155211
    39  H    0.154919
    40  H    0.160160
 Sum of Mulliken charges =  -0.00000

 Dipole moment (field-independent basis, Debye):
    X=              0.0548    Y=              0.0382    Z=              0.0104  Tot=              0.0676
 Quadrupole moment (field-independent basis, Debye-Ang):
   XX=            -84.9447   YY=            -85.5536   ZZ=            -84.3872
   XY=              0.7775   XZ=             -0.4592   YZ=             -0.4835

 Normal termination of Gaussian 16 at Wed May  5 22:56:55 2021.
