 Gaussian 16, Revision A.03,
 Gaussian 16:  EM64L-G16RevA.03 25-Dec-2016

 -------------
 #p 6-31g* mp2
 -------------

 ------------------------------------------------------
 Input file generated by CHIRIPA (05-May-2021 14:51:08)
 ------------------------------------------------------
 Symbolic Z-matrix:
 Charge =  0 Multiplicity = 1

                         Standard orientation:
 ---------------------------------------------------------------------
 Center     Atomic      Atomic             Coordinates (Angstroms)
 Number     Number       Type             X           Y           Z
 ---------------------------------------------------------------------
      1          6           0        2.592270   -0.206809   -0.680510
      2          6           0        3.390657   -1.510170   -0.637947
      3          6           0        2.770293   -2.611775   -1.497837
      4          1           0        1.565066   -0.402305   -0.343495
      5          1           0        2.519582    0.136675   -1.721726
      6          1           0        3.462998   -1.850364    0.403038
      7          1           0        4.416132   -1.311510   -0.974921
      8          1           0        2.712839   -2.296873   -2.544803
      9          1           0        1.754289   -2.838788   -1.159014
     10          1           0        3.357061   -3.534563   -1.452827
     11          6           0        3.199915    0.904035    0.174195
     12          6           0        2.401528    2.207396    0.131633
     13          6           0        3.021891    3.309001    0.991523
     14          1           0        3.272602    0.560551    1.215411
     15          1           0        4.227118    1.099531   -0.162820
     16          1           0        1.376053    2.008736    0.468607
     17          1           0        2.329187    2.547590   -0.909353
     18          1           0        4.037896    3.536013    0.652699
     19          1           0        3.079346    2.994098    2.038488
     20          1           0        2.435123    4.231788    0.946513
     21          6           0       -3.029319    0.327588   -0.076136
     22          6           0       -4.470472    0.493208   -0.559492
     23          6           0       -4.721438    1.851075   -1.216004
     24          1           0       -2.793729    1.130043    0.636262
     25          1           0       -2.347215    0.455693   -0.928027
     26          1           0       -5.149724    0.363458    0.292797
     27          1           0       -4.702719   -0.309844   -1.270676
     28          1           0       -4.067399    1.986318   -2.083497
     29          1           0       -4.516943    2.663447   -0.511139
     30          1           0       -5.757841    1.948113   -1.554106
     31          6           0       -2.762866   -1.024815    0.582451
     32          6           0       -1.321713   -1.190433    1.065806
     33          6           0       -1.070746   -2.548301    1.722318
     34          1           0       -3.444970   -1.152918    1.434342
     35          1           0       -2.998455   -1.827268   -0.129946
     36          1           0       -1.089465   -0.387381    1.776991
     37          1           0       -0.642461   -1.060684    0.213518
     38          1           0       -1.275241   -3.360673    1.017454
     39          1           0       -1.724786   -2.683545    2.589811
     40          1           0       -0.034344   -2.645338    2.060420
 ---------------------------------------------------------------------

 SCF Done:  E(RHF) =  -470.733378701     A.U. after   11 cycles
 E2 =    -0.1583202388D+01 EUMP2 =    -0.47231658108900D+03

 The electronic state is 1-A.
 Alpha  occ. eigenvalues --  -11.21678 -11.21622 -11.21589 -11.21567 -11.21448
 Alpha  occ. eigenvalues --  -11.21385 -11.21368 -11.21304 -11.21153 -11.21082
 Alpha  occ. eigenvalues --  -11.21073 -11.21050  -1.08482  -1.08401  -1.03584
 Alpha  occ. eigenvalues --   -1.03508  -0.96025  -0.95960  -0.87043  -0.86976
 Alpha  occ. eigenvalues --   -0.79668  -0.79560  -0.78357  -0.78155  -0.65179
 Alpha  occ. eigenvalues --   -0.64980  -0.61044  -0.60848  -0.59402  -0.59320
 Alpha  occ. eigenvalues --   -0.57647  -0.57562  -0.55309  -0.55252  -0.52722
 Alpha  occ. eigenvalues --   -0.52656  -0.52456  -0.52385  -0.50014  -0.49867
 Alpha  occ. eigenvalues --   -0.48034  -0.47872  -0.46827  -0.46542  -0.46079
 Alpha  occ. eigenvalues --   -0.45784  -0.45725  -0.45261  -0.43828  -0.43761
 Alpha virt. eigenvalues --    0.20425   0.23194   0.23583   0.24818   0.25445
 Alpha virt. eigenvalues --    0.26628   0.26961   0.27708   0.28206   0.29447
 Alpha virt. eigenvalues --    0.30676   0.31367   0.31663   0.32018   0.32320

 Mulliken charges:
               1
     1  C   -0.308257
     2  C   -0.298811
     3  C   -0.476865
     4  H    0.159653
     5  H    0.148893
     6  H    0.151590
     7  H    0.151927
     8  H    0.154955
     9  H    0.155706
    10  H    0.160407
    11  C   -0.297375
    12  C   -0.300308
    13  C   -0.475699
    14  H    0.149261
    15  H    0.149457
    16  H    0.152940
    17  H    0.151700
    18  H    0.155095
    19  H    0.155029
    20  H    0.160159
    21  C   -0.298675
    22  C   -0.299692
    23  C   -0.475758
    24  H    0.149516
    25  H    0.150074
    26  H    0.151956
    27  H    0.152072
    28  H    0.155388
    29  H    0.155210
    30  H    0.160316
    31  C   -0.297382
    32  C   -0.308236
    33  C   -0.475974
    34  H    0.149748
    35  H    0.149901
    36  H    0.151665
    37  H    0.158895
    38  H    0.155545
    39  H    0.155829
    40  H    0.160148
 Sum of Mulliken charges =  -0.00000

 Dipole moment (field-independent basis, Debye):
    X=             -0.0354    Y=             -0.0060    Z=              0.0023  Tot=              0.0360
 Quadrupole moment (field-independent basis, Debye-Ang):
   XX=            -84.6712   YY=            -86.2328   ZZ=            -83.8885
   XY=              0.1020   XZ=             -1.0311   YZ=              0.0406

 Normal termination of Gaussian 16 at Thu May  6 02:04:36 2021.
