 Gaussian 16, Revision A.03,
 Gaussian 16:  EM64L-G16RevA.03 25-Dec-2016

 -------------
 #p 6-31g* mp2
 -------------

 ------------------------------------------------------
 Input file generated by CHIRIPA (05-May-2021 14:57:25)
 ------------------------------------------------------
 Symbolic Z-matrix:
 Charge =  0 Multiplicity = 1

                         Standard orientation:
 ---------------------------------------------------------------------
 Center     Atomic      Atomic             Coordinates (Angstroms)
 Number     Number       Type             X           Y           Z
 ---------------------------------------------------------------------
      1          6           0       -1.431128    1.662167    0.874394
      2          6           0       -2.316827    2.170217   -0.081608
      3          6           0       -3.435527    1.430792   -0.476969
      4          6           0       -3.638903    0.181342    0.106815
      5          6           0       -2.774696   -0.352045    1.061768
      6          6           0       -1.662481    0.404874    1.442031
      7          1           0       -0.564614    2.243365    1.175656
      8          1           0       -2.139665    3.146349   -0.524129
      9          1           0       -4.137298    1.800103   -1.214902
     10          1           0       -2.977737   -1.328243    1.485123
     11          1           0       -0.976322    0.007799    2.184703
     12          7           0       -4.819787   -0.610714   -0.303744
     13          8           0       -4.976643   -1.708828    0.225575
     14          8           0       -5.566149   -0.118416   -1.147084
     15          6           0        5.581749    1.019305   -0.016098
     16          6           0        4.372066    1.667172   -0.287128
     17          6           0        3.181615    0.939660   -0.377136
     18          6           0        3.237636   -0.440578   -0.189793
     19          6           0        4.427167   -1.114879    0.081542
     20          6           0        5.605397   -0.367208    0.167049
     21          1           0        6.501772    1.592285    0.052074
     22          1           0        4.350698    2.743847   -0.429813
     23          1           0        2.231260    1.415790   -0.585811
     24          1           0        4.416834   -2.189312    0.219032
     25          1           0        6.543400   -0.873014    0.377655
     26          7           0        1.983828   -1.221433   -0.282697
     27          8           0        2.059891   -2.436451   -0.113641
     28          8           0        0.948772   -0.603662   -0.522813
 ---------------------------------------------------------------------

 SCF Done:  E(RHF) =  -868.337247519     A.U. after   16 cycles
 E2 =    -0.2600440677D+01 EUMP2 =    -0.87093768819667D+03

 The electronic state is 1-A.
 Alpha  occ. eigenvalues --  -20.61416 -20.61407 -20.59933 -20.59916 -15.86442
 Alpha  occ. eigenvalues --  -15.84975 -11.31835 -11.30212 -11.28443 -11.28360
 Alpha  occ. eigenvalues --  -11.28107 -11.27426 -11.27367 -11.26814 -11.26698
 Alpha  occ. eigenvalues --  -11.26585 -11.25888 -11.25749  -1.60491  -1.59002
 Alpha  occ. eigenvalues --   -1.40043  -1.38560  -1.20000  -1.18370  -1.09386
 Alpha  occ. eigenvalues --   -1.07818  -1.05404  -1.03767  -0.96220  -0.94678
 Alpha  occ. eigenvalues --   -0.86798  -0.85202  -0.83048  -0.81520  -0.78107
 Alpha  occ. eigenvalues --   -0.76565  -0.72663  -0.71827  -0.71207  -0.71095
 Alpha  occ. eigenvalues --   -0.70315  -0.69576  -0.65647  -0.65398  -0.64061
 Alpha  occ. eigenvalues --   -0.63828  -0.62755  -0.61148  -0.55882  -0.54383
 Alpha  occ. eigenvalues --   -0.53732  -0.53489  -0.52061  -0.51912  -0.49436
 Alpha  occ. eigenvalues --   -0.49413  -0.47962  -0.47953  -0.45446  -0.43995
 Alpha  occ. eigenvalues --   -0.37972  -0.37011  -0.36316  -0.35279
 Alpha virt. eigenvalues --    0.04401   0.05968   0.10636   0.12338   0.15942
 Alpha virt. eigenvalues --    0.17438   0.20589   0.22097   0.26355   0.27347
 Alpha virt. eigenvalues --    0.28123   0.28998   0.30617   0.31297   0.32950

 Mulliken charges:
               1
     1  C   -0.164305
     2  C   -0.218631
     3  C   -0.171497
     4  C    0.159033
     5  C   -0.167607
     6  C   -0.198991
     7  H    0.214354
     8  H    0.216358
     9  H    0.271906
    10  H    0.275102
    11  H    0.220218
    12  N    0.488216
    13  O   -0.460812
    14  O   -0.463934
    15  C   -0.170556
    16  C   -0.218079
    17  C   -0.173810
    18  C    0.158077
    19  C   -0.170729
    20  C   -0.218142
    21  H    0.227505
    22  H    0.223342
    23  H    0.271265
    24  H    0.277420
    25  H    0.225749
    26  N    0.487390
    27  O   -0.457872
    28  O   -0.460968
 Sum of Mulliken charges =  -0.00000

 Dipole moment (field-independent basis, Debye):
    X=              8.8796    Y=              5.3115    Z=              1.8028  Tot=             10.5028
 Quadrupole moment (field-independent basis, Debye-Ang):
   XX=           -105.9772   YY=           -100.9122   ZZ=           -103.9162
   XY=             -5.6780   XZ=             -3.1803   YZ=             -3.7511

 Normal termination of Gaussian 16 at Fri May  7 11:11:27 2021.
