 Gaussian 16, Revision A.03,
 Gaussian 16:  EM64L-G16RevA.03 25-Dec-2016

 -------------
 #p 6-31g* mp2
 -------------

 ------------------------------------------------------
 Input file generated by CHIRIPA (05-May-2021 14:55:23)
 ------------------------------------------------------
 Symbolic Z-matrix:
 Charge =  0 Multiplicity = 1

                         Standard orientation:
 ---------------------------------------------------------------------
 Center     Atomic      Atomic             Coordinates (Angstroms)
 Number     Number       Type             X           Y           Z
 ---------------------------------------------------------------------
      1          6           0       -0.213356   -2.929556    0.454804
      2          6           0        0.326114   -2.201134    1.520118
      3          6           0        1.236401   -1.166632    1.284043
      4          6           0        1.586686   -0.886159   -0.035778
      5          6           0        1.066549   -1.593783   -1.118374
      6          6           0        0.157929   -2.624094   -0.858727
      7          1           0       -0.919841   -3.731554    0.647348
      8          1           0        0.039586   -2.436152    2.541251
      9          1           0        1.669350   -0.586723    2.090069
     10          1           0        1.371311   -1.336247   -2.125456
     11          1           0       -0.259426   -3.188120   -1.688024
     12          7           0        2.549483    0.206803   -0.298177
     13          8           0        2.841929    0.434264   -1.470088
     14          8           0        2.993448    0.815312    0.673033
     15          6           0       -2.561097    1.171769   -0.101720
     16          6           0       -2.789447   -0.339536   -0.144139
     17          6           0       -4.261300   -0.710050   -0.328970
     18          1           0       -3.154724    1.603074    0.715914
     19          1           0       -2.938721    1.618874   -1.031717
     20          1           0       -2.410250   -0.783829    0.785070
     21          1           0       -2.195059   -0.767318   -0.961646
     22          1           0       -4.648783   -0.293835   -1.264503
     23          1           0       -4.865198   -0.310440    0.492138
     24          1           0       -4.401739   -1.795121   -0.356529
     25          6           0       -1.094596    1.557940    0.082600
     26          6           0       -0.866245    3.069245    0.125018
     27          6           0        0.605607    3.439759    0.309849
     28          1           0       -0.716972    1.110834    1.012596
     29          1           0       -0.500968    1.126635   -0.735036
     30          1           0       -1.460634    3.497027    0.942526
     31          1           0       -1.245442    3.513538   -0.804191
     32          1           0        1.209505    3.040148   -0.511259
     33          1           0        0.993091    3.023543    1.245382
     34          1           0        0.746046    4.524829    0.337408
 ---------------------------------------------------------------------

 SCF Done:  E(RHF) =  -669.532908533     A.U. after   15 cycles
 E2 =    -0.2098721098D+01 EUMP2 =    -0.67163162963067D+03

 The electronic state is 1-A.
 Alpha  occ. eigenvalues --  -20.60913 -20.60892 -15.85901 -11.31215 -11.27815
 Alpha  occ. eigenvalues --  -11.27811 -11.27551 -11.26832 -11.26815 -11.21610
 Alpha  occ. eigenvalues --  -11.21331 -11.21313 -11.21133 -11.21061 -11.20083
 Alpha  occ. eigenvalues --   -1.59951  -1.39509  -1.19437  -1.08834  -1.08263
 Alpha  occ. eigenvalues --   -1.04848  -1.03289  -0.95726  -0.95667  -0.86730
 Alpha  occ. eigenvalues --   -0.86242  -0.82516  -0.79382  -0.78125  -0.77561
 Alpha  occ. eigenvalues --   -0.72146  -0.71246  -0.70548  -0.65105  -0.64928
 Alpha  occ. eigenvalues --   -0.64826  -0.62193  -0.60690  -0.59206  -0.57355
 Alpha  occ. eigenvalues --   -0.55341  -0.55002  -0.53397  -0.52935  -0.52351
 Alpha  occ. eigenvalues --   -0.52122  -0.49668  -0.48913  -0.48911  -0.47649
 Alpha  occ. eigenvalues --   -0.46448  -0.45670  -0.45409  -0.44736  -0.43545
 Alpha  occ. eigenvalues --   -0.37251  -0.36338
 Alpha virt. eigenvalues --    0.04894   0.11017   0.16349   0.21072   0.23189
 Alpha virt. eigenvalues --    0.24285   0.26323   0.27446   0.27643   0.28193
 Alpha virt. eigenvalues --    0.28270   0.30872   0.31265   0.31775   0.32397

 Mulliken charges:
               1
     1  C   -0.164930
     2  C   -0.219182
     3  C   -0.171458
     4  C    0.166030
     5  C   -0.173579
     6  C   -0.217065
     7  H    0.226095
     8  H    0.223540
     9  H    0.275196
    10  H    0.275374
    11  H    0.223745
    12  N    0.489367
    13  O   -0.461599
    14  O   -0.457558
    15  C   -0.297349
    16  C   -0.301409
    17  C   -0.474999
    18  H    0.148257
    19  H    0.149276
    20  H    0.149370
    21  H    0.151587
    22  H    0.156045
    23  H    0.155403
    24  H    0.153003
    25  C   -0.302068
    26  C   -0.299264
    27  C   -0.481444
    28  H    0.147357
    29  H    0.148198
    30  H    0.148204
    31  H    0.150334
    32  H    0.166927
    33  H    0.160825
    34  H    0.157774
 Sum of Mulliken charges =  -0.00000

 Dipole moment (field-independent basis, Debye):
    X=             -3.1303    Y=             -3.9044    Z=              0.9393  Tot=              5.0918
 Quadrupole moment (field-independent basis, Debye-Ang):
   XX=           -107.8769   YY=            -88.5955   ZZ=            -89.0121
   XY=             -3.2214   XZ=              1.7732   YZ=              0.1708

 Normal termination of Gaussian 16 at Thu May  6 03:06:43 2021.
