 Gaussian 16, Revision A.03,
 Gaussian 16:  EM64L-G16RevA.03 25-Dec-2016

 -------------
 #p 6-31g* mp2
 -------------

 ------------------------------------------------------
 Input file generated by CHIRIPA (05-May-2021 14:53:14)
 ------------------------------------------------------
 Symbolic Z-matrix:
 Charge =  0 Multiplicity = 1

                         Standard orientation:
 ---------------------------------------------------------------------
 Center     Atomic      Atomic             Coordinates (Angstroms)
 Number     Number       Type             X           Y           Z
 ---------------------------------------------------------------------
      1          6           0        4.819202   -0.090969   -0.235043
      2          6           0        5.729828    0.091006    0.979713
      3          6           0        7.168427    0.436252    0.593667
      4          1           0        5.228401   -0.883333   -0.876651
      5          1           0        4.828231    0.831035   -0.832723
      6          1           0        5.718001   -0.830580    1.575662
      7          1           0        5.318310    0.882897    1.618601
      8          1           0        7.200054    1.367079    0.018201
      9          1           0        7.602016   -0.356134   -0.024982
     10          1           0        7.802048    0.561912    1.477179
     11          6           0        3.377794   -0.436462    0.134693
     12          6           0        2.467168   -0.618436   -1.080063
     13          6           0        1.028569   -0.963683   -0.694017
     14          1           0        3.368765   -1.358466    0.732374
     15          1           0        2.968595    0.355902    0.776301
     16          1           0        2.878686   -1.410327   -1.718951
     17          1           0        2.478995    0.303150   -1.676012
     18          1           0        0.594980   -0.171297   -0.075368
     19          1           0        0.996942   -1.894510   -0.118550
     20          1           0        0.394948   -1.089343   -1.577529
     21          6           0       -3.957249   -2.166931    0.444806
     22          6           0       -3.028127   -1.890755   -0.563648
     23          6           0       -2.602497   -0.579721   -0.797266
     24          6           0       -3.128932    0.435436   -0.000014
     25          6           0       -4.055905    0.192203    1.012335
     26          6           0       -4.467273   -1.126405    1.228198
     27          1           0       -4.282349   -3.188316    0.619391
     28          1           0       -2.630344   -2.696848   -1.173588
     29          1           0       -1.884318   -0.337742   -1.571271
     30          1           0       -4.434615    1.016753    1.604039
     31          1           0       -5.188959   -1.337935    2.012080
     32          7           0       -2.685886    1.827378   -0.237936
     33          8           0       -3.164721    2.704007    0.478218
     34          8           0       -1.868182    2.015399   -1.136071
 ---------------------------------------------------------------------

 SCF Done:  E(RHF) =  -669.535172838     A.U. after   15 cycles
 E2 =    -0.2091769858D+01 EUMP2 =    -0.67162694269619D+03

 The electronic state is 1-A.
 Alpha  occ. eigenvalues --  -20.60765 -20.60757 -15.85807 -11.31119 -11.27713
 Alpha  occ. eigenvalues --  -11.27660 -11.27453 -11.26712 -11.26691 -11.21553
 Alpha  occ. eigenvalues --  -11.21485 -11.21307 -11.21244 -11.21240 -11.20955
 Alpha  occ. eigenvalues --   -1.59834  -1.39389  -1.19306  -1.08711  -1.08347
 Alpha  occ. eigenvalues --   -1.04706  -1.03483  -0.95969  -0.95544  -0.87001
 Alpha  occ. eigenvalues --   -0.86095  -0.82384  -0.79561  -0.78151  -0.77427
 Alpha  occ. eigenvalues --   -0.72028  -0.71156  -0.70429  -0.64979  -0.64952
 Alpha  occ. eigenvalues --   -0.64714  -0.62104  -0.60860  -0.59326  -0.57564
 Alpha  occ. eigenvalues --   -0.55280  -0.55170  -0.53149  -0.52920  -0.52444
 Alpha  occ. eigenvalues --   -0.52365  -0.49875  -0.48784  -0.48782  -0.47871
 Alpha  occ. eigenvalues --   -0.46554  -0.45701  -0.45605  -0.44790  -0.43749
 Alpha  occ. eigenvalues --   -0.37291  -0.36268
 Alpha virt. eigenvalues --    0.05085   0.11330   0.16552   0.20894   0.22995
 Alpha virt. eigenvalues --    0.24146   0.26360   0.26758   0.27582   0.27985
 Alpha virt. eigenvalues --    0.28797   0.30869   0.31486   0.31625   0.32008

 Mulliken charges:
               1
     1  C   -0.298605
     2  C   -0.299768
     3  C   -0.475756
     4  H    0.148493
     5  H    0.151803
     6  H    0.150755
     7  H    0.153277
     8  H    0.156150
     9  H    0.154466
    10  H    0.160034
    11  C   -0.299350
    12  C   -0.300056
    13  C   -0.475578
    14  H    0.147345
    15  H    0.153108
    16  H    0.149576
    17  H    0.158681
    18  H    0.163789
    19  H    0.151817
    20  H    0.148771
    21  C   -0.170589
    22  C   -0.220056
    23  C   -0.167343
    24  C    0.156163
    25  C   -0.170833
    26  C   -0.218949
    27  H    0.225311
    28  H    0.223313
    29  H    0.279142
    30  H    0.275248
    31  H    0.223084
    32  N    0.487894
    33  O   -0.460532
    34  O   -0.460806
 Sum of Mulliken charges =  -0.00000

 Dipole moment (field-independent basis, Debye):
    X=             -1.5147    Y=             -4.8285    Z=              0.8568  Tot=              5.1326
 Quadrupole moment (field-independent basis, Debye-Ang):
   XX=            -84.8899   YY=            -98.3424   ZZ=            -92.5193
   XY=             13.5419   XZ=             -5.1426   YZ=              1.6874

 Normal termination of Gaussian 16 at Wed May  5 21:51:49 2021.
