 Gaussian 16, Revision A.03,
 Gaussian 16:  EM64L-G16RevA.03 25-Dec-2016

 -------------
 #p 6-31g* mp2
 -------------

 ------------------------------------------------------
 Input file generated by CHIRIPA (05-May-2021 14:51:08)
 ------------------------------------------------------
 Symbolic Z-matrix:
 Charge =  0 Multiplicity = 1

                         Standard orientation:
 ---------------------------------------------------------------------
 Center     Atomic      Atomic             Coordinates (Angstroms)
 Number     Number       Type             X           Y           Z
 ---------------------------------------------------------------------
      1          6           0       -3.271914   -0.210062    0.109632
      2          6           0       -4.508740   -0.955619   -0.392755
      3          6           0       -4.460832   -2.453083   -0.087632
      4          1           0       -2.375281   -0.650389   -0.347648
      5          1           0       -3.176322   -0.361429    1.193766
      6          1           0       -4.602749   -0.801751   -1.475392
      7          1           0       -5.402549   -0.513342    0.065627
      8          1           0       -4.390960   -2.624321    0.991440
      9          1           0       -3.586615   -2.914369   -0.558335
     10          1           0       -5.354665   -2.966540   -0.455441
     11          6           0       -3.305097    1.287960   -0.187952
     12          6           0       -2.068271    2.033516    0.314435
     13          6           0       -2.116179    3.530980    0.009312
     14          1           0       -3.400689    1.439326   -1.272086
     15          1           0       -4.201731    1.728286    0.269328
     16          1           0       -1.174463    1.591239   -0.143947
     17          1           0       -1.974263    1.879648    1.397072
     18          1           0       -2.990396    3.992266    0.480015
     19          1           0       -2.186052    3.702218   -1.069760
     20          1           0       -1.222346    4.044437    0.377122
     21          6           0        3.894966   -0.364285   -0.391108
     22          6           0        5.055715    0.227862    0.408899
     23          6           0        6.261633    0.572140   -0.465760
     24          1           0        4.240662   -1.266955   -0.913245
     25          1           0        3.592718    0.350398   -1.169098
     26          1           0        5.354773   -0.487145    1.186037
     27          1           0        4.707165    1.129120    0.929345
     28          1           0        5.985360    1.303413   -1.232255
     29          1           0        6.636648   -0.322036   -0.974104
     30          1           0        7.079716    0.993977    0.126399
     31          6           0        2.682045   -0.713613    0.469427
     32          6           0        1.521296   -1.305759   -0.330579
     33          6           0        0.315378   -1.650037    0.544080
     34          1           0        2.984293   -1.428296    1.247418
     35          1           0        2.336349    0.189057    0.991564
     36          1           0        1.869846   -2.207016   -0.851025
     37          1           0        1.222238   -0.590752   -1.107717
     38          1           0       -0.059637   -0.755861    1.052424
     39          1           0        0.591651   -2.381309    1.310575
     40          1           0       -0.502705   -2.071875   -0.048080
 ---------------------------------------------------------------------

 SCF Done:  E(RHF) =  -470.732549645     A.U. after   11 cycles
 E2 =    -0.1583593760D+01 EUMP2 =    -0.47231614340453D+03

 The electronic state is 1-A.
 Alpha  occ. eigenvalues --  -11.21632 -11.21609 -11.21603 -11.21554 -11.21407
 Alpha  occ. eigenvalues --  -11.21362 -11.21347 -11.21240 -11.21099 -11.21073
 Alpha  occ. eigenvalues --  -11.21052 -11.20995  -1.08446  -1.08390  -1.03530
 Alpha  occ. eigenvalues --   -1.03520  -0.96012  -0.95929  -0.87031  -0.86948
 Alpha  occ. eigenvalues --   -0.79634  -0.79564  -0.78283  -0.78163  -0.65131
 Alpha  occ. eigenvalues --   -0.64983  -0.60959  -0.60899  -0.59441  -0.59258
 Alpha  occ. eigenvalues --   -0.57620  -0.57550  -0.55327  -0.55194  -0.52777
 Alpha  occ. eigenvalues --   -0.52654  -0.52404  -0.52321  -0.49967  -0.49868
 Alpha  occ. eigenvalues --   -0.48002  -0.47814  -0.46686  -0.46610  -0.45850
 Alpha  occ. eigenvalues --   -0.45738  -0.45670  -0.45539  -0.43770  -0.43696
 Alpha virt. eigenvalues --    0.20842   0.22968   0.23652   0.24037   0.25947
 Alpha virt. eigenvalues --    0.26473   0.27066   0.27554   0.27674   0.29751
 Alpha virt. eigenvalues --    0.30228   0.31133   0.31702   0.31896   0.32532

 Mulliken charges:
               1
     1  C   -0.304067
     2  C   -0.299556
     3  C   -0.476042
     4  H    0.158839
     5  H    0.149085
     6  H    0.151333
     7  H    0.151533
     8  H    0.155606
     9  H    0.154670
    10  H    0.160186
    11  C   -0.297697
    12  C   -0.302068
    13  C   -0.475623
    14  H    0.149033
    15  H    0.149370
    16  H    0.153398
    17  H    0.151709
    18  H    0.155494
    19  H    0.155242
    20  H    0.159906
    21  C   -0.298251
    22  C   -0.299661
    23  C   -0.475705
    24  H    0.149634
    25  H    0.149376
    26  H    0.151954
    27  H    0.151973
    28  H    0.155165
    29  H    0.155169
    30  H    0.160270
    31  C   -0.298532
    32  C   -0.300999
    33  C   -0.480487
    34  H    0.149713
    35  H    0.149996
    36  H    0.151914
    37  H    0.151162
    38  H    0.160431
    39  H    0.154876
    40  H    0.161649
 Sum of Mulliken charges =  -0.00000

 Dipole moment (field-independent basis, Debye):
    X=              0.0041    Y=             -0.0063    Z=              0.0159  Tot=              0.0176
 Quadrupole moment (field-independent basis, Debye-Ang):
   XX=            -85.4884   YY=            -85.2174   ZZ=            -84.2308
   XY=             -0.8359   XZ=              0.1110   YZ=              0.3077

 Normal termination of Gaussian 16 at Wed May  5 18:05:43 2021.
