 Gaussian 16, Revision A.03,
 Gaussian 16:  EM64L-G16RevA.03 25-Dec-2016

 -------------
 #p 6-31g* mp2
 -------------

 ------------------------------------------------------
 Input file generated by CHIRIPA (05-May-2021 14:51:13)
 ------------------------------------------------------
 Symbolic Z-matrix:
 Charge =  0 Multiplicity = 1

                         Standard orientation:
 ---------------------------------------------------------------------
 Center     Atomic      Atomic             Coordinates (Angstroms)
 Number     Number       Type             X           Y           Z
 ---------------------------------------------------------------------
      1          6           0       -3.236951    0.277022   -0.186017
      2          6           0       -2.022575    0.122089    0.730101
      3          6           0       -0.784172    0.843273    0.197142
      4          1           0       -2.987155   -0.108912   -1.183815
      5          1           0       -3.459289    1.345834   -0.310931
      6          1           0       -1.803439   -0.946159    0.854362
      7          1           0       -2.275353    0.508262    1.725887
      8          1           0       -0.978961    1.915263    0.089919
      9          1           0       -0.504366    0.452578   -0.786558
     10          1           0        0.072094    0.719431    0.867465
     11          6           0       -4.482807   -0.438419    0.333323
     12          6           0       -5.697183   -0.283486   -0.582794
     13          6           0       -6.935586   -1.004670   -0.049836
     14          1           0       -4.260469   -1.507230    0.458238
     15          1           0       -4.732603   -0.052485    1.331121
     16          1           0       -5.444405   -0.669659   -1.578580
     17          1           0       -5.916319    0.784763   -0.707055
     18          1           0       -7.215392   -0.613974    0.933865
     19          1           0       -6.740797   -2.076660    0.057388
     20          1           0       -7.791852   -0.880827   -0.720159
     21          6           0        3.737838    0.759687    0.254237
     22          6           0        2.878592    1.697300   -0.594621
     23          6           0        2.643278    3.051694    0.074736
     24          1           0        3.252732    0.609484    1.228432
     25          1           0        4.703952    1.242196    0.457228
     26          1           0        1.914913    1.212596   -0.797111
     27          1           0        3.365705    1.845136   -1.566980
     28          1           0        3.595006    3.559335    0.262123
     29          1           0        2.135972    2.923200    1.036366
     30          1           0        2.026775    3.706199   -0.549289
     31          6           0        3.981919   -0.598291   -0.401544
     32          6           0        4.841166   -1.535903    0.447315
     33          6           0        5.076480   -2.890297   -0.222042
     34          1           0        3.015806   -1.080799   -0.604534
     35          1           0        4.467026   -0.448087   -1.375739
     36          1           0        4.354052   -1.683739    1.419674
     37          1           0        5.804844   -1.051199    0.649805
     38          1           0        5.583785   -2.761803   -1.183672
     39          1           0        4.124751   -3.397937   -0.409429
     40          1           0        5.692983   -3.544802    0.401981
 ---------------------------------------------------------------------

 SCF Done:  E(RHF) =  -470.732834576     A.U. after   11 cycles
 E2 =    -0.1583137066D+01 EUMP2 =    -0.47231597164143D+03

 The electronic state is 1-A.
 Alpha  occ. eigenvalues --  -11.21659 -11.21628 -11.21569 -11.21447 -11.21401
 Alpha  occ. eigenvalues --  -11.21386 -11.21343 -11.21279 -11.21158 -11.21092
 Alpha  occ. eigenvalues --  -11.21050 -11.20959  -1.08478  -1.08355  -1.03598
 Alpha  occ. eigenvalues --   -1.03434  -0.96052  -0.95895  -0.87067  -0.86921
 Alpha  occ. eigenvalues --   -0.79699  -0.79472  -0.78295  -0.78158  -0.65112
 Alpha  occ. eigenvalues --   -0.65000  -0.60998  -0.60894  -0.59360  -0.59273
 Alpha  occ. eigenvalues --   -0.57650  -0.57508  -0.55336  -0.55204  -0.52729
 Alpha  occ. eigenvalues --   -0.52601  -0.52455  -0.52327  -0.50065  -0.49779
 Alpha  occ. eigenvalues --   -0.47986  -0.47815  -0.46760  -0.46463  -0.45870
 Alpha  occ. eigenvalues --   -0.45759  -0.45705  -0.45542  -0.43798  -0.43696
 Alpha virt. eigenvalues --    0.21077   0.22988   0.23858   0.24869   0.26032
 Alpha virt. eigenvalues --    0.26601   0.26736   0.27673   0.27941   0.29176
 Alpha virt. eigenvalues --    0.30364   0.30811   0.31622   0.31908   0.32329

 Mulliken charges:
               1
     1  C   -0.298667
     2  C   -0.300420
     3  C   -0.478411
     4  H    0.149785
     5  H    0.149722
     6  H    0.151853
     7  H    0.152135
     8  H    0.157210
     9  H    0.155273
    10  H    0.162200
    11  C   -0.298314
    12  C   -0.299667
    13  C   -0.475733
    14  H    0.149548
    15  H    0.149750
    16  H    0.151994
    17  H    0.152011
    18  H    0.155224
    19  H    0.155210
    20  H    0.160362
    21  C   -0.298504
    22  C   -0.308192
    23  C   -0.475075
    24  H    0.148558
    25  H    0.149262
    26  H    0.163852
    27  H    0.150832
    28  H    0.154224
    29  H    0.155063
    30  H    0.159659
    31  C   -0.298250
    32  C   -0.299552
    33  C   -0.475645
    34  H    0.149282
    35  H    0.149576
    36  H    0.151704
    37  H    0.151915
    38  H    0.155130
    39  H    0.154971
    40  H    0.160123
 Sum of Mulliken charges =  -0.00000

 Dipole moment (field-independent basis, Debye):
    X=             -0.0662    Y=             -0.0002    Z=             -0.0087  Tot=              0.0667
 Quadrupole moment (field-independent basis, Debye-Ang):
   XX=            -85.2177   YY=            -85.2812   ZZ=            -84.5434
   XY=             -0.2004   XZ=             -0.1925   YZ=              0.0338

 Normal termination of Gaussian 16 at Wed May  5 21:36:36 2021.
