 Gaussian 16, Revision A.03,
 Gaussian 16:  EM64L-G16RevA.03 25-Dec-2016

 -------------
 #p 6-31g* mp2
 -------------

 ------------------------------------------------------
 Input file generated by CHIRIPA (05-May-2021 14:57:21)
 ------------------------------------------------------
 Symbolic Z-matrix:
 Charge =  0 Multiplicity = 1

                         Standard orientation:
 ---------------------------------------------------------------------
 Center     Atomic      Atomic             Coordinates (Angstroms)
 Number     Number       Type             X           Y           Z
 ---------------------------------------------------------------------
      1          6           0       -1.637117    2.388520   -1.255605
      2          6           0       -1.484002    1.191275   -1.962488
      3          6           0       -1.615858   -0.039175   -1.311986
      4          6           0       -1.902413   -0.035403    0.052258
      5          6           0       -2.060683    1.140472    0.784077
      6          6           0       -1.924463    2.359348    0.113009
      7          1           0       -1.532993    3.339868   -1.768919
      8          1           0       -1.260822    1.210893   -3.025432
      9          1           0       -1.502366   -0.981014   -1.834936
     10          1           0       -2.282901    1.088915    1.843029
     11          1           0       -2.043903    3.287574    0.664530
     12          7           0       -2.044314   -1.331899    0.751802
     13          8           0       -2.296988   -1.301558    1.954246
     14          8           0       -1.900174   -2.353885    0.084414
     15          6           0        2.252032    1.994391    1.290353
     16          6           0        2.326205    1.957517   -0.105949
     17          6           0        2.121287    0.759283   -0.796450
     18          6           0        1.842965   -0.388321   -0.055618
     19          6           0        1.762451   -0.383749    1.336067
     20          6           0        1.970888    0.825701    2.005643
     21          1           0        2.412583    2.929565    1.818623
     22          1           0        2.544380    2.863585   -0.664059
     23          1           0        2.172871    0.702354   -1.876966
     24          1           0        1.543219   -1.303326    1.864965
     25          1           0        1.912672    0.851362    3.090078
     26          7           0        1.624166   -1.662774   -0.775544
     27          8           0        1.380436   -2.659999   -0.099692
     28          8           0        1.700544   -1.640335   -2.002043
 ---------------------------------------------------------------------

 SCF Done:  E(RHF) =  -868.335878808     A.U. after   16 cycles
 E2 =    -0.2607404954D+01 EUMP2 =    -0.87094328376136D+03

 The electronic state is 1-A.
 Alpha  occ. eigenvalues --  -20.60726 -20.60570 -20.60569 -20.60428 -15.85662
 Alpha  occ. eigenvalues --  -15.85532 -11.31142 -11.31073 -11.27808 -11.27737
 Alpha  occ. eigenvalues --  -11.27661 -11.27549 -11.27543 -11.27497 -11.26852
 Alpha  occ. eigenvalues --  -11.26801 -11.26741 -11.26680  -1.59714  -1.59570
 Alpha  occ. eigenvalues --   -1.39264  -1.39111  -1.19409  -1.19228  -1.08754
 Alpha  occ. eigenvalues --   -1.08649  -1.04789  -1.04683  -0.95549  -0.95457
 Alpha  occ. eigenvalues --   -0.86179  -0.86108  -0.82373  -0.82273  -0.77419
 Alpha  occ. eigenvalues --   -0.77271  -0.71912  -0.71758  -0.71377  -0.70623
 Alpha  occ. eigenvalues --   -0.70471  -0.70362  -0.65015  -0.64926  -0.64788
 Alpha  occ. eigenvalues --   -0.64709  -0.62124  -0.62018  -0.55300  -0.55239
 Alpha  occ. eigenvalues --   -0.53942  -0.52875  -0.52790  -0.52179  -0.48679
 Alpha  occ. eigenvalues --   -0.48651  -0.48540  -0.48500  -0.44927  -0.44129
 Alpha  occ. eigenvalues --   -0.38014  -0.37396  -0.36196  -0.35698
 Alpha virt. eigenvalues --    0.05040   0.05158   0.11080   0.11544   0.16571
 Alpha virt. eigenvalues --    0.16723   0.21049   0.21718   0.26886   0.27496
 Alpha virt. eigenvalues --    0.28244   0.28552   0.30631   0.31112   0.32439

 Mulliken charges:
               1
     1  C   -0.171656
     2  C   -0.219746
     3  C   -0.179575
     4  C    0.158182
     5  C   -0.169440
     6  C   -0.217257
     7  H    0.221874
     8  H    0.225265
     9  H    0.288324
    10  H    0.272531
    11  H    0.219288
    12  N    0.485456
    13  O   -0.467670
    14  O   -0.445570
    15  C   -0.171729
    16  C   -0.217334
    17  C   -0.166717
    18  C    0.157328
    19  C   -0.175505
    20  C   -0.218789
    21  H    0.222824
    22  H    0.218564
    23  H    0.270376
    24  H    0.283825
    25  H    0.225031
    26  N    0.486026
    27  O   -0.444106
    28  O   -0.469800
 Sum of Mulliken charges =  -0.00000

 Dipole moment (field-independent basis, Debye):
    X=              1.2398    Y=              8.6554    Z=              0.0930  Tot=              8.7442
 Quadrupole moment (field-independent basis, Debye-Ang):
   XX=           -105.5629   YY=           -107.0855   ZZ=            -98.3997
   XY=             -0.7567   XZ=              8.2891   YZ=             -0.8994

 Normal termination of Gaussian 16 at Thu May  6 06:31:03 2021.
