 Gaussian 16, Revision A.03,
 Gaussian 16:  EM64L-G16RevA.03 25-Dec-2016

 -------------
 #p 6-31g* mp2
 -------------

 ------------------------------------------------------
 Input file generated by CHIRIPA (05-May-2021 14:53:16)
 ------------------------------------------------------
 Symbolic Z-matrix:
 Charge =  0 Multiplicity = 1

                         Standard orientation:
 ---------------------------------------------------------------------
 Center     Atomic      Atomic             Coordinates (Angstroms)
 Number     Number       Type             X           Y           Z
 ---------------------------------------------------------------------
      1          6           0       -3.467952    0.580584    0.012036
      2          6           0       -3.350199    1.798599    0.928857
      3          6           0       -2.112683    2.645583    0.630587
      4          1           0       -2.565388   -0.037119    0.115800
      5          1           0       -3.496980    0.918517   -1.033121
      6          1           0       -3.322795    1.458552    1.972041
      7          1           0       -4.253233    2.413375    0.823042
      8          1           0       -2.136571    3.012809   -0.400517
      9          1           0       -1.200847    2.052561    0.755011
     10          1           0       -2.048209    3.510974    1.297521
     11          6           0       -4.700100   -0.276029    0.297959
     12          6           0       -4.817853   -1.494043   -0.618862
     13          6           0       -6.055369   -2.341027   -0.320592
     14          1           0       -4.671072   -0.613961    1.343116
     15          1           0       -5.602664    0.341675    0.194195
     16          1           0       -3.914819   -2.108819   -0.513047
     17          1           0       -4.845257   -1.153996   -1.662046
     18          1           0       -6.967205   -1.748005   -0.445016
     19          1           0       -6.031481   -2.708253    0.710512
     20          1           0       -6.119843   -3.206418   -0.987526
     21          6           0        1.210904    1.299625   -0.779990
     22          6           0        1.013523   -0.004290   -0.313764
     23          6           0        2.103070   -0.799331    0.054130
     24          6           0        3.382040   -0.256112   -0.057392
     25          6           0        3.611143    1.039395   -0.518330
     26          6           0        2.506801    1.816395   -0.880608
     27          1           0        0.358771    1.910225   -1.063597
     28          1           0        0.008238   -0.408243   -0.234580
     29          1           0        1.978894   -1.811970    0.418219
     30          1           0        4.625115    1.414446   -0.586278
     31          1           0        2.663090    2.828698   -1.242354
     32          7           0        4.543326   -1.088236    0.329108
     33          8           0        5.660092   -0.586332    0.221581
     34          8           0        4.314786   -2.226603    0.732255
 ---------------------------------------------------------------------

 SCF Done:  E(RHF) =  -669.534966697     A.U. after   15 cycles
 E2 =    -0.2092460816D+01 EUMP2 =    -0.67162742751270D+03

 The electronic state is 1-A.
 Alpha  occ. eigenvalues --  -20.60726 -20.60721 -15.85780 -11.31135 -11.27713
 Alpha  occ. eigenvalues --  -11.27707 -11.27367 -11.26700 -11.26688 -11.22601
 Alpha  occ. eigenvalues --  -11.22486 -11.22309 -11.22235 -11.22182 -11.21617
 Alpha  occ. eigenvalues --   -1.59803  -1.39356  -1.19307  -1.09352  -1.08697
 Alpha  occ. eigenvalues --   -1.04712  -1.04405  -0.96886  -0.95532  -0.87902
 Alpha  occ. eigenvalues --   -0.86108  -0.82371  -0.80494  -0.79164  -0.77422
 Alpha  occ. eigenvalues --   -0.71998  -0.71126  -0.70414  -0.66001  -0.64956
 Alpha  occ. eigenvalues --   -0.64708  -0.62089  -0.61761  -0.60241  -0.58512
 Alpha  occ. eigenvalues --   -0.56210  -0.55229  -0.53529  -0.53302  -0.52980
 Alpha  occ. eigenvalues --   -0.52791  -0.50809  -0.48788  -0.48757  -0.48741
 Alpha  occ. eigenvalues --   -0.47510  -0.46693  -0.46594  -0.44765  -0.44664
 Alpha  occ. eigenvalues --   -0.37247  -0.36318
 Alpha virt. eigenvalues --    0.05093   0.11233   0.16556   0.19423   0.22450
 Alpha virt. eigenvalues --    0.23774   0.24063   0.26001   0.26580   0.28437
 Alpha virt. eigenvalues --    0.29655   0.29934   0.30990   0.31238   0.31733

 Mulliken charges:
               1
     1  C   -0.302902
     2  C   -0.299251
     3  C   -0.485662
     4  H    0.143447
     5  H    0.149894
     6  H    0.156232
     7  H    0.156187
     8  H    0.150916
     9  H    0.156315
    10  H    0.166832
    11  C   -0.298510
    12  C   -0.300056
    13  C   -0.476295
    14  H    0.152046
    15  H    0.152757
    16  H    0.150110
    17  H    0.152627
    18  H    0.156500
    19  H    0.156642
    20  H    0.162466
    21  C   -0.174061
    22  C   -0.226019
    23  C   -0.171895
    24  C    0.158498
    25  C   -0.170867
    26  C   -0.220580
    27  H    0.233203
    28  H    0.230058
    29  H    0.275629
    30  H    0.275392
    31  H    0.223540
    32  N    0.488060
    33  O   -0.460598
    34  O   -0.460656
 Sum of Mulliken charges =  -0.00000

 Dipole moment (field-independent basis, Debye):
    X=             -4.3361    Y=              2.9629    Z=             -1.3110  Tot=              5.4128
 Quadrupole moment (field-independent basis, Debye-Ang):
   XX=           -120.3118   YY=            -93.7057   ZZ=            -94.6201
   XY=             12.8525   XZ=             -5.0065   YZ=             -1.0482

 Normal termination of Gaussian 16 at Wed May  5 23:34:24 2021.
