 Gaussian 16, Revision A.03,
 Gaussian 16:  EM64L-G16RevA.03 25-Dec-2016

 -------------
 #p 6-31g* mp2
 -------------

 ------------------------------------------------------
 Input file generated by CHIRIPA (05-May-2021 14:57:24)
 ------------------------------------------------------
 Symbolic Z-matrix:
 Charge =  0 Multiplicity = 1

                         Standard orientation:
 ---------------------------------------------------------------------
 Center     Atomic      Atomic             Coordinates (Angstroms)
 Number     Number       Type             X           Y           Z
 ---------------------------------------------------------------------
      1          6           0       -1.492950   -1.764995    0.865280
      2          6           0       -2.260434   -1.053803    1.793556
      3          6           0       -3.289474   -0.209594    1.365846
      4          6           0       -3.524713   -0.099776   -0.003787
      5          6           0       -2.777480   -0.795185   -0.953176
      6          6           0       -1.753464   -1.633648   -0.502711
      7          1           0       -0.695519   -2.418564    1.206374
      8          1           0       -2.060365   -1.153862    2.856573
      9          1           0       -3.899014    0.352607    2.062845
     10          1           0       -3.000618   -0.674930   -2.006346
     11          1           0       -1.159038   -2.184751   -1.225891
     12          7           0       -4.611452    0.790908   -0.468629
     13          8           0       -4.798690    0.870341   -1.680764
     14          8           0       -5.255424    1.392728    0.387963
     15          6           0        3.523146   -2.251248   -0.381527
     16          6           0        4.681639   -1.470694   -0.309771
     17          6           0        4.595235   -0.085822   -0.138861
     18          6           0        3.328441    0.488052   -0.042980
     19          6           0        2.155799   -0.262680   -0.110807
     20          6           0        2.266139   -1.645818   -0.281991
     21          1           0        3.599565   -3.326377   -0.514401
     22          1           0        5.659181   -1.938167   -0.386767
     23          1           0        5.475860    0.542240   -0.080074
     24          1           0        1.195377    0.231906   -0.030847
     25          1           0        1.364736   -2.249513   -0.337379
     26          7           0        3.224298    1.953236    0.138100
     27          8           0        2.096398    2.434685    0.219863
     28          8           0        4.272543    2.592455    0.194837
 ---------------------------------------------------------------------

 SCF Done:  E(RHF) =  -868.336389423     A.U. after   16 cycles
 E2 =    -0.2601195088D+01 EUMP2 =    -0.87093758451052D+03

 The electronic state is 1-A.
 Alpha  occ. eigenvalues --  -20.61146 -20.61140 -20.61031 -20.61022 -15.86207
 Alpha  occ. eigenvalues --  -15.86091 -11.31715 -11.31673 -11.28326 -11.28318
 Alpha  occ. eigenvalues --  -11.28308 -11.28228 -11.28178 -11.28155 -11.27490
 Alpha  occ. eigenvalues --  -11.27480 -11.27336 -11.27311  -1.60220  -1.60097
 Alpha  occ. eigenvalues --   -1.39769  -1.39645  -1.19941  -1.19889  -1.09322
 Alpha  occ. eigenvalues --   -1.09270  -1.05391  -1.05304  -0.96108  -0.96061
 Alpha  occ. eigenvalues --   -0.86815  -0.86694  -0.82964  -0.82863  -0.77993
 Alpha  occ. eigenvalues --   -0.77837  -0.72421  -0.72311  -0.71549  -0.71418
 Alpha  occ. eigenvalues --   -0.71099  -0.71007  -0.65700  -0.65583  -0.65502
 Alpha  occ. eigenvalues --   -0.65158  -0.62801  -0.62546  -0.55959  -0.55833
 Alpha  occ. eigenvalues --   -0.53693  -0.53621  -0.53532  -0.53354  -0.49195
 Alpha  occ. eigenvalues --   -0.49164  -0.49086  -0.49046  -0.45142  -0.45002
 Alpha  occ. eigenvalues --   -0.37944  -0.37928  -0.37008  -0.36875
 Alpha virt. eigenvalues --    0.04499   0.04746   0.10606   0.10634   0.15813
 Alpha virt. eigenvalues --    0.16233   0.18689   0.22008   0.25125   0.27129
 Alpha virt. eigenvalues --    0.27718   0.28603   0.30161   0.30927   0.31708

 Mulliken charges:
               1
     1  C   -0.176749
     2  C   -0.216831
     3  C   -0.168066
     4  C    0.160265
     5  C   -0.168353
     6  C   -0.224652
     7  H    0.221735
     8  H    0.227030
     9  H    0.279321
    10  H    0.278446
    11  H    0.219196
    12  N    0.488259
    13  O   -0.458551
    14  O   -0.457470
    15  C   -0.170639
    16  C   -0.218816
    17  C   -0.169190
    18  C    0.159038
    19  C   -0.173457
    20  C   -0.223829
    21  H    0.225703
    22  H    0.225352
    23  H    0.277774
    24  H    0.280585
    25  H    0.213098
    26  N    0.487899
    27  O   -0.458036
    28  O   -0.459062
 Sum of Mulliken charges =  -0.00000

 Dipole moment (field-independent basis, Debye):
    X=              4.0382    Y=             -8.0361    Z=              1.0644  Tot=              9.0564
 Quadrupole moment (field-independent basis, Debye-Ang):
   XX=           -123.1188   YY=           -110.6219   ZZ=           -100.9586
   XY=             -6.3519   XZ=             -9.3632   YZ=              1.0362

 Normal termination of Gaussian 16 at Fri May  7 04:56:48 2021.
