 Gaussian 16, Revision A.03,
 Gaussian 16:  EM64L-G16RevA.03 25-Dec-2016

 -------------
 #p 6-31g* mp2
 -------------

 ------------------------------------------------------
 Input file generated by CHIRIPA (05-May-2021 14:55:23)
 ------------------------------------------------------
 Symbolic Z-matrix:
 Charge =  0 Multiplicity = 1

                         Standard orientation:
 ---------------------------------------------------------------------
 Center     Atomic      Atomic             Coordinates (Angstroms)
 Number     Number       Type             X           Y           Z
 ---------------------------------------------------------------------
      1          6           0        1.299631    2.846632   -0.555716
      2          6           0        2.147689    2.099492   -1.379791
      3          6           0        2.606930    0.843150   -0.973279
      4          6           0        2.196402    0.362337    0.269128
      5          6           0        1.352235    1.082822    1.112677
      6          6           0        0.905306    2.336812    0.685699
      7          1           0        0.947664    3.821676   -0.879454
      8          1           0        2.455560    2.492915   -2.344404
      9          1           0        3.264152    0.243640   -1.591394
     10          1           0        1.062537    0.664192    2.068837
     11          1           0        0.246764    2.914840    1.327767
     12          7           0        2.676063   -0.966451    0.710317
     13          8           0        2.299864   -1.367720    1.809450
     14          8           0        3.419138   -1.581524   -0.051366
     15          6           0       -2.257480   -1.341217   -0.103295
     16          6           0       -1.199712   -1.582174   -1.180816
     17          6           0       -0.301738   -2.780094   -0.870289
     18          1           0       -1.758572   -1.186512    0.863194
     19          1           0       -2.873800   -2.244544    0.004150
     20          1           0       -0.586452   -0.678174   -1.287168
     21          1           0       -1.701189   -1.736134   -2.144887
     22          1           0       -0.896384   -3.695322   -0.784540
     23          1           0        0.224686   -2.631352    0.078054
     24          1           0        0.447103   -2.934185   -1.653458
     25          6           0       -3.162932   -0.147008   -0.399527
     26          6           0       -4.220700    0.093950    0.677993
     27          6           0       -5.118674    1.291869    0.367467
     28          1           0       -2.546613    0.756320   -0.506972
     29          1           0       -3.661839   -0.301714   -1.366017
     30          1           0       -3.719223    0.247909    1.642065
     31          1           0       -4.833960   -0.810051    0.784346
     32          1           0       -5.645099    1.143127   -0.580876
     33          1           0       -4.524027    2.207098    0.281717
     34          1           0       -5.867515    1.445960    1.150636
 ---------------------------------------------------------------------

 SCF Done:  E(RHF) =  -669.536249745     A.U. after   15 cycles
 E2 =    -0.2093418667D+01 EUMP2 =    -0.67162966841203D+03

 The electronic state is 1-A.
 Alpha  occ. eigenvalues --  -20.60927 -20.60907 -15.85941 -11.31311 -11.27885
 Alpha  occ. eigenvalues --  -11.27875 -11.27620 -11.26901 -11.26885 -11.21742
 Alpha  occ. eigenvalues --  -11.21439 -11.21327 -11.21305 -11.21232 -11.20465
 Alpha  occ. eigenvalues --   -1.59977  -1.39532  -1.19487  -1.08879  -1.08382
 Alpha  occ. eigenvalues --   -1.04886  -1.03436  -0.95869  -0.95714  -0.86876
 Alpha  occ. eigenvalues --   -0.86281  -0.82546  -0.79511  -0.78175  -0.77595
 Alpha  occ. eigenvalues --   -0.72169  -0.71320  -0.70586  -0.65138  -0.65024
 Alpha  occ. eigenvalues --   -0.64883  -0.62230  -0.60841  -0.59261  -0.57473
 Alpha  occ. eigenvalues --   -0.55383  -0.55157  -0.53224  -0.52974  -0.52537
 Alpha  occ. eigenvalues --   -0.52278  -0.49810  -0.48931  -0.48925  -0.47813
 Alpha  occ. eigenvalues --   -0.46565  -0.45715  -0.45635  -0.44891  -0.43676
 Alpha  occ. eigenvalues --   -0.37446  -0.36481
 Alpha virt. eigenvalues --    0.04910   0.11122   0.16387   0.21153   0.22724
 Alpha virt. eigenvalues --    0.24180   0.26330   0.27130   0.27460   0.28119
 Alpha virt. eigenvalues --    0.28441   0.30727   0.31522   0.31753   0.31981

 Mulliken charges:
               1
     1  C   -0.170864
     2  C   -0.218170
     3  C   -0.171379
     4  C    0.159976
     5  C   -0.171993
     6  C   -0.218578
     7  H    0.226382
     8  H    0.224228
     9  H    0.276239
    10  H    0.275887
    11  H    0.224131
    12  N    0.488683
    13  O   -0.460329
    14  O   -0.457692
    15  C   -0.297346
    16  C   -0.303674
    17  C   -0.484541
    18  H    0.149383
    19  H    0.150777
    20  H    0.150666
    21  H    0.149516
    22  H    0.155071
    23  H    0.166718
    24  H    0.163200
    25  C   -0.298124
    26  C   -0.299228
    27  C   -0.474909
    28  H    0.145443
    29  H    0.149524
    30  H    0.149643
    31  H    0.153983
    32  H    0.156014
    33  H    0.150769
    34  H    0.160597
 Sum of Mulliken charges =  -0.00000

 Dipole moment (field-independent basis, Debye):
    X=             -1.5341    Y=              4.6333    Z=             -1.5414  Tot=              5.1183
 Quadrupole moment (field-independent basis, Debye-Ang):
   XX=           -101.5983   YY=            -92.0233   ZZ=            -92.0031
   XY=             10.5406   XZ=             -6.2771   YZ=              1.4274

 Normal termination of Gaussian 16 at Wed May  5 17:34:51 2021.
