 Gaussian 16, Revision A.03,
 Gaussian 16:  EM64L-G16RevA.03 25-Dec-2016

 -------------
 #p 6-31g* mp2
 -------------

 ------------------------------------------------------
 Input file generated by CHIRIPA (05-May-2021 14:51:11)
 ------------------------------------------------------
 Symbolic Z-matrix:
 Charge =  0 Multiplicity = 1

                         Standard orientation:
 ---------------------------------------------------------------------
 Center     Atomic      Atomic             Coordinates (Angstroms)
 Number     Number       Type             X           Y           Z
 ---------------------------------------------------------------------
      1          6           0        3.158860   -0.742801    0.434254
      2          6           0        1.934173   -1.141394    1.258421
      3          6           0        1.843082   -2.649959    1.490217
      4          1           0        3.126924   -1.262580   -0.533090
      5          1           0        4.066243   -1.091432    0.946609
      6          1           0        1.029443   -0.790903    0.745356
      7          1           0        1.968930   -0.620458    2.223839
      8          1           0        2.728378   -3.012015    2.022916
      9          1           0        1.783552   -3.183428    0.536033
     10          1           0        0.960322   -2.912710    2.081449
     11          6           0        3.263778    0.762203    0.194083
     12          6           0        4.488465    1.160796   -0.630084
     13          6           0        4.579555    2.669360   -0.861880
     14          1           0        2.356394    1.110834   -0.318272
     15          1           0        3.295714    1.281982    1.161427
     16          1           0        4.453708    0.639859   -1.595502
     17          1           0        5.393195    0.810305   -0.117019
     18          1           0        4.639085    3.202830    0.092305
     19          1           0        3.694260    3.031416   -1.394579
     20          1           0        5.462316    2.932112   -1.453112
     21          6           0       -3.170626   -0.745148   -0.516389
     22          6           0       -1.829290   -1.128591   -1.142308
     23          6           0       -1.763232   -2.603037   -1.541604
     24          1           0       -3.349103   -1.373972    0.366602
     25          1           0       -3.977039   -0.969700   -1.228197
     26          1           0       -1.025531   -0.902098   -0.430066
     27          1           0       -1.653896   -0.498650   -2.023800
     28          1           0       -2.544677   -2.840052   -2.270829
     29          1           0       -1.912741   -3.245792   -0.668040
     30          1           0       -0.795830   -2.855416   -1.986913
     31          6           0       -3.252012    0.725747   -0.111949
     32          6           0       -4.593348    1.109189    0.513971
     33          6           0       -4.659406    2.583636    0.913267
     34          1           0       -2.445599    0.950297    0.599860
     35          1           0       -3.073535    1.354571   -0.994938
     36          1           0       -4.768740    0.479248    1.395463
     37          1           0       -5.397106    0.882697   -0.198271
     38          1           0       -4.509897    3.226391    0.039702
     39          1           0       -3.877960    2.820650    1.642491
     40          1           0       -5.626807    2.836015    1.358575
 ---------------------------------------------------------------------

 SCF Done:  E(RHF) =  -470.733379308     A.U. after   11 cycles
 E2 =    -0.1582901117D+01 EUMP2 =    -0.47231628042470D+03

 The electronic state is 1-A.
 Alpha  occ. eigenvalues --  -11.21623 -11.21611 -11.21609 -11.21600 -11.21422
 Alpha  occ. eigenvalues --  -11.21408 -11.21363 -11.21348 -11.21097 -11.21086
 Alpha  occ. eigenvalues --  -11.21075 -11.21067  -1.08457  -1.08428  -1.03568
 Alpha  occ. eigenvalues --   -1.03517  -0.96002  -0.95974  -0.87019  -0.86990
 Alpha  occ. eigenvalues --   -0.79675  -0.79547  -0.78308  -0.78205  -0.65180
 Alpha  occ. eigenvalues --   -0.64981  -0.61115  -0.60783  -0.59385  -0.59325
 Alpha  occ. eigenvalues --   -0.57618  -0.57582  -0.55333  -0.55209  -0.52694
 Alpha  occ. eigenvalues --   -0.52675  -0.52420  -0.52407  -0.50014  -0.49862
 Alpha  occ. eigenvalues --   -0.48056  -0.47850  -0.46900  -0.46448  -0.45946
 Alpha  occ. eigenvalues --   -0.45776  -0.45763  -0.45393  -0.43802  -0.43786
 Alpha virt. eigenvalues --    0.20692   0.23204   0.23670   0.25178   0.25415
 Alpha virt. eigenvalues --    0.26823   0.26959   0.27719   0.28596   0.28711
 Alpha virt. eigenvalues --    0.30694   0.30810   0.31579   0.31874   0.32479

 Mulliken charges:
               1
     1  C   -0.297530
     2  C   -0.308707
     3  C   -0.475363
     4  H    0.149632
     5  H    0.149577
     6  H    0.159429
     7  H    0.151884
     8  H    0.155323
     9  H    0.155906
    10  H    0.159664
    11  C   -0.298585
    12  C   -0.299659
    13  C   -0.475737
    14  H    0.149913
    15  H    0.149547
    16  H    0.151976
    17  H    0.151899
    18  H    0.155152
    19  H    0.155305
    20  H    0.160232
    21  C   -0.297463
    22  C   -0.309382
    23  C   -0.475025
    24  H    0.149719
    25  H    0.149641
    26  H    0.160369
    27  H    0.151639
    28  H    0.155301
    29  H    0.155791
    30  H    0.159622
    31  C   -0.298546
    32  C   -0.299662
    33  C   -0.475754
    34  H    0.149590
    35  H    0.149548
    36  H    0.152015
    37  H    0.151959
    38  H    0.155158
    39  H    0.155336
    40  H    0.160284
 Sum of Mulliken charges =  -0.00000

 Dipole moment (field-independent basis, Debye):
    X=             -0.0049    Y=             -0.0030    Z=              0.0006  Tot=              0.0057
 Quadrupole moment (field-independent basis, Debye-Ang):
   XX=            -84.4327   YY=            -86.9358   ZZ=            -83.3697
   XY=             -0.0365   XZ=              0.9214   YZ=             -0.2217

 Normal termination of Gaussian 16 at Wed May  5 16:46:21 2021.
