 Gaussian 16, Revision A.03,
 Gaussian 16:  EM64L-G16RevA.03 25-Dec-2016

 -------------
 #p 6-31g* mp2
 -------------

 ------------------------------------------------------
 Input file generated by CHIRIPA (05-May-2021 14:55:23)
 ------------------------------------------------------
 Symbolic Z-matrix:
 Charge =  0 Multiplicity = 1

                         Standard orientation:
 ---------------------------------------------------------------------
 Center     Atomic      Atomic             Coordinates (Angstroms)
 Number     Number       Type             X           Y           Z
 ---------------------------------------------------------------------
      1          6           0       -3.096042    2.008308    1.137341
      2          6           0       -1.945097    1.341642    1.570242
      3          6           0       -1.528929    0.163353    0.943355
      4          6           0       -2.290918   -0.322316   -0.118148
      5          6           0       -3.442229    0.319003   -0.572552
      6          6           0       -3.839624    1.495764    0.069209
      7          1           0       -3.412040    2.923039    1.630099
      8          1           0       -1.365667    1.737379    2.399517
      9          1           0       -0.641962   -0.372961    1.258115
     10          1           0       -3.999232   -0.099843   -1.401849
     11          1           0       -4.733888    2.011388   -0.269123
     12          7           0       -1.860276   -1.568909   -0.789678
     13          8           0       -2.548982   -1.976222   -1.722640
     14          8           0       -0.842188   -2.115072   -0.370347
     15          6           0        2.689000   -0.379246    0.447818
     16          6           0        3.316481   -1.766682    0.308994
     17          6           0        2.636995   -2.813822    1.191938
     18          1           0        2.740676   -0.063942    1.498941
     19          1           0        1.622160   -0.439670    0.191702
     20          1           0        4.382128   -1.703386    0.563959
     21          1           0        3.263478   -2.078638   -0.741954
     22          1           0        1.577112   -2.906324    0.933689
     23          1           0        2.702117   -2.528939    2.247022
     24          1           0        3.101344   -3.798218    1.077041
     25          6           0        3.357444    0.678413   -0.428690
     26          6           0        2.729963    2.065849   -0.289866
     27          6           0        3.409450    3.112989   -1.172810
     28          1           0        4.424285    0.738837   -0.172575
     29          1           0        3.305770    0.363109   -1.479813
     30          1           0        2.782966    2.377805    0.761082
     31          1           0        1.664317    2.002552   -0.544831
     32          1           0        3.344328    2.828107   -2.227895
     33          1           0        4.469333    3.205492   -0.914561
     34          1           0        2.945101    4.097386   -1.057912
 ---------------------------------------------------------------------

 SCF Done:  E(RHF) =  -669.536308202     A.U. after   15 cycles
 E2 =    -0.2092780495D+01 EUMP2 =    -0.67162908869664D+03

 The electronic state is 1-A.
 Alpha  occ. eigenvalues --  -20.61006 -20.60986 -15.86029 -11.31290 -11.27852
 Alpha  occ. eigenvalues --  -11.27818 -11.27577 -11.26852 -11.26833 -11.21609
 Alpha  occ. eigenvalues --  -11.21179 -11.21082 -11.21059 -11.20974 -11.20174
 Alpha  occ. eigenvalues --   -1.60056  -1.39615  -1.19456  -1.08871  -1.08145
 Alpha  occ. eigenvalues --   -1.04841  -1.03172  -0.95724  -0.95616  -0.86642
 Alpha  occ. eigenvalues --   -0.86245  -0.82560  -0.79284  -0.78044  -0.77550
 Alpha  occ. eigenvalues --   -0.72263  -0.71364  -0.70566  -0.65125  -0.64897
 Alpha  occ. eigenvalues --   -0.64698  -0.62193  -0.60536  -0.59037  -0.57236
 Alpha  occ. eigenvalues --   -0.55356  -0.54873  -0.53179  -0.52946  -0.52314
 Alpha  occ. eigenvalues --   -0.52041  -0.49560  -0.49037  -0.48980  -0.47576
 Alpha  occ. eigenvalues --   -0.46302  -0.45512  -0.45434  -0.44902  -0.43452
 Alpha  occ. eigenvalues --   -0.37434  -0.36430
 Alpha virt. eigenvalues --    0.04865   0.11142   0.16392   0.20954   0.23224
 Alpha virt. eigenvalues --    0.24302   0.26138   0.26979   0.27738   0.28326
 Alpha virt. eigenvalues --    0.29236   0.30684   0.31613   0.31955   0.32381

 Mulliken charges:
               1
     1  C   -0.170447
     2  C   -0.219603
     3  C   -0.172315
     4  C    0.156178
     5  C   -0.170752
     6  C   -0.218564
     7  H    0.226088
     8  H    0.224872
     9  H    0.281392
    10  H    0.275648
    11  H    0.223802
    12  N    0.496027
    13  O   -0.458180
    14  O   -0.469580
    15  C   -0.308319
    16  C   -0.295771
    17  C   -0.488678
    18  H    0.141207
    19  H    0.159265
    20  H    0.147643
    21  H    0.156785
    22  H    0.181802
    23  H    0.145806
    24  H    0.158847
    25  C   -0.297457
    26  C   -0.300109
    27  C   -0.475237
    28  H    0.148993
    29  H    0.152943
    30  H    0.147153
    31  H    0.150368
    32  H    0.156930
    33  H    0.155551
    34  H    0.157710
 Sum of Mulliken charges =  -0.00000

 Dipole moment (field-independent basis, Debye):
    X=             -1.7142    Y=              4.2782    Z=              2.2336  Tot=              5.1216
 Quadrupole moment (field-independent basis, Debye-Ang):
   XX=            -85.1333   YY=            -98.8924   ZZ=            -93.7842
   XY=            -10.3488   XZ=             -2.2421   YZ=             -0.5507

 Normal termination of Gaussian 16 at Thu May  6 20:51:30 2021.
