 Gaussian 16, Revision A.03,
 Gaussian 16:  EM64L-G16RevA.03 25-Dec-2016

 -------------
 #p 6-31g* mp2
 -------------

 ------------------------------------------------------
 Input file generated by CHIRIPA (05-May-2021 14:57:25)
 ------------------------------------------------------
 Symbolic Z-matrix:
 Charge =  0 Multiplicity = 1

                         Standard orientation:
 ---------------------------------------------------------------------
 Center     Atomic      Atomic             Coordinates (Angstroms)
 Number     Number       Type             X           Y           Z
 ---------------------------------------------------------------------
      1          6           0        4.131118    2.332933   -0.010496
      2          6           0        2.773264    2.181593   -0.310249
      3          6           0        2.215114    0.907636   -0.451851
      4          6           0        3.047651   -0.198144   -0.286253
      5          6           0        4.404105   -0.080006    0.012690
      6          6           0        4.940777    1.203641    0.149734
      7          1           0        4.556359    3.326337    0.097733
      8          1           0        2.142081    3.056825   -0.435237
      9          1           0        1.167078    0.761668   -0.683653
     10          1           0        5.008104   -0.971349    0.131478
     11          1           0        5.995636    1.318155    0.382553
     12          7           0        2.468132   -1.551954   -0.433748
     13          8           0        3.222870   -2.510217   -0.282953
     14          8           0        1.270140   -1.629173   -0.697356
     15          6           0       -1.249172   -1.082967    1.550115
     16          6           0       -1.916961   -1.812975    0.561344
     17          6           0       -2.967803   -1.236902   -0.158668
     18          6           0       -3.326267    0.077301    0.137408
     19          6           0       -2.680338    0.830451    1.116607
     20          6           0       -1.632317    0.234094    1.824108
     21          1           0       -0.433947   -1.538352    2.104579
     22          1           0       -1.621558   -2.836005    0.346423
     23          1           0       -3.501907   -1.779264   -0.929380
     24          1           0       -2.997491    1.848325    1.308349
     25          1           0       -1.115498    0.803416    2.591451
     26          7           0       -4.437254    0.697901   -0.618214
     27          8           0       -4.733912    1.857348   -0.338372
     28          8           0       -4.990350    0.013127   -1.476006
 ---------------------------------------------------------------------

 SCF Done:  E(RHF) =  -868.339215844     A.U. after   16 cycles
 E2 =    -0.2600345716D+01 EUMP2 =    -0.87093956155939D+03

 The electronic state is 1-A.
 Alpha  occ. eigenvalues --  -20.61567 -20.61562 -20.60409 -20.60386 -15.86584
 Alpha  occ. eigenvalues --  -15.85447 -11.31765 -11.30644 -11.28320 -11.28274
 Alpha  occ. eigenvalues --  -11.28016 -11.27282 -11.27274 -11.27258 -11.27084
 Alpha  occ. eigenvalues --  -11.26824 -11.26262 -11.25961  -1.60646  -1.59481
 Alpha  occ. eigenvalues --   -1.40199  -1.39039  -1.19924  -1.18789  -1.09357
 Alpha  occ. eigenvalues --   -1.08192  -1.05288  -1.04159  -0.96221  -0.95063
 Alpha  occ. eigenvalues --   -0.86693  -0.85550  -0.83049  -0.81903  -0.78121
 Alpha  occ. eigenvalues --   -0.76988  -0.72829  -0.71980  -0.71666  -0.71012
 Alpha  occ. eigenvalues --   -0.70807  -0.69854  -0.65572  -0.65278  -0.64424
 Alpha  occ. eigenvalues --   -0.64128  -0.62625  -0.61507  -0.55792  -0.54620
 Alpha  occ. eigenvalues --   -0.53644  -0.53371  -0.52499  -0.52230  -0.49586
 Alpha  occ. eigenvalues --   -0.49564  -0.48434  -0.48407  -0.45649  -0.44483
 Alpha  occ. eigenvalues --   -0.37906  -0.36911  -0.36653  -0.35739
 Alpha virt. eigenvalues --    0.04333   0.05568   0.10741   0.11915   0.15888
 Alpha virt. eigenvalues --    0.17135   0.20961   0.22064   0.26880   0.27815
 Alpha virt. eigenvalues --    0.27995   0.28871   0.30530   0.31610   0.31984

 Mulliken charges:
               1
     1  C   -0.170182
     2  C   -0.219943
     3  C   -0.173603
     4  C    0.155231
     5  C   -0.171120
     6  C   -0.218873
     7  H    0.227739
     8  H    0.226258
     9  H    0.280103
    10  H    0.275934
    11  H    0.225049
    12  N    0.488190
    13  O   -0.459625
    14  O   -0.464675
    15  C   -0.163556
    16  C   -0.203834
    17  C   -0.174283
    18  C    0.156717
    19  C   -0.176108
    20  C   -0.226403
    21  H    0.226605
    22  H    0.232982
    23  H    0.275077
    24  H    0.270896
    25  H    0.218218
    26  N    0.488092
    27  O   -0.464484
    28  O   -0.460404
 Sum of Mulliken charges =  -0.00000

 Dipole moment (field-independent basis, Debye):
    X=              6.2331    Y=              2.3504    Z=              3.1024  Tot=              7.3485
 Quadrupole moment (field-independent basis, Debye-Ang):
   XX=           -115.6374   YY=           -102.8686   ZZ=           -104.4333
   XY=             21.3133   XZ=             -5.8658   YZ=              0.3124

 Normal termination of Gaussian 16 at Wed May  5 19:30:51 2021.
