 Gaussian 16, Revision A.03,
 Gaussian 16:  EM64L-G16RevA.03 25-Dec-2016

 -------------
 #p 6-31g* mp2
 -------------

 ------------------------------------------------------
 Input file generated by CHIRIPA (05-May-2021 14:51:12)
 ------------------------------------------------------
 Symbolic Z-matrix:
 Charge =  0 Multiplicity = 1

                         Standard orientation:
 ---------------------------------------------------------------------
 Center     Atomic      Atomic             Coordinates (Angstroms)
 Number     Number       Type             X           Y           Z
 ---------------------------------------------------------------------
      1          6           0        3.186315   -0.534414    0.506334
      2          6           0        1.713516   -0.128537    0.442210
      3          6           0        0.788817   -1.152956    1.100460
      4          1           0        3.312527   -1.510885    0.018974
      5          1           0        3.476703   -0.669805    1.557400
      6          1           0        1.426362    0.007395   -0.608352
      7          1           0        1.590828    0.847170    0.929611
      8          1           0        1.047181   -1.282639    2.156411
      9          1           0        0.881781   -2.127185    0.609710
     10          1           0       -0.259249   -0.842887    1.043230
     11          6           0        4.123199    0.479675   -0.147578
     12          6           0        5.595999    0.073799   -0.083454
     13          6           0        6.520697    1.098217   -0.741703
     14          1           0        3.832812    0.615066   -1.198643
     15          1           0        3.996987    1.456146    0.339782
     16          1           0        5.718687   -0.901909   -0.570854
     17          1           0        5.883153   -0.062133    0.967108
     18          1           0        6.427734    2.072447   -0.250953
     19          1           0        6.262334    1.227900   -1.797654
     20          1           0        7.568763    0.788149   -0.684474
     21          6           0       -3.832912    0.627794    0.257866
     22          6           0       -4.045914    1.915737   -0.538262
     23          6           0       -4.401673    3.108022    0.350380
     24          1           0       -4.743949    0.402350    0.828947
     25          1           0       -3.033804    0.788398    0.994770
     26          1           0       -4.843436    1.752328   -1.274382
     27          1           0       -3.134332    2.138037   -1.107664
     28          1           0       -3.604255    3.299372    1.075717
     29          1           0       -5.323070    2.911471    0.908050
     30          1           0       -4.549561    4.018171   -0.239210
     31          6           0       -3.476602   -0.573056   -0.616623
     32          6           0       -3.263601   -1.860998    0.179505
     33          6           0       -2.907842   -3.053284   -0.709137
     34          1           0       -4.275710   -0.733659   -1.353527
     35          1           0       -2.565566   -0.347612   -1.187704
     36          1           0       -4.175182   -2.083299    0.748907
     37          1           0       -2.466079   -1.697590    0.915625
     38          1           0       -1.986445   -2.856733   -1.266808
     39          1           0       -3.705259   -3.244633   -1.434474
     40          1           0       -2.759954   -3.963432   -0.119546
 ---------------------------------------------------------------------

 SCF Done:  E(RHF) =  -470.733258061     A.U. after   11 cycles
 E2 =    -0.1582773507D+01 EUMP2 =    -0.47231603156769D+03

 The electronic state is 1-A.
 Alpha  occ. eigenvalues --  -11.21667 -11.21626 -11.21598 -11.21540 -11.21444
 Alpha  occ. eigenvalues --  -11.21400 -11.21384 -11.21338 -11.21128 -11.21091
 Alpha  occ. eigenvalues --  -11.21067 -11.21030  -1.08474  -1.08416  -1.03583
 Alpha  occ. eigenvalues --   -1.03499  -0.96027  -0.95957  -0.87050  -0.86970
 Alpha  occ. eigenvalues --   -0.79660  -0.79552  -0.78285  -0.78229  -0.65116
 Alpha  occ. eigenvalues --   -0.65062  -0.61022  -0.60907  -0.59401  -0.59289
 Alpha  occ. eigenvalues --   -0.57633  -0.57565  -0.55336  -0.55218  -0.52760
 Alpha  occ. eigenvalues --   -0.52636  -0.52451  -0.52378  -0.49964  -0.49892
 Alpha  occ. eigenvalues --   -0.47990  -0.47860  -0.46668  -0.46600  -0.45826
 Alpha  occ. eigenvalues --   -0.45770  -0.45751  -0.45699  -0.43794  -0.43745
 Alpha virt. eigenvalues --    0.20463   0.23047   0.23928   0.25102   0.25973
 Alpha virt. eigenvalues --    0.26508   0.27229   0.27252   0.27938   0.28890
 Alpha virt. eigenvalues --    0.30989   0.31296   0.31762   0.31937   0.32055

 Mulliken charges:
               1
     1  C   -0.298631
     2  C   -0.299286
     3  C   -0.482486
     4  H    0.149846
     5  H    0.149710
     6  H    0.151576
     7  H    0.151858
     8  H    0.155606
     9  H    0.156161
    10  H    0.165958
    11  C   -0.298278
    12  C   -0.299673
    13  C   -0.475730
    14  H    0.149541
    15  H    0.149679
    16  H    0.152030
    17  H    0.151994
    18  H    0.155208
    19  H    0.155220
    20  H    0.160357
    21  C   -0.299055
    22  C   -0.299613
    23  C   -0.475708
    24  H    0.149906
    25  H    0.149244
    26  H    0.151980
    27  H    0.152085
    28  H    0.155179
    29  H    0.155172
    30  H    0.160252
    31  C   -0.298932
    32  C   -0.304640
    33  C   -0.475572
    34  H    0.149686
    35  H    0.149781
    36  H    0.151900
    37  H    0.157219
    38  H    0.155361
    39  H    0.154826
    40  H    0.160271
 Sum of Mulliken charges =  -0.00000

 Dipole moment (field-independent basis, Debye):
    X=              0.0197    Y=             -0.0052    Z=              0.0085  Tot=              0.0221
 Quadrupole moment (field-independent basis, Debye-Ang):
   XX=            -84.4836   YY=            -85.8342   ZZ=            -84.4165
   XY=             -0.0082   XZ=              0.6601   YZ=              0.2489

 Normal termination of Gaussian 16 at Thu May  6 05:29:52 2021.
