 Gaussian 16, Revision A.03,
 Gaussian 16:  EM64L-G16RevA.03 25-Dec-2016

 -------------
 #p 6-31g* mp2
 -------------

 ------------------------------------------------------
 Input file generated by CHIRIPA (05-May-2021 14:57:23)
 ------------------------------------------------------
 Symbolic Z-matrix:
 Charge =  0 Multiplicity = 1

                         Standard orientation:
 ---------------------------------------------------------------------
 Center     Atomic      Atomic             Coordinates (Angstroms)
 Number     Number       Type             X           Y           Z
 ---------------------------------------------------------------------
      1          6           0       -3.350922    2.443573    0.183459
      2          6           0       -2.365821    1.527241    0.566124
      3          6           0       -2.572919    0.153918    0.405999
      4          6           0       -3.782284   -0.270079   -0.142594
      5          6           0       -4.783061    0.618127   -0.533521
      6          6           0       -4.554277    1.986896   -0.364177
      7          1           0       -3.181620    3.508634    0.311429
      8          1           0       -1.430314    1.879035    0.991700
      9          1           0       -1.827313   -0.577320    0.693714
     10          1           0       -5.705453    0.237229   -0.954862
     11          1           0       -5.321105    2.696241   -0.662254
     12          7           0       -4.013009   -1.721545   -0.316991
     13          8           0       -5.087044   -2.069579   -0.802744
     14          8           0       -3.115446   -2.483685    0.035372
     15          6           0        1.767141    0.249988    1.665919
     16          6           0        2.792099   -0.654823    1.961381
     17          6           0        3.892311   -0.784602    1.108598
     18          6           0        3.935398    0.009676   -0.036197
     19          6           0        2.930010    0.920158   -0.357924
     20          6           0        1.839241    1.033210    0.509249
     21          1           0        0.916137    0.344306    2.333971
     22          1           0        2.738765   -1.264372    2.858962
     23          1           0        4.699746   -1.477138    1.313201
     24          1           0        3.011193    1.514207   -1.260106
     25          1           0        1.044705    1.736730    0.277260
     26          7           0        5.095145   -0.118861   -0.946618
     27          8           0        5.109451    0.592364   -1.948911
     28          8           0        5.967890   -0.928399   -0.640672
 ---------------------------------------------------------------------

 SCF Done:  E(RHF) =  -868.336503446     A.U. after   16 cycles
 E2 =    -0.2600111457D+01 EUMP2 =    -0.87093661490301D+03

 The electronic state is 1-A.
 Alpha  occ. eigenvalues --  -20.61322 -20.61313 -20.61058 -20.61050 -15.86383
 Alpha  occ. eigenvalues --  -15.86115 -11.31887 -11.31616 -11.28562 -11.28454
 Alpha  occ. eigenvalues --  -11.28282 -11.28232 -11.28160 -11.28073 -11.27674
 Alpha  occ. eigenvalues --  -11.27464 -11.27381 -11.27222  -1.60393  -1.60128
 Alpha  occ. eigenvalues --   -1.39944  -1.39678  -1.20095  -1.19815  -1.09460
 Alpha  occ. eigenvalues --   -1.09211  -1.05542  -1.05236  -0.96265  -0.96015
 Alpha  occ. eigenvalues --   -0.86939  -0.86647  -0.83113  -0.82839  -0.78147
 Alpha  occ. eigenvalues --   -0.77836  -0.72598  -0.72335  -0.71719  -0.71450
 Alpha  occ. eigenvalues --   -0.71202  -0.70968  -0.65763  -0.65710  -0.65474
 Alpha  occ. eigenvalues --   -0.65183  -0.62933  -0.62521  -0.56018  -0.55812
 Alpha  occ. eigenvalues --   -0.53841  -0.53711  -0.53548  -0.53280  -0.49369
 Alpha  occ. eigenvalues --   -0.49343  -0.49104  -0.49077  -0.45318  -0.45053
 Alpha  occ. eigenvalues --   -0.38070  -0.37838  -0.37146  -0.36812
 Alpha virt. eigenvalues --    0.04430   0.04681   0.10467   0.10787   0.15825
 Alpha virt. eigenvalues --    0.16081   0.17700   0.22133   0.24803   0.26364
 Alpha virt. eigenvalues --    0.27847   0.29071   0.30118   0.31025   0.31950

 Mulliken charges:
               1
     1  C   -0.170181
     2  C   -0.222301
     3  C   -0.170607
     4  C    0.159155
     5  C   -0.168996
     6  C   -0.218360
     7  H    0.227198
     8  H    0.214475
     9  H    0.274330
    10  H    0.278385
    11  H    0.226392
    12  N    0.488147
    13  O   -0.457927
    14  O   -0.459761
    15  C   -0.173992
    16  C   -0.216529
    17  C   -0.169549
    18  C    0.159775
    19  C   -0.169339
    20  C   -0.220162
    21  H    0.220533
    22  H    0.226816
    23  H    0.278227
    24  H    0.277036
    25  H    0.217005
    26  N    0.487969
    27  O   -0.459471
    28  O   -0.458270
 Sum of Mulliken charges =  -0.00000

 Dipole moment (field-independent basis, Debye):
    X=             -3.2921    Y=              5.4338    Z=              3.7241  Tot=              7.3643
 Quadrupole moment (field-independent basis, Debye-Ang):
   XX=           -136.9128   YY=           -105.9073   ZZ=           -103.8539
   XY=            -20.8772   XZ=             14.0439   YZ=             -3.9788

 Normal termination of Gaussian 16 at Thu May  6 17:59:17 2021.
