 Gaussian 16, Revision A.03,
 Gaussian 16:  EM64L-G16RevA.03 25-Dec-2016

 -------------
 #p 6-31g* mp2
 -------------

 ------------------------------------------------------
 Input file generated by CHIRIPA (05-May-2021 14:51:08)
 ------------------------------------------------------
 Symbolic Z-matrix:
 Charge =  0 Multiplicity = 1

                         Standard orientation:
 ---------------------------------------------------------------------
 Center     Atomic      Atomic             Coordinates (Angstroms)
 Number     Number       Type             X           Y           Z
 ---------------------------------------------------------------------
      1          6           0       -3.292423   -0.946710   -0.432453
      2          6           0       -1.888045   -1.149962    0.137105
      3          6           0       -0.992794   -1.983077   -0.780631
      4          1           0       -3.755713   -1.927373   -0.607406
      5          1           0       -3.215446   -0.457887   -1.413535
      6          1           0       -1.967719   -1.637006    1.117439
      7          1           0       -1.428116   -0.168699    0.310901
      8          1           0       -0.883644   -1.498215   -1.756129
      9          1           0       -1.426312   -2.974864   -0.945008
     10          1           0        0.006358   -2.115999   -0.354149
     11          6           0       -4.199220   -0.115759    0.473619
     12          6           0       -5.603597    0.087492   -0.095939
     13          6           0       -6.498849    0.920607    0.821796
     14          1           0       -4.276196   -0.604583    1.454701
     15          1           0       -3.735929    0.864903    0.648572
     16          1           0       -6.063526   -0.893770   -0.269736
     17          1           0       -5.523924    0.574536   -1.076274
     18          1           0       -6.065330    1.912395    0.986173
     19          1           0       -6.607999    0.435745    1.797294
     20          1           0       -7.498001    1.053530    0.395314
     21          6           0        3.080082    0.585814   -0.391050
     22          6           0        2.325058    1.881732   -0.093529
     23          6           0        0.995163    1.976249   -0.842022
     24          1           0        3.260378    0.513961   -1.472380
     25          1           0        2.445452   -0.270038   -0.122430
     26          1           0        2.961456    2.734898   -0.361338
     27          1           0        2.146708    1.950601    0.987241
     28          1           0        0.338641    1.144238   -0.567542
     29          1           0        1.158018    1.932992   -1.923783
     30          1           0        0.472087    2.910384   -0.614772
     31          6           0        4.411560    0.476656    0.349884
     32          6           0        5.166585   -0.819263    0.052364
     33          6           0        6.496480   -0.913780    0.800856
     34          1           0        5.046190    1.332508    0.081264
     35          1           0        4.231265    0.548509    1.431214
     36          1           0        5.344934   -0.888132   -1.028406
     37          1           0        4.530186   -1.672428    0.320172
     38          1           0        6.333624   -0.870522    1.882617
     39          1           0        7.153001   -0.081769    0.526376
     40          1           0        7.019556   -1.847915    0.573606
 ---------------------------------------------------------------------

 SCF Done:  E(RHF) =  -470.733293578     A.U. after   11 cycles
 E2 =    -0.1582946504D+01 EUMP2 =    -0.47231624008146D+03

 The electronic state is 1-A.
 Alpha  occ. eigenvalues --  -11.21617 -11.21606 -11.21598 -11.21595 -11.21404
 Alpha  occ. eigenvalues --  -11.21403 -11.21344 -11.21343 -11.21096 -11.21068
 Alpha  occ. eigenvalues --  -11.21066 -11.21062  -1.08444  -1.08420  -1.03565
 Alpha  occ. eigenvalues --   -1.03507  -0.96007  -0.95962  -0.87009  -0.86992
 Alpha  occ. eigenvalues --   -0.79633  -0.79566  -0.78262  -0.78225  -0.65145
 Alpha  occ. eigenvalues --   -0.64997  -0.61124  -0.60778  -0.59392  -0.59309
 Alpha  occ. eigenvalues --   -0.57624  -0.57564  -0.55386  -0.55159  -0.52691
 Alpha  occ. eigenvalues --   -0.52672  -0.52442  -0.52371  -0.50009  -0.49864
 Alpha  occ. eigenvalues --   -0.47984  -0.47843  -0.46777  -0.46484  -0.45833
 Alpha  occ. eigenvalues --   -0.45753  -0.45740  -0.45591  -0.43791  -0.43783
 Alpha virt. eigenvalues --    0.20564   0.23043   0.23612   0.24967   0.26025
 Alpha virt. eigenvalues --    0.26320   0.27098   0.27364   0.28099   0.29168
 Alpha virt. eigenvalues --    0.30523   0.31139   0.31542   0.31753   0.32001

 Mulliken charges:
               1
     1  C   -0.297885
     2  C   -0.306322
     3  C   -0.477431
     4  H    0.149683
     5  H    0.150063
     6  H    0.152075
     7  H    0.156680
     8  H    0.156607
     9  H    0.155514
    10  H    0.160740
    11  C   -0.298491
    12  C   -0.299694
    13  C   -0.475725
    14  H    0.149383
    15  H    0.150070
    16  H    0.151885
    17  H    0.152106
    18  H    0.155246
    19  H    0.155114
    20  H    0.160252
    21  C   -0.300059
    22  C   -0.299056
    23  C   -0.484626
    24  H    0.149815
    25  H    0.151129
    26  H    0.151980
    27  H    0.151826
    28  H    0.164266
    29  H    0.155174
    30  H    0.159671
    31  C   -0.298346
    32  C   -0.299600
    33  C   -0.475710
    34  H    0.149575
    35  H    0.149621
    36  H    0.152047
    37  H    0.151803
    38  H    0.155161
    39  H    0.155177
    40  H    0.160282
 Sum of Mulliken charges =  -0.00000

 Dipole moment (field-independent basis, Debye):
    X=             -0.0096    Y=             -0.0077    Z=             -0.0100  Tot=              0.0159
 Quadrupole moment (field-independent basis, Debye-Ang):
   XX=            -86.0235   YY=            -84.2724   ZZ=            -84.4659
   XY=              1.1419   XZ=             -0.5528   YZ=             -0.9749

 Normal termination of Gaussian 16 at Thu May  6 13:12:25 2021.
