 Gaussian 16, Revision A.03,
 Gaussian 16:  EM64L-G16RevA.03 25-Dec-2016

 -------------
 #p 6-31g* mp2
 -------------

 ------------------------------------------------------
 Input file generated by CHIRIPA (05-May-2021 14:55:20)
 ------------------------------------------------------
 Symbolic Z-matrix:
 Charge =  0 Multiplicity = 1

                         Standard orientation:
 ---------------------------------------------------------------------
 Center     Atomic      Atomic             Coordinates (Angstroms)
 Number     Number       Type             X           Y           Z
 ---------------------------------------------------------------------
      1          6           0        0.827362   -0.169758    0.544924
      2          6           0        1.701480    0.529697    1.383495
      3          6           0        3.080748    0.496858    1.157467
      4          6           0        3.553671   -0.248867    0.078797
      5          6           0        2.708270   -0.956338   -0.774474
      6          6           0        1.332657   -0.909240   -0.529490
      7          1           0       -0.242667   -0.138710    0.727871
      8          1           0        1.311884    1.104818    2.218658
      9          1           0        3.779964    1.029012    1.790970
     10          1           0        3.126377   -1.520913   -1.599010
     11          1           0        0.656164   -1.453426   -1.182380
     12          7           0        5.011906   -0.291180   -0.170522
     13          8           0        5.403444   -0.955537   -1.127582
     14          8           0        5.735720    0.340814    0.595842
     15          6           0       -3.497129    0.480106   -0.123128
     16          6           0       -3.164771    1.851356   -0.712361
     17          6           0       -1.672645    2.178065   -0.644442
     18          1           0       -3.159971    0.445646    0.921899
     19          1           0       -2.927307   -0.290235   -0.660967
     20          1           0       -3.736101    2.618744   -0.174482
     21          1           0       -3.502932    1.882621   -1.756049
     22          1           0       -1.089836    1.434073   -1.197082
     23          1           0       -1.324329    2.174378    0.393472
     24          1           0       -1.457444    3.162737   -1.071019
     25          6           0       -4.985011    0.139140   -0.183786
     26          6           0       -5.317368   -1.232110    0.405447
     27          6           0       -6.809496   -1.558818    0.337527
     28          1           0       -5.554834    0.909482    0.354053
     29          1           0       -5.322169    0.173599   -1.228813
     30          1           0       -4.979207   -1.263375    1.449135
     31          1           0       -4.746039   -1.999498   -0.132432
     32          1           0       -7.157810   -1.555132   -0.700386
     33          1           0       -7.392304   -0.814827    0.890168
     34          1           0       -7.024695   -2.543492    0.764104
 ---------------------------------------------------------------------

 SCF Done:  E(RHF) =  -669.534739551     A.U. after   15 cycles
 E2 =    -0.2092322542D+01 EUMP2 =    -0.67162706209324D+03

 The electronic state is 1-A.
 Alpha  occ. eigenvalues --  -20.60694 -20.60689 -15.85750 -11.31087 -11.27692
 Alpha  occ. eigenvalues --  -11.27686 -11.27344 -11.26668 -11.26653 -11.22574
 Alpha  occ. eigenvalues --  -11.22515 -11.22374 -11.22239 -11.22064 -11.21690
 Alpha  occ. eigenvalues --   -1.59771  -1.39326  -1.19274  -1.09382  -1.08664
 Alpha  occ. eigenvalues --   -1.04681  -1.04407  -0.96873  -0.95499  -0.87880
 Alpha  occ. eigenvalues --   -0.86077  -0.82349  -0.80478  -0.79216  -0.77393
 Alpha  occ. eigenvalues --   -0.71968  -0.71096  -0.70376  -0.66005  -0.64925
 Alpha  occ. eigenvalues --   -0.64692  -0.62042  -0.61784  -0.60247  -0.58504
 Alpha  occ. eigenvalues --   -0.56164  -0.55182  -0.53523  -0.53413  -0.52852
 Alpha  occ. eigenvalues --   -0.52773  -0.50809  -0.48780  -0.48724  -0.48696
 Alpha  occ. eigenvalues --   -0.47516  -0.46717  -0.46659  -0.44738  -0.44673
 Alpha  occ. eigenvalues --   -0.37181  -0.36295
 Alpha virt. eigenvalues --    0.05149   0.11258   0.16624   0.19596   0.22418
 Alpha virt. eigenvalues --    0.23954   0.24732   0.25918   0.26970   0.27597
 Alpha virt. eigenvalues --    0.29133   0.29928   0.30270   0.31418   0.31501

 Mulliken charges:
               1
     1  C   -0.168492
     2  C   -0.221655
     3  C   -0.170307
     4  C    0.157586
     5  C   -0.170245
     6  C   -0.222952
     7  H    0.234352
     8  H    0.222567
     9  H    0.275277
    10  H    0.275214
    11  H    0.222349
    12  N    0.488179
    13  O   -0.460882
    14  O   -0.460811
    15  C   -0.301267
    16  C   -0.299759
    17  C   -0.478569
    18  H    0.145316
    19  H    0.143996
    20  H    0.155254
    21  H    0.155769
    22  H    0.155963
    23  H    0.147763
    24  H    0.167036
    25  C   -0.298295
    26  C   -0.300297
    27  C   -0.476252
    28  H    0.152457
    29  H    0.152574
    30  H    0.151635
    31  H    0.151094
    32  H    0.156588
    33  H    0.156602
    34  H    0.162214
 Sum of Mulliken charges =  -0.00000

 Dipole moment (field-independent basis, Debye):
    X=             -5.3857    Y=              0.2238    Z=              0.8279  Tot=              5.4535
 Quadrupole moment (field-independent basis, Debye-Ang):
   XX=           -132.0431   YY=            -93.3535   ZZ=            -90.9422
   XY=              1.8024   XZ=              3.4719   YZ=              2.8046

 Normal termination of Gaussian 16 at Wed May  5 18:56:23 2021.
