 Gaussian 16, Revision A.03,
 Gaussian 16:  EM64L-G16RevA.03 25-Dec-2016

 -------------
 #p 6-31g* mp2
 -------------

 ------------------------------------------------------
 Input file generated by CHIRIPA (05-May-2021 14:53:18)
 ------------------------------------------------------
 Symbolic Z-matrix:
 Charge =  0 Multiplicity = 1

                         Standard orientation:
 ---------------------------------------------------------------------
 Center     Atomic      Atomic             Coordinates (Angstroms)
 Number     Number       Type             X           Y           Z
 ---------------------------------------------------------------------
      1          6           0       -4.466499   -0.583952   -0.036607
      2          6           0       -5.483439    0.521176    0.250637
      3          6           0       -6.920152    0.001487    0.310416
      4          1           0       -4.721916   -1.070239   -0.988044
      5          1           0       -4.545849   -1.356680    0.740561
      6          1           0       -5.401242    1.292266   -0.526074
      7          1           0       -5.225460    1.005016    1.201406
      8          1           0       -7.024672   -0.752449    1.097345
      9          1           0       -7.201453   -0.463566   -0.639950
     10          1           0       -7.630568    0.808063    0.516825
     11          6           0       -3.025723   -0.080020   -0.099419
     12          6           0       -2.008783   -1.185148   -0.386663
     13          6           0       -0.572070   -0.665458   -0.446442
     14          1           0       -2.946373    0.692709   -0.876587
     15          1           0       -2.770306    0.406267    0.852018
     16          1           0       -2.266762   -1.668987   -1.337433
     17          1           0       -2.090980   -1.956238    0.390047
     18          1           0       -0.290769   -0.200405    0.503924
     19          1           0       -0.467550    0.088478   -1.233371
     20          1           0        0.138346   -1.472034   -0.652851
     21          6           0        3.852355   -2.078332    0.263300
     22          6           0        3.632233   -1.306970    1.409191
     23          6           0        3.119677   -0.010470    1.304675
     24          6           0        2.837155    0.485363    0.032818
     25          6           0        3.045540   -0.258494   -1.127588
     26          6           0        3.558824   -1.552559   -0.999207
     27          1           0        4.250803   -3.084538    0.353760
     28          1           0        3.859275   -1.712701    2.390965
     29          1           0        2.939622    0.608462    2.175262
     30          1           0        2.809535    0.173254   -2.092635
     31          1           0        3.728763   -2.149329   -1.890853
     32          7           0        2.294150    1.856621   -0.090462
     33          8           0        2.053420    2.270408   -1.222481
     34          8           0        2.119554    2.491662    0.947265
 ---------------------------------------------------------------------

 SCF Done:  E(RHF) =  -669.535439621     A.U. after   15 cycles
 E2 =    -0.2092886598D+01 EUMP2 =    -0.67162832621879D+03

 The electronic state is 1-A.
 Alpha  occ. eigenvalues --  -20.60769 -20.60764 -15.85804 -11.31128 -11.27727
 Alpha  occ. eigenvalues --  -11.27716 -11.27492 -11.26756 -11.26745 -11.21413
 Alpha  occ. eigenvalues --  -11.21347 -11.21155 -11.21059 -11.20872 -11.20836
 Alpha  occ. eigenvalues --   -1.59829  -1.39387  -1.19334  -1.08734  -1.08186
 Alpha  occ. eigenvalues --   -1.04743  -1.03312  -0.95769  -0.95567  -0.86795
 Alpha  occ. eigenvalues --   -0.86138  -0.82408  -0.79392  -0.77992  -0.77453
 Alpha  occ. eigenvalues --   -0.72034  -0.71134  -0.70454  -0.64995  -0.64820
 Alpha  occ. eigenvalues --   -0.64749  -0.62093  -0.60712  -0.59151  -0.57372
 Alpha  occ. eigenvalues --   -0.55252  -0.55056  -0.53353  -0.52838  -0.52205
 Alpha  occ. eigenvalues --   -0.52149  -0.49705  -0.48791  -0.48786  -0.47700
 Alpha  occ. eigenvalues --   -0.46419  -0.45538  -0.45462  -0.44767  -0.43556
 Alpha  occ. eigenvalues --   -0.37273  -0.36311
 Alpha virt. eigenvalues --    0.05079   0.11263   0.16559   0.21395   0.23105
 Alpha virt. eigenvalues --    0.24474   0.26877   0.27261   0.27582   0.27951
 Alpha virt. eigenvalues --    0.28496   0.30820   0.31382   0.31972   0.32010

 Mulliken charges:
               1
     1  C   -0.298132
     2  C   -0.299720
     3  C   -0.475587
     4  H    0.148478
     5  H    0.147764
     6  H    0.153398
     7  H    0.152800
     8  H    0.154154
     9  H    0.154497
    10  H    0.160313
    11  C   -0.298967
    12  C   -0.299907
    13  C   -0.483512
    14  H    0.153342
    15  H    0.151780
    16  H    0.149965
    17  H    0.149156
    18  H    0.154652
    19  H    0.162592
    20  H    0.157824
    21  C   -0.170959
    22  C   -0.218141
    23  C   -0.172289
    24  C    0.164809
    25  C   -0.169169
    26  C   -0.219474
    27  H    0.225467
    28  H    0.223199
    29  H    0.275239
    30  H    0.275299
    31  H    0.223322
    32  N    0.489579
    33  O   -0.460883
    34  O   -0.460886
 Sum of Mulliken charges =  -0.00000

 Dipole moment (field-independent basis, Debye):
    X=              1.9758    Y=             -4.7508    Z=              0.4163  Tot=              5.1620
 Quadrupole moment (field-independent basis, Debye-Ang):
   XX=            -86.0599   YY=           -100.2560   ZZ=            -88.7526
   XY=            -13.4605   XZ=              1.6715   YZ=              0.4413

 Normal termination of Gaussian 16 at Thu May  6 01:14:44 2021.
