 Gaussian 16, Revision A.03,
 Gaussian 16:  EM64L-G16RevA.03 25-Dec-2016

 -------------
 #p 6-31g* mp2
 -------------

 ------------------------------------------------------
 Input file generated by CHIRIPA (05-May-2021 14:57:24)
 ------------------------------------------------------
 Symbolic Z-matrix:
 Charge =  0 Multiplicity = 1

                         Standard orientation:
 ---------------------------------------------------------------------
 Center     Atomic      Atomic             Coordinates (Angstroms)
 Number     Number       Type             X           Y           Z
 ---------------------------------------------------------------------
      1          6           0       -0.572750    2.561783   -0.302098
      2          6           0       -0.385970    1.497245   -1.190014
      3          6           0       -1.266667    0.411466   -1.192015
      4          6           0       -2.328249    0.423015   -0.288577
      5          6           0       -2.540948    1.468778    0.608323
      6          6           0       -1.647748    2.544182    0.592659
      7          1           0        0.116254    3.401212   -0.307405
      8          1           0        0.448013    1.508224   -1.886001
      9          1           0       -1.145544   -0.425777   -1.868603
     10          1           0       -3.381528    1.429489    1.290452
     11          1           0       -1.795264    3.369541    1.283358
     12          7           0       -3.267222   -0.720959   -0.281345
     13          8           0       -4.194690   -0.686855    0.524434
     14          8           0       -3.057943   -1.630049   -1.081591
     15          6           0        3.975502    1.057139   -0.288291
     16          6           0        3.885310   -0.147903   -0.992748
     17          6           0        2.890905   -1.079855   -0.681023
     18          6           0        1.999283   -0.772879    0.345654
     19          6           0        2.063274    0.419014    1.065783
     20          6           0        3.065800    1.336260    0.736919
     21          1           0        4.751133    1.775390   -0.537104
     22          1           0        4.590433   -0.367342   -1.789424
     23          1           0        2.798255   -2.020453   -1.210277
     24          1           0        1.346011    0.609616    1.854847
     25          1           0        3.133451    2.271305    1.285699
     26          7           0        0.942254   -1.751710    0.684735
     27          8           0        0.168859   -1.457500    1.593546
     28          8           0        0.907162   -2.794595    0.035276
 ---------------------------------------------------------------------

 SCF Done:  E(RHF) =  -868.335364289     A.U. after   16 cycles
 E2 =    -0.2606163273D+01 EUMP2 =    -0.87094152756128D+03

 The electronic state is 1-A.
 Alpha  occ. eigenvalues --  -20.61006 -20.60982 -20.60051 -20.60014 -15.86035
 Alpha  occ. eigenvalues --  -15.85100 -11.31579 -11.30795 -11.28258 -11.28211
 Alpha  occ. eigenvalues --  -11.28073 -11.27378 -11.27339 -11.27301 -11.27290
 Alpha  occ. eigenvalues --  -11.27261 -11.26572 -11.26527  -1.60059  -1.59086
 Alpha  occ. eigenvalues --   -1.39609  -1.38639  -1.19854  -1.19002  -1.09200
 Alpha  occ. eigenvalues --   -1.08358  -1.05283  -1.04477  -0.95990  -0.95136
 Alpha  occ. eigenvalues --   -0.86661  -0.85855  -0.82820  -0.81975  -0.77823
 Alpha  occ. eigenvalues --   -0.76942  -0.72259  -0.71467  -0.71327  -0.70948
 Alpha  occ. eigenvalues --   -0.70345  -0.70147  -0.65487  -0.65278  -0.64669
 Alpha  occ. eigenvalues --   -0.64501  -0.62613  -0.61811  -0.55782  -0.55015
 Alpha  occ. eigenvalues --   -0.53908  -0.53369  -0.52621  -0.52461  -0.49025
 Alpha  occ. eigenvalues --   -0.49001  -0.48113  -0.48057  -0.44959  -0.43978
 Alpha  occ. eigenvalues --   -0.38093  -0.37525  -0.36468  -0.35703
 Alpha virt. eigenvalues --    0.04429   0.05847   0.10630   0.11643   0.16011
 Alpha virt. eigenvalues --    0.17116   0.20740   0.21668   0.26591   0.27404
 Alpha virt. eigenvalues --    0.27825   0.28465   0.30464   0.31089   0.32118

 Mulliken charges:
               1
     1  C   -0.176098
     2  C   -0.215799
     3  C   -0.183326
     4  C    0.174166
     5  C   -0.168137
     6  C   -0.220976
     7  H    0.218407
     8  H    0.222126
     9  H    0.278741
    10  H    0.276356
    11  H    0.220499
    12  N    0.490335
    13  O   -0.461334
    14  O   -0.455799
    15  C   -0.173334
    16  C   -0.221568
    17  C   -0.175143
    18  C    0.157443
    19  C   -0.162272
    20  C   -0.225328
    21  H    0.225816
    22  H    0.224784
    23  H    0.278021
    24  H    0.277452
    25  H    0.220856
    26  N    0.487603
    27  O   -0.458242
    28  O   -0.455250
 Sum of Mulliken charges =  -0.00000

 Dipole moment (field-independent basis, Debye):
    X=              6.8492    Y=              7.1196    Z=             -1.1338  Tot=              9.9441
 Quadrupole moment (field-independent basis, Debye-Ang):
   XX=           -104.5015   YY=           -105.2768   ZZ=           -101.1913
   XY=             -6.3294   XZ=             -5.6901   YZ=              5.4057

 Normal termination of Gaussian 16 at Thu May  6 21:14:57 2021.
