 Gaussian 16, Revision A.03,
 Gaussian 16:  EM64L-G16RevA.03 25-Dec-2016

 -------------
 #p 6-31g* mp2
 -------------

 ------------------------------------------------------
 Input file generated by CHIRIPA (05-May-2021 14:53:15)
 ------------------------------------------------------
 Symbolic Z-matrix:
 Charge =  0 Multiplicity = 1

                         Standard orientation:
 ---------------------------------------------------------------------
 Center     Atomic      Atomic             Coordinates (Angstroms)
 Number     Number       Type             X           Y           Z
 ---------------------------------------------------------------------
      1          6           0       -2.923440    0.276812   -0.151663
      2          6           0       -2.823504   -0.947121   -1.062699
      3          6           0       -3.986309   -1.921673   -0.873156
      4          1           0       -2.958711   -0.055027    0.895039
      5          1           0       -3.872634    0.794539   -0.347581
      6          1           0       -1.874153   -1.461607   -0.866096
      7          1           0       -2.788274   -0.612321   -2.107344
      8          1           0       -4.940295   -1.429765   -1.088883
      9          1           0       -4.020981   -2.283877    0.159417
     10          1           0       -3.894844   -2.789219   -1.534108
     11          6           0       -1.768141    1.260366   -0.329518
     12          6           0       -1.868077    2.484299    0.581518
     13          6           0       -0.705272    3.458851    0.391975
     14          1           0       -0.818947    0.742639   -0.133600
     15          1           0       -1.732870    1.592205   -1.376220
     16          1           0       -1.903307    2.149498    1.626164
     17          1           0       -2.817428    2.998785    0.384916
     18          1           0       -0.670600    3.821054   -0.640598
     19          1           0        0.248714    2.966943    0.607702
     20          1           0       -0.796737    4.326397    1.052927
     21          6           0        3.243078    0.959843   -1.205618
     22          6           0        3.091093   -0.376826   -1.588677
     23          6           0        2.311967   -1.250324   -0.824142
     24          6           0        1.696294   -0.751305    0.322687
     25          6           0        1.828578    0.575151    0.730495
     26          6           0        2.612447    1.430736   -0.049294
     27          1           0        3.850164    1.631440   -1.805452
     28          1           0        3.579680   -0.745290   -2.486208
     29          1           0        2.177414   -2.289808   -1.097612
     30          1           0        1.329211    0.913355    1.630311
     31          1           0        2.728711    2.468321    0.250613
     32          7           0        0.868957   -1.666555    1.140140
     33          8           0        0.336949   -1.202353    2.146182
     34          8           0        0.768164   -2.830801    0.759340
 ---------------------------------------------------------------------

 SCF Done:  E(RHF) =  -669.533632046     A.U. after   15 cycles
 E2 =    -0.2096284812D+01 EUMP2 =    -0.67162991685800D+03

 The electronic state is 1-A.
 Alpha  occ. eigenvalues --  -20.60971 -20.60966 -15.85993 -11.31280 -11.27863
 Alpha  occ. eigenvalues --  -11.27846 -11.27587 -11.26853 -11.26832 -11.21554
 Alpha  occ. eigenvalues --  -11.21364 -11.21094 -11.21083 -11.20865 -11.20463
 Alpha  occ. eigenvalues --   -1.60030  -1.39585  -1.19484  -1.08879  -1.08129
 Alpha  occ. eigenvalues --   -1.04888  -1.03282  -0.95760  -0.95718  -0.86790
 Alpha  occ. eigenvalues --   -0.86266  -0.82565  -0.79384  -0.77936  -0.77597
 Alpha  occ. eigenvalues --   -0.72217  -0.71370  -0.70593  -0.65139  -0.64910
 Alpha  occ. eigenvalues --   -0.64728  -0.62284  -0.60642  -0.59149  -0.57344
 Alpha  occ. eigenvalues --   -0.55370  -0.55055  -0.53269  -0.52969  -0.52459
 Alpha  occ. eigenvalues --   -0.52184  -0.49725  -0.48973  -0.48970  -0.47679
 Alpha  occ. eigenvalues --   -0.46423  -0.45464  -0.45330  -0.44928  -0.43501
 Alpha  occ. eigenvalues --   -0.37401  -0.36341
 Alpha virt. eigenvalues --    0.04871   0.11100   0.16247   0.20660   0.23115
 Alpha virt. eigenvalues --    0.24438   0.26322   0.26905   0.27711   0.28182
 Alpha virt. eigenvalues --    0.29017   0.30627   0.31493   0.31830   0.32728

 Mulliken charges:
               1
     1  C   -0.300194
     2  C   -0.300283
     3  C   -0.475535
     4  H    0.160105
     5  H    0.146493
     6  H    0.154756
     7  H    0.147058
     8  H    0.151739
     9  H    0.161518
    10  H    0.159526
    11  C   -0.301586
    12  C   -0.301393
    13  C   -0.477670
    14  H    0.151951
    15  H    0.145891
    16  H    0.157166
    17  H    0.152845
    18  H    0.154832
    19  H    0.145252
    20  H    0.159918
    21  C   -0.171435
    22  C   -0.218229
    23  C   -0.171370
    24  C    0.158902
    25  C   -0.175280
    26  C   -0.213921
    27  H    0.226409
    28  H    0.223983
    29  H    0.276065
    30  H    0.276847
    31  H    0.225470
    32  N    0.490068
    33  O   -0.460488
    34  O   -0.459411
 Sum of Mulliken charges =  -0.00000

 Dipole moment (field-independent basis, Debye):
    X=              2.9758    Y=              3.0733    Z=             -2.8137  Tot=              5.1203
 Quadrupole moment (field-independent basis, Debye-Ang):
   XX=            -85.4742   YY=            -97.8202   ZZ=            -94.5712
   XY=              1.8117   XZ=             -4.8528   YZ=              5.5074

 Normal termination of Gaussian 16 at Wed May  5 20:16:47 2021.
