 Gaussian 16, Revision A.03,
 Gaussian 16:  EM64L-G16RevA.03 25-Dec-2016

 -------------
 #p 6-31g* mp2
 -------------

 ------------------------------------------------------
 Input file generated by CHIRIPA (05-May-2021 14:55:21)
 ------------------------------------------------------
 Symbolic Z-matrix:
 Charge =  0 Multiplicity = 1

                         Standard orientation:
 ---------------------------------------------------------------------
 Center     Atomic      Atomic             Coordinates (Angstroms)
 Number     Number       Type             X           Y           Z
 ---------------------------------------------------------------------
      1          6           0       -2.057484    1.973177   -1.533083
      2          6           0       -3.349706    1.660011   -1.098789
      3          6           0       -3.581056    0.521134   -0.321625
      4          6           0       -2.492199   -0.286019    0.004234
      5          6           0       -1.193133   -0.000724   -0.413286
      6          6           0       -0.985212    1.143274   -1.189551
      7          1           0       -1.886866    2.859873   -2.136453
      8          1           0       -4.184345    2.302703   -1.364063
      9          1           0       -4.571221    0.255114    0.027983
     10          1           0       -0.381128   -0.660590   -0.132855
     11          1           0        0.019416    1.384012   -1.525425
     12          7           0       -2.724718   -1.494408    0.826507
     13          8           0       -1.748544   -2.189301    1.100086
     14          8           0       -3.878736   -1.723768    1.181854
     15          6           0        3.065252   -0.648223    0.136384
     16          6           0        3.836447   -1.286821   -1.019226
     17          6           0        3.675126   -2.806446   -1.069311
     18          1           0        3.407927   -1.086184    1.083857
     19          1           0        2.000309   -0.901908    0.041852
     20          1           0        4.899414   -1.030857   -0.923314
     21          1           0        3.492031   -0.847150   -1.964046
     22          1           0        2.621362   -3.078247   -1.188921
     23          1           0        4.036742   -3.262997   -0.142275
     24          1           0        4.234638   -3.242308   -1.902876
     25          6           0        3.216674    0.870590    0.199710
     26          6           0        2.445479    1.509188    1.355321
     27          6           0        2.606800    3.028813    1.405405
     28          1           0        4.281616    1.124275    0.294241
     29          1           0        2.873998    1.308551   -0.747765
     30          1           0        2.789895    1.069518    2.300140
     31          1           0        1.382512    1.253224    1.259407
     32          1           0        2.245185    3.485364    0.478369
     33          1           0        3.660564    3.300615    1.525015
     34          1           0        2.047287    3.464675    2.238970
 ---------------------------------------------------------------------

 SCF Done:  E(RHF) =  -669.535348666     A.U. after   15 cycles
 E2 =    -0.2092785967D+01 EUMP2 =    -0.67162813463299D+03

 The electronic state is 1-A.
 Alpha  occ. eigenvalues --  -20.60786 -20.60780 -15.85838 -11.31217 -11.27793
 Alpha  occ. eigenvalues --  -11.27783 -11.27535 -11.26816 -11.26806 -11.22082
 Alpha  occ. eigenvalues --  -11.22014 -11.21995 -11.21910 -11.21561 -11.21235
 Alpha  occ. eigenvalues --   -1.59860  -1.39413  -1.19398  -1.08956  -1.08786
 Alpha  occ. eigenvalues --   -1.04806  -1.03948  -0.96404  -0.95620  -0.87411
 Alpha  occ. eigenvalues --   -0.86200  -0.82454  -0.80009  -0.78773  -0.77496
 Alpha  occ. eigenvalues --   -0.72057  -0.71183  -0.70515  -0.65658  -0.65036
 Alpha  occ. eigenvalues --   -0.64812  -0.62132  -0.61350  -0.59765  -0.58003
 Alpha  occ. eigenvalues --   -0.55720  -0.55288  -0.53139  -0.53054  -0.52926
 Alpha  occ. eigenvalues --   -0.52786  -0.50344  -0.48817  -0.48812  -0.48314
 Alpha  occ. eigenvalues --   -0.47065  -0.46274  -0.46235  -0.44815  -0.44239
 Alpha  occ. eigenvalues --   -0.37374  -0.36387
 Alpha virt. eigenvalues --    0.05000   0.11230   0.16378   0.18425   0.23088
 Alpha virt. eigenvalues --    0.23408   0.24818   0.25626   0.27424   0.28445
 Alpha virt. eigenvalues --    0.30251   0.30761   0.31348   0.31657   0.31995

 Mulliken charges:
               1
     1  C   -0.171040
     2  C   -0.218746
     3  C   -0.169991
     4  C    0.159606
     5  C   -0.181945
     6  C   -0.223702
     7  H    0.226022
     8  H    0.223741
     9  H    0.275866
    10  H    0.288263
    11  H    0.226474
    12  N    0.487023
    13  O   -0.459951
    14  O   -0.460280
    15  C   -0.304074
    16  C   -0.299405
    17  C   -0.476361
    18  H    0.157090
    19  H    0.146636
    20  H    0.153773
    21  H    0.147992
    22  H    0.158083
    23  H    0.158460
    24  H    0.161023
    25  C   -0.299802
    26  C   -0.303728
    27  C   -0.474647
    28  H    0.153645
    29  H    0.140897
    30  H    0.157393
    31  H    0.151777
    32  H    0.149448
    33  H    0.157085
    34  H    0.163375
 Sum of Mulliken charges =  -0.00000

 Dipole moment (field-independent basis, Debye):
    X=              0.9103    Y=              4.1826    Z=             -2.7970  Tot=              5.1134
 Quadrupole moment (field-independent basis, Debye-Ang):
   XX=            -92.7320   YY=            -98.6422   ZZ=            -95.1049
   XY=            -12.5988   XZ=              7.9602   YZ=              0.6442

 Normal termination of Gaussian 16 at Thu May  6 07:46:47 2021.
