 Gaussian 16, Revision A.03,
 Gaussian 16:  EM64L-G16RevA.03 25-Dec-2016

 -------------
 #p 6-31g* mp2
 -------------

 ------------------------------------------------------
 Input file generated by CHIRIPA (05-May-2021 14:51:08)
 ------------------------------------------------------
 Symbolic Z-matrix:
 Charge =  0 Multiplicity = 1

                         Standard orientation:
 ---------------------------------------------------------------------
 Center     Atomic      Atomic             Coordinates (Angstroms)
 Number     Number       Type             X           Y           Z
 ---------------------------------------------------------------------
      1          6           0       -2.761622    0.777002   -0.688882
      2          6           0       -3.136682    1.907674    0.269708
      3          6           0       -2.783164    3.290089   -0.279608
      4          1           0       -1.684359    0.825160   -0.898954
      5          1           0       -3.274418    0.933584   -1.648005
      6          1           0       -2.624417    1.748255    1.227197
      7          1           0       -4.213144    1.856702    0.477672
      8          1           0       -3.305460    3.474486   -1.223963
      9          1           0       -1.707707    3.365423   -0.470179
     10          1           0       -3.059843    4.083526    0.421653
     11          6           0       -3.108827   -0.611102   -0.153771
     12          6           0       -2.733766   -1.741775   -1.112361
     13          6           0       -3.087284   -3.124189   -0.563045
     14          1           0       -2.596031   -0.767684    0.805352
     15          1           0       -4.186090   -0.659261    0.056300
     16          1           0       -1.657305   -1.690802   -1.320326
     17          1           0       -3.246032   -1.582355   -2.069850
     18          1           0       -4.162742   -3.199523   -0.372474
     19          1           0       -2.564988   -3.308586    0.381309
     20          1           0       -2.810606   -3.917626   -1.264307
     21          6           0        3.623532   -0.294308    0.166392
     22          6           0        4.129477    0.562423   -0.994650
     23          6           0        5.507687    0.127316   -1.493660
     24          1           0        4.346413   -0.245154    0.992209
     25          1           0        3.584159   -1.345120   -0.152417
     26          1           0        4.166569    1.611490   -0.674182
     27          1           0        3.405214    0.511377   -1.817726
     28          1           0        5.481964   -0.911051   -1.839687
     29          1           0        6.247644    0.195312   -0.689645
     30          1           0        5.850115    0.753135   -2.323693
     31          6           0        2.246916    0.128408    0.676262
     32          6           0        1.740972   -0.728323    1.837304
     33          6           0        0.362762   -0.293216    2.336313
     34          1           0        2.286289    1.179220    0.995070
     35          1           0        1.524036    0.079255   -0.149556
     36          1           0        2.465234   -0.677277    2.660380
     37          1           0        1.703880   -1.777389    1.516836
     38          1           0       -0.377196   -0.361212    1.532298
     39          1           0        0.388485    0.745151    2.682339
     40          1           0        0.020334   -0.919033    3.166346
 ---------------------------------------------------------------------

 SCF Done:  E(RHF) =  -470.733301200     A.U. after   11 cycles
 E2 =    -0.1583379273D+01 EUMP2 =    -0.47231668047325D+03

 The electronic state is 1-A.
 Alpha  occ. eigenvalues --  -11.21678 -11.21639 -11.21624 -11.21557 -11.21474
 Alpha  occ. eigenvalues --  -11.21408 -11.21390 -11.21328 -11.21148 -11.21098
 Alpha  occ. eigenvalues --  -11.21082 -11.21035  -1.08497  -1.08421  -1.03590
 Alpha  occ. eigenvalues --   -1.03518  -0.96053  -0.95960  -0.87064  -0.86982
 Alpha  occ. eigenvalues --   -0.79660  -0.79578  -0.78308  -0.78233  -0.65253
 Alpha  occ. eigenvalues --   -0.64972  -0.61015  -0.60883  -0.59407  -0.59335
 Alpha  occ. eigenvalues --   -0.57660  -0.57572  -0.55477  -0.55127  -0.52737
 Alpha  occ. eigenvalues --   -0.52664  -0.52474  -0.52380  -0.50068  -0.49837
 Alpha  occ. eigenvalues --   -0.47985  -0.47899  -0.46766  -0.46564  -0.45955
 Alpha  occ. eigenvalues --   -0.45794  -0.45690  -0.45542  -0.43844  -0.43773
 Alpha virt. eigenvalues --    0.19661   0.23110   0.24201   0.24793   0.25436
 Alpha virt. eigenvalues --    0.25888   0.27080   0.27725   0.28560   0.29495
 Alpha virt. eigenvalues --    0.30972   0.31565   0.31710   0.31983   0.32288

 Mulliken charges:
               1
     1  C   -0.299584
     2  C   -0.300892
     3  C   -0.475822
     4  H    0.149909
     5  H    0.149714
     6  H    0.154176
     7  H    0.151760
     8  H    0.154898
     9  H    0.155518
    10  H    0.160099
    11  C   -0.304027
    12  C   -0.299789
    13  C   -0.475750
    14  H    0.154468
    15  H    0.150359
    16  H    0.150740
    17  H    0.152248
    18  H    0.155414
    19  H    0.155423
    20  H    0.160117
    21  C   -0.298355
    22  C   -0.299764
    23  C   -0.475756
    24  H    0.149950
    25  H    0.149716
    26  H    0.152023
    27  H    0.152022
    28  H    0.155279
    29  H    0.155249
    30  H    0.160442
    31  C   -0.299190
    32  C   -0.299438
    33  C   -0.484147
    34  H    0.149770
    35  H    0.149405
    36  H    0.152430
    37  H    0.152099
    38  H    0.163115
    39  H    0.155659
    40  H    0.160511
 Sum of Mulliken charges =  -0.00000

 Dipole moment (field-independent basis, Debye):
    X=              0.0147    Y=             -0.0006    Z=              0.0204  Tot=              0.0251
 Quadrupole moment (field-independent basis, Debye-Ang):
   XX=            -84.6609   YY=            -85.5646   ZZ=            -84.4349
   XY=              0.2286   XZ=              1.1957   YZ=              0.5903

 Normal termination of Gaussian 16 at Thu May  6 14:51:48 2021.
