 Gaussian 16, Revision A.03,
 Gaussian 16:  EM64L-G16RevA.03 25-Dec-2016

 -------------
 #p 6-31g* mp2
 -------------

 ------------------------------------------------------
 Input file generated by CHIRIPA (05-May-2021 14:57:24)
 ------------------------------------------------------
 Symbolic Z-matrix:
 Charge =  0 Multiplicity = 1

                         Standard orientation:
 ---------------------------------------------------------------------
 Center     Atomic      Atomic             Coordinates (Angstroms)
 Number     Number       Type             X           Y           Z
 ---------------------------------------------------------------------
      1          6           0        0.975280    2.664995    0.388229
      2          6           0        1.781061    2.549189   -0.749236
      3          6           0        2.580104    1.418151   -0.941152
      4          6           0        2.548795    0.417502    0.028905
      5          6           0        1.756602    0.503641    1.172715
      6          6           0        0.965639    1.643652    1.343890
      7          1           0        0.357702    3.547097    0.529258
      8          1           0        1.790555    3.340811   -1.493071
      9          1           0        3.213290    1.302697   -1.812452
     10          1           0        1.768290   -0.301995    1.896753
     11          1           0        0.340842    1.730884    2.228234
     12          7           0        3.390429   -0.784627   -0.163289
     13          8           0        3.344987   -1.652263    0.706067
     14          8           0        4.079607   -0.836457   -1.179647
     15          6           0       -0.514450   -2.255047    0.230618
     16          6           0       -1.042447   -1.590749    1.342575
     17          6           0       -2.092810   -0.680294    1.193045
     18          6           0       -2.593346   -0.457134   -0.088733
     19          6           0       -2.088618   -1.103365   -1.216087
     20          6           0       -1.038297   -2.009668   -1.042918
     21          1           0        0.301482   -2.960697    0.355958
     22          1           0       -0.637599   -1.779342    2.332814
     23          1           0       -2.520389   -0.152229    2.036692
     24          1           0       -2.513034   -0.894591   -2.190613
     25          1           0       -0.630220   -2.524125   -1.908280
     26          7           0       -3.705296    0.504526   -0.259546
     27          8           0       -4.128673    0.683592   -1.399425
     28          8           0       -4.132412    1.060999    0.749685
 ---------------------------------------------------------------------

 SCF Done:  E(RHF) =  -868.338104661     A.U. after   16 cycles
 E2 =    -0.2603124153D+01 EUMP2 =    -0.87094122881443D+03

 The electronic state is 1-A.
 Alpha  occ. eigenvalues --  -20.61472 -20.61430 -20.61130 -20.61112 -15.86482
 Alpha  occ. eigenvalues --  -15.86174 -11.31551 -11.31431 -11.28173 -11.28088
 Alpha  occ. eigenvalues --  -11.28046 -11.27965 -11.27749 -11.27545 -11.27050
 Alpha  occ. eigenvalues --  -11.27003 -11.26979 -11.26872  -1.60524  -1.60204
 Alpha  occ. eigenvalues --   -1.40089  -1.39761  -1.19731  -1.19566  -1.09147
 Alpha  occ. eigenvalues --   -1.08970  -1.05142  -1.04938  -0.96038  -0.95820
 Alpha  occ. eigenvalues --   -0.86536  -0.86343  -0.82906  -0.82660  -0.78008
 Alpha  occ. eigenvalues --   -0.77752  -0.72710  -0.72391  -0.71857  -0.71530
 Alpha  occ. eigenvalues --   -0.70823  -0.70585  -0.65374  -0.65262  -0.65135
 Alpha  occ. eigenvalues --   -0.64916  -0.62564  -0.62258  -0.55566  -0.55351
 Alpha  occ. eigenvalues --   -0.53956  -0.53233  -0.53030  -0.52761  -0.49485
 Alpha  occ. eigenvalues --   -0.49432  -0.49157  -0.49137  -0.45556  -0.45193
 Alpha  occ. eigenvalues --   -0.38055  -0.37490  -0.36948  -0.35856
 Alpha virt. eigenvalues --    0.04480   0.04769   0.10312   0.11729   0.15807
 Alpha virt. eigenvalues --    0.16567   0.19930   0.22078   0.25719   0.26952
 Alpha virt. eigenvalues --    0.28357   0.29163   0.30437   0.31066   0.31756

 Mulliken charges:
               1
     1  C   -0.170228
     2  C   -0.218803
     3  C   -0.171448
     4  C    0.156664
     5  C   -0.162717
     6  C   -0.215669
     7  H    0.231078
     8  H    0.225838
     9  H    0.275256
    10  H    0.265943
    11  H    0.221458
    12  N    0.487741
    13  O   -0.468771
    14  O   -0.457953
    15  C   -0.172918
    16  C   -0.223931
    17  C   -0.172385
    18  C    0.158868
    19  C   -0.170110
    20  C   -0.219729
    21  H    0.241791
    22  H    0.221034
    23  H    0.270970
    24  H    0.275709
    25  H    0.228070
    26  N    0.487635
    27  O   -0.459696
    28  O   -0.463696
 Sum of Mulliken charges =  -0.00000

 Dipole moment (field-independent basis, Debye):
    X=              0.9838    Y=              0.8663    Z=              1.0958  Tot=              1.7086
 Quadrupole moment (field-independent basis, Debye-Ang):
   XX=           -141.8911   YY=            -97.8329   ZZ=            -96.6420
   XY=             17.5439   XZ=             -1.9683   YZ=             -0.3114

 Normal termination of Gaussian 16 at Fri May  7 06:31:41 2021.
