 Gaussian 16, Revision A.03,
 Gaussian 16:  EM64L-G16RevA.03 25-Dec-2016

 -------------
 #p 6-31g* mp2
 -------------

 ------------------------------------------------------
 Input file generated by CHIRIPA (05-May-2021 14:51:12)
 ------------------------------------------------------
 Symbolic Z-matrix:
 Charge =  0 Multiplicity = 1

                         Standard orientation:
 ---------------------------------------------------------------------
 Center     Atomic      Atomic             Coordinates (Angstroms)
 Number     Number       Type             X           Y           Z
 ---------------------------------------------------------------------
      1          6           0        3.876338   -0.637915   -0.109730
      2          6           0        5.163493   -1.461207   -0.051351
      3          6           0        4.902041   -2.967670   -0.048458
      4          1           0        3.241909   -0.899753    0.748108
      5          1           0        3.312732   -0.914917   -1.011402
      6          1           0        5.725171   -1.181741    0.849222
      7          1           0        5.795016   -1.197240   -0.909323
      8          1           0        4.362621   -3.266784   -0.952978
      9          1           0        4.292379   -3.251197    0.815559
     10          1           0        5.835759   -3.537106   -0.006354
     11          6           0        4.121311    0.869965   -0.113290
     12          6           0        2.834157    1.693258   -0.171669
     13          6           0        3.095608    3.199720   -0.174563
     14          1           0        4.684917    1.146967    0.788382
     15          1           0        4.755740    1.131803   -0.971128
     16          1           0        2.202634    1.429290    0.686303
     17          1           0        2.272479    1.413791   -1.072242
     18          1           0        3.705271    3.483247   -1.038579
     19          1           0        3.635029    3.498834    0.729958
     20          1           0        2.161890    3.769156   -0.216666
     21          6           0       -4.703343    0.163276    0.016246
     22          6           0       -5.754551   -0.917263   -0.239454
     23          6           0       -7.158950   -0.342891   -0.428020
     24          1           0       -4.988122    0.739357    0.907300
     25          1           0       -4.701603    0.869772   -0.825334
     26          1           0       -5.753347   -1.622290    0.601708
     27          1           0       -5.467138   -1.490961   -1.129892
     28          1           0       -7.182667    0.345154   -1.279273
     29          1           0       -7.470502    0.213081    0.462166
     30          1           0       -7.894644   -1.132622   -0.609515
     31          6           0       -3.294306   -0.395327    0.206774
     32          6           0       -2.243098    0.685212    0.462475
     33          6           0       -0.838700    0.110842    0.651041
     34          1           0       -3.296046   -1.101822    1.048354
     35          1           0       -3.009528   -0.971408   -0.684280
     36          1           0       -2.530511    1.258911    1.352912
     37          1           0       -2.244302    1.390239   -0.378687
     38          1           0       -0.527147   -0.445130   -0.239145
     39          1           0       -0.814983   -0.577205    1.502294
     40          1           0       -0.103006    0.900571    0.832536
 ---------------------------------------------------------------------

 SCF Done:  E(RHF) =  -470.733098137     A.U. after   11 cycles
 E2 =    -0.1582533475D+01 EUMP2 =    -0.47231563161173D+03

 The electronic state is 1-A.
 Alpha  occ. eigenvalues --  -11.21590 -11.21572 -11.21568 -11.21553 -11.21385
 Alpha  occ. eigenvalues --  -11.21368 -11.21326 -11.21307 -11.21063 -11.21061
 Alpha  occ. eigenvalues --  -11.21045 -11.20983  -1.08414  -1.08392  -1.03528
 Alpha  occ. eigenvalues --   -1.03481  -0.95967  -0.95939  -0.87004  -0.86937
 Alpha  occ. eigenvalues --   -0.79651  -0.79492  -0.78242  -0.78185  -0.65041
 Alpha  occ. eigenvalues --   -0.65031  -0.60921  -0.60897  -0.59481  -0.59185
 Alpha  occ. eigenvalues --   -0.57654  -0.57469  -0.55241  -0.55236  -0.52750
 Alpha  occ. eigenvalues --   -0.52596  -0.52398  -0.52336  -0.49899  -0.49888
 Alpha  occ. eigenvalues --   -0.47990  -0.47771  -0.46611  -0.46587  -0.45782
 Alpha  occ. eigenvalues --   -0.45740  -0.45691  -0.45666  -0.43787  -0.43654
 Alpha virt. eigenvalues --    0.22177   0.23027   0.23667   0.24795   0.26058
 Alpha virt. eigenvalues --    0.26459   0.26880   0.27417   0.27924   0.29066
 Alpha virt. eigenvalues --    0.30177   0.31380   0.31660   0.31815   0.32126

 Mulliken charges:
               1
     1  C   -0.298410
     2  C   -0.299642
     3  C   -0.475640
     4  H    0.150685
     5  H    0.149315
     6  H    0.151808
     7  H    0.151768
     8  H    0.155083
     9  H    0.155301
    10  H    0.160090
    11  C   -0.297859
    12  C   -0.304057
    13  C   -0.475900
    14  H    0.149224
    15  H    0.149371
    16  H    0.156535
    17  H    0.152495
    18  H    0.155217
    19  H    0.155043
    20  H    0.159932
    21  C   -0.298194
    22  C   -0.299600
    23  C   -0.475683
    24  H    0.149564
    25  H    0.149436
    26  H    0.151898
    27  H    0.151904
    28  H    0.155148
    29  H    0.155149
    30  H    0.160209
    31  C   -0.298486
    32  C   -0.299348
    33  C   -0.480551
    34  H    0.149418
    35  H    0.149556
    36  H    0.151509
    37  H    0.151695
    38  H    0.155408
    39  H    0.154030
    40  H    0.166583
 Sum of Mulliken charges =  -0.00000

 Dipole moment (field-independent basis, Debye):
    X=              0.0131    Y=              0.0008    Z=              0.0027  Tot=              0.0134
 Quadrupole moment (field-independent basis, Debye-Ang):
   XX=            -86.0750   YY=            -86.1595   ZZ=            -82.7111
   XY=              0.2499   XZ=             -0.3554   YZ=             -0.0095

 Normal termination of Gaussian 16 at Thu May  6 03:53:26 2021.
