 Gaussian 16, Revision A.03,
 Gaussian 16:  EM64L-G16RevA.03 25-Dec-2016

 -------------
 #p 6-31g* mp2
 -------------

 ------------------------------------------------------
 Input file generated by CHIRIPA (05-May-2021 14:53:13)
 ------------------------------------------------------
 Symbolic Z-matrix:
 Charge =  0 Multiplicity = 1

                         Standard orientation:
 ---------------------------------------------------------------------
 Center     Atomic      Atomic             Coordinates (Angstroms)
 Number     Number       Type             X           Y           Z
 ---------------------------------------------------------------------
      1          6           0       -3.788767   -0.293656   -0.330454
      2          6           0       -5.239176   -0.777624   -0.338885
      3          6           0       -5.450284   -1.996989   -1.236870
      4          1           0       -3.483728   -0.051510   -1.357713
      5          1           0       -3.137937   -1.113450    0.003842
      6          1           0       -5.887224    0.043263   -0.671743
      7          1           0       -5.540858   -1.018464    0.688539
      8          1           0       -4.827769   -2.833513   -0.903246
      9          1           0       -5.176104   -1.765753   -2.271256
     10          1           0       -6.494033   -2.326187   -1.228047
     11          6           0       -3.561846    0.924724    0.562735
     12          6           0       -2.111436    1.408692    0.571167
     13          6           0       -1.900328    2.628057    1.469152
     14          1           0       -4.212675    1.744518    0.228439
     15          1           0       -3.866884    0.682578    1.589995
     16          1           0       -1.809755    1.649532   -0.456257
     17          1           0       -1.463388    0.587805    0.904024
     18          1           0       -2.174509    2.396821    2.503538
     19          1           0       -2.522843    3.464580    1.135528
     20          1           0       -0.856580    2.957255    1.460329
     21          6           0        2.993251    2.069819   -1.083549
     22          6           0        4.136478    1.264937   -1.042084
     23          6           0        4.080589   -0.020113   -0.494299
     24          6           0        2.859547   -0.470445    0.005247
     25          6           0        1.703158    0.307583   -0.021701
     26          6           0        1.782374    1.589419   -0.574124
     27          1           0        3.045728    3.066827   -1.510883
     28          1           0        5.078213    1.635404   -1.436971
     29          1           0        4.950317   -0.664308   -0.449524
     30          1           0        0.778634   -0.089298    0.379744
     31          1           0        0.892923    2.212289   -0.604997
     32          7           0        2.788031   -1.829169    0.587616
     33          8           0        1.700266   -2.202625    1.021128
     34          8           0        3.821098   -2.494953    0.599539
 ---------------------------------------------------------------------

 SCF Done:  E(RHF) =  -669.535472290     A.U. after   15 cycles
 E2 =    -0.2092010944D+01 EUMP2 =    -0.67162748323452D+03

 The electronic state is 1-A.
 Alpha  occ. eigenvalues --  -20.60731 -20.60726 -15.85781 -11.31111 -11.27696
 Alpha  occ. eigenvalues --  -11.27645 -11.27434 -11.26708 -11.26662 -11.22472
 Alpha  occ. eigenvalues --  -11.21872 -11.21856 -11.21757 -11.21628 -11.21115
 Alpha  occ. eigenvalues --   -1.59805  -1.39360  -1.19288  -1.08872  -1.08692
 Alpha  occ. eigenvalues --   -1.04691  -1.03984  -0.96400  -0.95531  -0.87417
 Alpha  occ. eigenvalues --   -0.86089  -0.82369  -0.80118  -0.78645  -0.77397
 Alpha  occ. eigenvalues --   -0.72003  -0.71127  -0.70410  -0.65516  -0.64942
 Alpha  occ. eigenvalues --   -0.64688  -0.62112  -0.61363  -0.59778  -0.58003
 Alpha  occ. eigenvalues --   -0.55655  -0.55194  -0.53137  -0.53031  -0.52932
 Alpha  occ. eigenvalues --   -0.52663  -0.50323  -0.48764  -0.48757  -0.48385
 Alpha  occ. eigenvalues --   -0.47121  -0.46175  -0.46051  -0.44773  -0.44217
 Alpha  occ. eigenvalues --   -0.37277  -0.36285
 Alpha virt. eigenvalues --    0.05110   0.11344   0.16563   0.19500   0.22834
 Alpha virt. eigenvalues --    0.23792   0.24838   0.25950   0.26954   0.28337
 Alpha virt. eigenvalues --    0.29487   0.29713   0.31197   0.31559   0.31955

 Mulliken charges:
               1
     1  C   -0.300664
     2  C   -0.300132
     3  C   -0.476409
     4  H    0.148566
     5  H    0.155138
     6  H    0.151204
     7  H    0.153544
     8  H    0.158545
     9  H    0.154789
    10  H    0.160913
    11  C   -0.297214
    12  C   -0.310528
    13  C   -0.477946
    14  H    0.150607
    15  H    0.153808
    16  H    0.146583
    17  H    0.155530
    18  H    0.162121
    19  H    0.157817
    20  H    0.155264
    21  C   -0.170987
    22  C   -0.218877
    23  C   -0.170355
    24  C    0.159691
    25  C   -0.178633
    26  C   -0.226614
    27  H    0.225467
    28  H    0.223105
    29  H    0.275334
    30  H    0.284196
    31  H    0.230037
    32  N    0.487669
    33  O   -0.461002
    34  O   -0.460567
 Sum of Mulliken charges =  -0.00000

 Dipole moment (field-independent basis, Debye):
    X=              0.0476    Y=              4.7364    Z=             -1.9957  Tot=              5.1399
 Quadrupole moment (field-independent basis, Debye-Ang):
   XX=            -88.0415   YY=           -100.2289   ZZ=            -95.0411
   XY=             12.6700   XZ=             -7.3148   YZ=              0.1491

 Normal termination of Gaussian 16 at Thu May  6 01:00:40 2021.
