 Gaussian 16, Revision A.03,
 Gaussian 16:  EM64L-G16RevA.03 25-Dec-2016

 -------------
 #p 6-31g* mp2
 -------------

 ------------------------------------------------------
 Input file generated by CHIRIPA (05-May-2021 14:55:25)
 ------------------------------------------------------
 Symbolic Z-matrix:
 Charge =  0 Multiplicity = 1

                         Standard orientation:
 ---------------------------------------------------------------------
 Center     Atomic      Atomic             Coordinates (Angstroms)
 Number     Number       Type             X           Y           Z
 ---------------------------------------------------------------------
      1          6           0       -3.280455    2.566826    0.660182
      2          6           0       -3.051224    1.570448    1.614753
      3          6           0       -2.788931    0.255345    1.219462
      4          6           0       -2.763241   -0.029440   -0.144916
      5          6           0       -2.987653    0.941216   -1.119984
      6          6           0       -3.247995    2.249589   -0.701739
      7          1           0       -3.483453    3.585816    0.976170
      8          1           0       -3.075818    1.813925    2.673129
      9          1           0       -2.607959   -0.535483    1.937277
     10          1           0       -2.956655    0.668016   -2.167753
     11          1           0       -3.425652    3.021349   -1.445291
     12          7           0       -2.486596   -1.418118   -0.575544
     13          8           0       -2.469434   -1.643272   -1.783703
     14          8           0       -2.292161   -2.255116    0.303244
     15          6           0        2.975764   -0.659777   -0.095014
     16          6           0        2.670695   -1.795659    0.882067
     17          6           0        1.428401   -2.595744    0.489175
     18          1           0        2.107737    0.011409   -0.149646
     19          1           0        3.111254   -1.078134   -1.101997
     20          1           0        2.537188   -1.375436    1.887157
     21          1           0        3.539622   -2.464113    0.934525
     22          1           0        1.555247   -3.041911   -0.502514
     23          1           0        0.547117   -1.947048    0.455531
     24          1           0        1.228757   -3.402612    1.201190
     25          6           0        4.214855    0.149232    0.284310
     26          6           0        4.519924    1.285115   -0.692772
     27          6           0        5.762217    2.085200   -0.299879
     28          1           0        4.079364    0.567590    1.291293
     29          1           0        5.082881   -0.521953    0.338943
     30          1           0        3.650996    1.953569   -0.745228
     31          1           0        4.653430    0.864891   -1.697860
     32          1           0        6.643501    1.436504   -0.266234
     33          1           0        5.635371    2.531367    0.691811
     34          1           0        5.961861    2.892068   -1.011894
 ---------------------------------------------------------------------

 SCF Done:  E(RHF) =  -669.535739053     A.U. after   15 cycles
 E2 =    -0.2091233848D+01 EUMP2 =    -0.67162697290112D+03

 The electronic state is 1-A.
 Alpha  occ. eigenvalues --  -20.60883 -20.60867 -15.85899 -11.31264 -11.27831
 Alpha  occ. eigenvalues --  -11.27826 -11.27572 -11.26845 -11.26835 -11.21435
 Alpha  occ. eigenvalues --  -11.21118 -11.21005 -11.20969 -11.20941 -11.20041
 Alpha  occ. eigenvalues --   -1.59936  -1.39491  -1.19436  -1.08833  -1.08064
 Alpha  occ. eigenvalues --   -1.04836  -1.03090  -0.95671  -0.95506  -0.86514
 Alpha  occ. eigenvalues --   -0.86234  -0.82499  -0.79165  -0.77861  -0.77547
 Alpha  occ. eigenvalues --   -0.72123  -0.71260  -0.70541  -0.65089  -0.64837
 Alpha  occ. eigenvalues --   -0.64704  -0.62182  -0.60494  -0.58924  -0.57123
 Alpha  occ. eigenvalues --   -0.55338  -0.54801  -0.53169  -0.52927  -0.52177
 Alpha  occ. eigenvalues --   -0.51927  -0.49469  -0.48891  -0.48878  -0.47476
 Alpha  occ. eigenvalues --   -0.46255  -0.45444  -0.45344  -0.44725  -0.43344
 Alpha  occ. eigenvalues --   -0.37417  -0.36439
 Alpha virt. eigenvalues --    0.04969   0.11201   0.16436   0.21341   0.23172
 Alpha virt. eigenvalues --    0.24711   0.26935   0.27262   0.27772   0.28069
 Alpha virt. eigenvalues --    0.28607   0.30775   0.31786   0.32112   0.32438

 Mulliken charges:
               1
     1  C   -0.170743
     2  C   -0.218562
     3  C   -0.171722
     4  C    0.157686
     5  C   -0.170825
     6  C   -0.218566
     7  H    0.225891
     8  H    0.223743
     9  H    0.276116
    10  H    0.275944
    11  H    0.223788
    12  N    0.487289
    13  O   -0.458630
    14  O   -0.457176
    15  C   -0.297181
    16  C   -0.301048
    17  C   -0.472540
    18  H    0.146276
    19  H    0.151022
    20  H    0.147133
    21  H    0.149832
    22  H    0.157283
    23  H    0.157945
    24  H    0.161192
    25  C   -0.297562
    26  C   -0.299067
    27  C   -0.475359
    28  H    0.147329
    29  H    0.149732
    30  H    0.149741
    31  H    0.152557
    32  H    0.155558
    33  H    0.153903
    34  H    0.159022
 Sum of Mulliken charges =  -0.00000

 Dipole moment (field-independent basis, Debye):
    X=             -1.1556    Y=              4.8133    Z=              1.4695  Tot=              5.1636
 Quadrupole moment (field-independent basis, Debye-Ang):
   XX=            -91.0650   YY=            -95.0670   ZZ=            -90.4100
   XY=            -14.8931   XZ=             -4.2420   YZ=             -1.9397

 Normal termination of Gaussian 16 at Thu May  6 09:33:40 2021.
