 Gaussian 16, Revision A.03,
 Gaussian 16:  EM64L-G16RevA.03 25-Dec-2016

 -------------
 #p 6-31g* mp2
 -------------

 ------------------------------------------------------
 Input file generated by CHIRIPA (05-May-2021 14:57:24)
 ------------------------------------------------------
 Symbolic Z-matrix:
 Charge =  0 Multiplicity = 1

                         Standard orientation:
 ---------------------------------------------------------------------
 Center     Atomic      Atomic             Coordinates (Angstroms)
 Number     Number       Type             X           Y           Z
 ---------------------------------------------------------------------
      1          6           0       -1.416576   -1.891591    1.063533
      2          6           0       -1.353383   -1.683194   -0.318168
      3          6           0       -2.271426   -0.840443   -0.951821
      4          6           0       -3.243925   -0.219362   -0.169648
      5          6           0       -3.332797   -0.406898    1.208838
      6          6           0       -2.404340   -1.253902    1.821290
      7          1           0       -0.699372   -2.547912    1.547535
      8          1           0       -0.587349   -2.177112   -0.909168
      9          1           0       -2.245369   -0.661377   -2.019845
     10          1           0       -4.107758    0.099366    1.771467
     11          1           0       -2.455812   -1.413887    2.894510
     12          7           0       -4.221329    0.675071   -0.829246
     13          8           0       -5.068528    1.210508   -0.117769
     14          8           0       -4.121712    0.823756   -2.045225
     15          6           0        1.471583    2.076084    0.981833
     16          6           0        1.114040    0.724228    0.947618
     17          6           0        1.998839   -0.231570    0.439557
     18          6           0        3.238607    0.201526   -0.028091
     19          6           0        3.623919    1.541076   -0.007383
     20          6           0        2.723174    2.479483    0.505064
     21          1           0        0.778056    2.811815    1.378211
     22          1           0        0.142706    0.408059    1.317202
     23          1           0        1.747704   -1.284606    0.401261
     24          1           0        4.599234    1.825862   -0.382985
     25          1           0        3.003536    3.528673    0.530398
     26          7           0        4.183745   -0.801128   -0.568274
     27          8           0        5.270038   -0.393915   -0.974208
     28          8           0        3.820355   -1.975237   -0.575507
 ---------------------------------------------------------------------

 SCF Done:  E(RHF) =  -868.336880337     A.U. after   16 cycles
 E2 =    -0.2603048263D+01 EUMP2 =    -0.87093992860025D+03

 The electronic state is 1-A.
 Alpha  occ. eigenvalues --  -20.61501 -20.61489 -20.61225 -20.61194 -15.86555
 Alpha  occ. eigenvalues --  -15.86259 -11.32116 -11.31556 -11.28704 -11.28620
 Alpha  occ. eigenvalues --  -11.28424 -11.28131 -11.28036 -11.27765 -11.27709
 Alpha  occ. eigenvalues --  -11.27655 -11.27045 -11.26914  -1.60570  -1.60286
 Alpha  occ. eigenvalues --   -1.40116  -1.39844  -1.20322  -1.19677  -1.09693
 Alpha  occ. eigenvalues --   -1.09071  -1.05709  -1.05060  -0.96472  -0.95938
 Alpha  occ. eigenvalues --   -0.87095  -0.86461  -0.83268  -0.82772  -0.78284
 Alpha  occ. eigenvalues --   -0.77858  -0.72764  -0.72478  -0.71901  -0.71607
 Alpha  occ. eigenvalues --   -0.71395  -0.70781  -0.65938  -0.65698  -0.65315
 Alpha  occ. eigenvalues --   -0.65048  -0.63019  -0.62469  -0.56196  -0.55580
 Alpha  occ. eigenvalues --   -0.54223  -0.53757  -0.53376  -0.52882  -0.49539
 Alpha  occ. eigenvalues --   -0.49510  -0.49249  -0.49214  -0.45477  -0.45266
 Alpha  occ. eigenvalues --   -0.38324  -0.37656  -0.37478  -0.36463
 Alpha virt. eigenvalues --    0.04164   0.04671   0.10222   0.10971   0.15510
 Alpha virt. eigenvalues --    0.16309   0.19514   0.21891   0.25244   0.26991
 Alpha virt. eigenvalues --    0.27758   0.29486   0.30203   0.30758   0.31476

 Mulliken charges:
               1
     1  C   -0.189110
     2  C   -0.218801
     3  C   -0.169467
     4  C    0.158447
     5  C   -0.173034
     6  C   -0.222040
     7  H    0.231027
     8  H    0.233148
     9  H    0.280712
    10  H    0.278304
    11  H    0.227606
    12  N    0.487755
    13  O   -0.458969
    14  O   -0.456663
    15  C   -0.172939
    16  C   -0.220681
    17  C   -0.177559
    18  C    0.159944
    19  C   -0.171743
    20  C   -0.217404
    21  H    0.228087
    22  H    0.233778
    23  H    0.262633
    24  H    0.276302
    25  H    0.225224
    26  N    0.488457
    27  O   -0.457719
    28  O   -0.465296
 Sum of Mulliken charges =  -0.00000

 Dipole moment (field-independent basis, Debye):
    X=             -0.1508    Y=              0.4707    Z=              4.1162  Tot=              4.1458
 Quadrupole moment (field-independent basis, Debye-Ang):
   XX=           -146.0044   YY=            -99.9292   ZZ=           -102.3777
   XY=             23.0732   XZ=             -4.6850   YZ=              0.5120

 Normal termination of Gaussian 16 at Thu May  6 00:18:04 2021.
