 Gaussian 16, Revision A.03,
 Gaussian 16:  EM64L-G16RevA.03 25-Dec-2016

 -------------
 #p 6-31g* mp2
 -------------

 ------------------------------------------------------
 Input file generated by CHIRIPA (05-May-2021 14:51:11)
 ------------------------------------------------------
 Symbolic Z-matrix:
 Charge =  0 Multiplicity = 1

                         Standard orientation:
 ---------------------------------------------------------------------
 Center     Atomic      Atomic             Coordinates (Angstroms)
 Number     Number       Type             X           Y           Z
 ---------------------------------------------------------------------
      1          6           0        4.851859   -0.061432   -0.079072
      2          6           0        5.336063   -1.478066    0.231862
      3          6           0        6.826667   -1.532894    0.567851
      4          1           0        5.433627    0.341944   -0.919179
      5          1           0        5.058254    0.586780    0.783840
      6          1           0        5.127562   -2.123724   -0.630848
      7          1           0        4.752945   -1.878188    1.071202
      8          1           0        7.047618   -0.911941    1.442035
      9          1           0        7.424364   -1.158872   -0.269686
     10          1           0        7.151531   -2.554850    0.786779
     11          6           0        3.363717    0.009666   -0.416866
     12          6           0        2.879513    1.426300   -0.727800
     13          6           0        1.388909    1.481129   -1.063789
     14          1           0        3.157322   -0.638546   -1.279778
     15          1           0        2.781949   -0.393710    0.423240
     16          1           0        3.462631    1.826422   -1.567140
     17          1           0        3.088014    2.071958    0.134910
     18          1           0        0.791212    1.107107   -0.226253
     19          1           0        1.167958    0.860176   -1.937973
     20          1           0        1.064045    2.503085   -1.282717
     21          6           0       -4.507022   -0.617440    0.348861
     22          6           0       -5.690836   -0.753012   -0.609363
     23          6           0       -6.479759   -2.045114   -0.395206
     24          1           0       -3.840108   -1.481217    0.222129
     25          1           0       -4.875353   -0.656062    1.383383
     26          1           0       -5.320535   -0.712756   -1.641775
     27          1           0       -6.354909    0.111284   -0.480470
     28          1           0       -6.876665   -2.089685    0.624147
     29          1           0       -5.836413   -2.918407   -0.543755
     30          1           0       -7.321420   -2.121547   -1.090638
     31          6           0       -3.708553    0.669206    0.147077
     32          6           0       -2.524741    0.804777    1.105302
     33          6           0       -1.735816    2.096879    0.891143
     34          1           0       -3.340223    0.707828   -0.887445
     35          1           0       -4.375467    1.532982    0.273810
     36          1           0       -1.860666   -0.059519    0.976409
     37          1           0       -2.895040    0.764521    2.137713
     38          1           0       -2.379162    2.970172    1.039693
     39          1           0       -1.338911    2.141450   -0.128209
     40          1           0       -0.894156    2.173313    1.586575
 ---------------------------------------------------------------------

 SCF Done:  E(RHF) =  -470.732223054     A.U. after   11 cycles
 E2 =    -0.1582875947D+01 EUMP2 =    -0.47231509900099D+03

 The electronic state is 1-A.
 Alpha  occ. eigenvalues --  -11.21602 -11.21582 -11.21573 -11.21569 -11.21401
 Alpha  occ. eigenvalues --  -11.21376 -11.21342 -11.21316 -11.21071 -11.21056
 Alpha  occ. eigenvalues --  -11.20987 -11.20933  -1.08427  -1.08394  -1.03555
 Alpha  occ. eigenvalues --   -1.03460  -0.96056  -0.95862  -0.87116  -0.86842
 Alpha  occ. eigenvalues --   -0.79674  -0.79476  -0.78243  -0.78206  -0.65102
 Alpha  occ. eigenvalues --   -0.64993  -0.61112  -0.60743  -0.59344  -0.59314
 Alpha  occ. eigenvalues --   -0.57609  -0.57522  -0.55569  -0.54970  -0.52771
 Alpha  occ. eigenvalues --   -0.52603  -0.52375  -0.52305  -0.50151  -0.49583
 Alpha  occ. eigenvalues --   -0.47906  -0.47854  -0.46715  -0.46454  -0.45797
 Alpha  occ. eigenvalues --   -0.45736  -0.45702  -0.45646  -0.43775  -0.43723
 Alpha virt. eigenvalues --    0.21982   0.23008   0.23642   0.24880   0.26489
 Alpha virt. eigenvalues --    0.26567   0.27194   0.27470   0.27676   0.29209
 Alpha virt. eigenvalues --    0.29744   0.31196   0.31680   0.31903   0.32184

 Mulliken charges:
               1
     1  C   -0.298263
     2  C   -0.299632
     3  C   -0.475698
     4  H    0.149692
     5  H    0.149536
     6  H    0.151857
     7  H    0.151891
     8  H    0.155198
     9  H    0.155186
    10  H    0.160234
    11  C   -0.298492
    12  C   -0.299928
    13  C   -0.480575
    14  H    0.149321
    15  H    0.149436
    16  H    0.151565
    17  H    0.151873
    18  H    0.163533
    19  H    0.153703
    20  H    0.160091
    21  C   -0.298287
    22  C   -0.299647
    23  C   -0.475688
    24  H    0.149615
    25  H    0.149402
    26  H    0.151951
    27  H    0.151898
    28  H    0.155128
    29  H    0.155150
    30  H    0.160186
    31  C   -0.298255
    32  C   -0.301301
    33  C   -0.480853
    34  H    0.149991
    35  H    0.149645
    36  H    0.151782
    37  H    0.151736
    38  H    0.154640
    39  H    0.163873
    40  H    0.158508
 Sum of Mulliken charges =  -0.00000

 Dipole moment (field-independent basis, Debye):
    X=              0.0015    Y=              0.0114    Z=             -0.0123  Tot=              0.0168
 Quadrupole moment (field-independent basis, Debye-Ang):
   XX=            -86.1159   YY=            -85.3937   ZZ=            -83.4749
   XY=             -0.7027   XZ=             -0.8081   YZ=              0.5243

 Normal termination of Gaussian 16 at Wed May  5 18:14:42 2021.
