 Gaussian 16, Revision A.03,
 Gaussian 16:  EM64L-G16RevA.03 25-Dec-2016

 -------------
 #p 6-31g* mp2
 -------------

 ------------------------------------------------------
 Input file generated by CHIRIPA (05-May-2021 14:55:23)
 ------------------------------------------------------
 Symbolic Z-matrix:
 Charge =  0 Multiplicity = 1

                         Standard orientation:
 ---------------------------------------------------------------------
 Center     Atomic      Atomic             Coordinates (Angstroms)
 Number     Number       Type             X           Y           Z
 ---------------------------------------------------------------------
      1          6           0       -3.410651   -2.235958    0.189395
      2          6           0       -4.221310   -1.464873   -0.650118
      3          6           0       -4.061278   -0.077448   -0.713297
      4          6           0       -3.076350    0.508604    0.080270
      5          6           0       -2.253075   -0.232493    0.926605
      6          6           0       -2.430848   -1.618396    0.973694
      7          1           0       -3.541858   -3.313152    0.232224
      8          1           0       -4.983044   -1.941775   -1.260338
      9          1           0       -4.675102    0.543460   -1.354477
     10          1           0       -1.502245    0.271403    1.523062
     11          1           0       -1.799838   -2.214720    1.626587
     12          7           0       -2.897541    1.976603    0.021902
     13          8           0       -2.022638    2.468858    0.731033
     14          8           0       -3.635679    2.607169   -0.731873
     15          6           0        3.232321   -0.362374    0.060293
     16          6           0        2.518919   -1.606052   -0.471032
     17          6           0        1.032906   -1.633755   -0.112158
     18          1           0        3.116413   -0.319243    1.151920
     19          1           0        2.740251    0.533993   -0.341939
     20          1           0        3.013049   -2.499829   -0.069018
     21          1           0        2.636702   -1.646329   -1.561500
     22          1           0        0.520126   -0.759788   -0.526694
     23          1           0        0.898612   -1.618137    0.974268
     24          1           0        0.542475   -2.531280   -0.501755
     25          6           0        4.718579   -0.320278   -0.290411
     26          6           0        5.431981    0.923402    0.240914
     27          6           0        6.917994    0.951103   -0.117960
     28          1           0        5.210648   -1.216643    0.111820
     29          1           0        4.834487   -0.363407   -1.382038
     30          1           0        5.314197    0.963679    1.331382
     31          1           0        4.937851    1.817178   -0.161100
     32          1           0        7.052288    0.935485   -1.204386
     33          1           0        7.430773    0.077136    0.296575
     34          1           0        7.408425    1.848630    0.271637
 ---------------------------------------------------------------------

 SCF Done:  E(RHF) =  -669.535204717     A.U. after   15 cycles
 E2 =    -0.2091964672D+01 EUMP2 =    -0.67162716938933D+03

 The electronic state is 1-A.
 Alpha  occ. eigenvalues --  -20.60743 -20.60738 -15.85796 -11.31139 -11.27703
 Alpha  occ. eigenvalues --  -11.27684 -11.27440 -11.26722 -11.26688 -11.21840
 Alpha  occ. eigenvalues --  -11.21565 -11.21521 -11.21487 -11.21407 -11.21033
 Alpha  occ. eigenvalues --   -1.59820  -1.39374  -1.19312  -1.08712  -1.08532
 Alpha  occ. eigenvalues --   -1.04714  -1.03668  -0.96140  -0.95548  -0.87168
 Alpha  occ. eigenvalues --   -0.86107  -0.82381  -0.79745  -0.78325  -0.77420
 Alpha  occ. eigenvalues --   -0.72014  -0.71145  -0.70420  -0.65164  -0.64963
 Alpha  occ. eigenvalues --   -0.64711  -0.62066  -0.61065  -0.59511  -0.57738
 Alpha  occ. eigenvalues --   -0.55438  -0.55212  -0.53276  -0.52854  -0.52671
 Alpha  occ. eigenvalues --   -0.52453  -0.50078  -0.48771  -0.48770  -0.48054
 Alpha  occ. eigenvalues --   -0.46759  -0.45877  -0.45776  -0.44783  -0.43916
 Alpha  occ. eigenvalues --   -0.37293  -0.36240
 Alpha virt. eigenvalues --    0.05092   0.11296   0.16548   0.20783   0.22829
 Alpha virt. eigenvalues --    0.24082   0.25907   0.26721   0.27508   0.28235
 Alpha virt. eigenvalues --    0.29018   0.30398   0.31398   0.31726   0.32194

 Mulliken charges:
               1
     1  C   -0.172614
     2  C   -0.218513
     3  C   -0.171398
     4  C    0.156886
     5  C   -0.169216
     6  C   -0.213358
     7  H    0.225258
     8  H    0.223099
     9  H    0.275261
    10  H    0.275908
    11  H    0.224409
    12  N    0.488127
    13  O   -0.460724
    14  O   -0.460625
    15  C   -0.299450
    16  C   -0.300917
    17  C   -0.475000
    18  H    0.148430
    19  H    0.154430
    20  H    0.150635
    21  H    0.153715
    22  H    0.162070
    23  H    0.144616
    24  H    0.157351
    25  C   -0.298402
    26  C   -0.300114
    27  C   -0.475845
    28  H    0.148457
    29  H    0.150102
    30  H    0.151991
    31  H    0.154644
    32  H    0.155316
    33  H    0.154350
    34  H    0.161120
 Sum of Mulliken charges =  -0.00000

 Dipole moment (field-independent basis, Debye):
    X=             -0.5903    Y=             -5.1303    Z=              0.1681  Tot=              5.1669
 Quadrupole moment (field-independent basis, Debye-Ang):
   XX=            -89.6206   YY=           -100.5991   ZZ=            -92.2531
   XY=             15.4855   XZ=              2.4685   YZ=             -0.9470

 Normal termination of Gaussian 16 at Thu May  6 07:51:54 2021.
