 Gaussian 16, Revision A.03,
 Gaussian 16:  EM64L-G16RevA.03 25-Dec-2016

 -------------
 #p 6-31g* mp2
 -------------

 ------------------------------------------------------
 Input file generated by CHIRIPA (05-May-2021 14:55:21)
 ------------------------------------------------------
 Symbolic Z-matrix:
 Charge =  0 Multiplicity = 1

                         Standard orientation:
 ---------------------------------------------------------------------
 Center     Atomic      Atomic             Coordinates (Angstroms)
 Number     Number       Type             X           Y           Z
 ---------------------------------------------------------------------
      1          6           0        4.570518    0.558616   -1.273743
      2          6           0        4.776170   -0.134866   -0.076533
      3          6           0        3.693522   -0.487737    0.734579
      4          6           0        2.412941   -0.129621    0.316062
      5          6           0        2.175670    0.561297   -0.871214
      6          6           0        3.273212    0.903875   -1.666570
      7          1           0        5.417330    0.828737   -1.897714
      8          1           0        5.782569   -0.404305    0.231051
      9          1           0        3.824164   -1.024621    1.666301
     10          1           0        1.160788    0.816121   -1.151386
     11          1           0        3.110505    1.442441   -2.595827
     12          7           0        1.258906   -0.497742    1.166410
     13          8           0        0.140552   -0.170618    0.775372
     14          8           0        1.494580   -1.106428    2.207849
     15          6           0       -3.474752    0.666254    0.253345
     16          6           0       -3.072209    2.030818   -0.306933
     17          6           0       -3.363971    3.177102    0.661933
     18          1           0       -4.545907    0.678564    0.497104
     19          1           0       -2.941123    0.493727    1.198263
     20          1           0       -3.605390    2.200121   -1.251216
     21          1           0       -2.001928    2.015197   -0.549565
     22          1           0       -2.820026    3.035332    1.601415
     23          1           0       -4.432598    3.221308    0.895776
     24          1           0       -3.068475    4.143339    0.241303
     25          6           0       -3.189287   -0.489742   -0.703687
     26          6           0       -3.591829   -1.854306   -0.143410
     27          6           0       -3.300067   -3.000591   -1.112275
     28          1           0       -3.722916   -0.317215   -1.648605
     29          1           0       -2.118131   -0.502053   -0.947446
     30          1           0       -4.662110   -1.838685    0.099222
     31          1           0       -3.058650   -2.023609    0.800873
     32          1           0       -2.231440   -3.044796   -1.346119
     33          1           0       -3.844011   -2.858821   -2.051757
     34          1           0       -3.595563   -3.966827   -0.691645
 ---------------------------------------------------------------------

 SCF Done:  E(RHF) =  -669.536459407     A.U. after   15 cycles
 E2 =    -0.2091923143D+01 EUMP2 =    -0.67162838255044D+03

 The electronic state is 1-A.
 Alpha  occ. eigenvalues --  -20.61074 -20.61066 -15.86098 -11.31366 -11.27926
 Alpha  occ. eigenvalues --  -11.27920 -11.27650 -11.26919 -11.26909 -11.20688
 Alpha  occ. eigenvalues --  -11.20435 -11.20301 -11.20181 -11.20143 -11.20083
 Alpha  occ. eigenvalues --   -1.60128  -1.39686  -1.19530  -1.08944  -1.07274
 Alpha  occ. eigenvalues --   -1.04919  -1.02531  -0.95797  -0.94978  -0.86322
 Alpha  occ. eigenvalues --   -0.86012  -0.82633  -0.78598  -0.77702  -0.77085
 Alpha  occ. eigenvalues --   -0.72341  -0.71436  -0.70639  -0.65200  -0.64921
 Alpha  occ. eigenvalues --   -0.63816  -0.62267  -0.59914  -0.58373  -0.56612
 Alpha  occ. eigenvalues --   -0.55424  -0.54239  -0.53253  -0.53010  -0.51745
 Alpha  occ. eigenvalues --   -0.51437  -0.49097  -0.49064  -0.48921  -0.46941
 Alpha  occ. eigenvalues --   -0.45605  -0.45136  -0.44639  -0.44430  -0.42734
 Alpha  occ. eigenvalues --   -0.37505  -0.36517
 Alpha virt. eigenvalues --    0.04813   0.11136   0.16308   0.20681   0.23464
 Alpha virt. eigenvalues --    0.25134   0.25794   0.27469   0.28235   0.28843
 Alpha virt. eigenvalues --    0.29264   0.31205   0.31931   0.32518   0.32720

 Mulliken charges:
               1
     1  C   -0.170337
     2  C   -0.218604
     3  C   -0.170540
     4  C    0.157558
     5  C   -0.171371
     6  C   -0.218758
     7  H    0.226340
     8  H    0.224093
     9  H    0.275949
    10  H    0.276672
    11  H    0.224436
    12  N    0.493751
    13  O   -0.466738
    14  O   -0.458237
    15  C   -0.298519
    16  C   -0.298859
    17  C   -0.475706
    18  H    0.142874
    19  H    0.166045
    20  H    0.145492
    21  H    0.151467
    22  H    0.158765
    23  H    0.153115
    24  H    0.154272
    25  C   -0.299327
    26  C   -0.300617
    27  C   -0.474966
    28  H    0.139745
    29  H    0.160452
    30  H    0.146666
    31  H    0.162783
    32  H    0.154332
    33  H    0.150297
    34  H    0.157474
 Sum of Mulliken charges =  -0.00000

 Dipole moment (field-independent basis, Debye):
    X=              4.4172    Y=              1.2309    Z=             -2.8000  Tot=              5.3727
 Quadrupole moment (field-independent basis, Debye-Ang):
   XX=            -73.7052   YY=            -96.4878   ZZ=            -95.1674
   XY=              1.3080   XZ=             -3.9575   YZ=             -1.6643

 Normal termination of Gaussian 16 at Wed May  5 18:57:32 2021.
