 Gaussian 16, Revision A.03,
 Gaussian 16:  EM64L-G16RevA.03 25-Dec-2016

 -------------
 #p 6-31g* mp2
 -------------

 ------------------------------------------------------
 Input file generated by CHIRIPA (05-May-2021 14:55:22)
 ------------------------------------------------------
 Symbolic Z-matrix:
 Charge =  0 Multiplicity = 1

                         Standard orientation:
 ---------------------------------------------------------------------
 Center     Atomic      Atomic             Coordinates (Angstroms)
 Number     Number       Type             X           Y           Z
 ---------------------------------------------------------------------
      1          6           0        4.335635   -1.470433   -1.436400
      2          6           0        3.037612   -1.063194   -1.761690
      3          6           0        2.284960   -0.303907   -0.860832
      4          6           0        2.864100    0.031857    0.361931
      5          6           0        4.154810   -0.358821    0.715100
      6          6           0        4.889116   -1.117569   -0.201221
      7          1           0        4.913188   -2.060057   -2.142214
      8          1           0        2.605211   -1.335772   -2.720217
      9          1           0        1.277831    0.024657   -1.087005
     10          1           0        4.558860   -0.071700    1.678284
     11          1           0        5.896942   -1.432443    0.054092
     12          7           0        2.077012    0.835395    1.323814
     13          8           0        2.610021    1.118201    2.394589
     14          8           0        0.941987    1.167188    0.988750
     15          6           0       -4.009953   -0.353345    0.304797
     16          6           0       -5.243908   -1.206280    0.008417
     17          6           0       -5.587069   -2.165697    1.148397
     18          1           0       -3.154006   -1.013672    0.500416
     19          1           0       -4.180976    0.218336    1.227470
     20          1           0       -5.071149   -1.775135   -0.914174
     21          1           0       -6.096972   -0.543844   -0.186708
     22          1           0       -5.785838   -1.611679    2.071521
     23          1           0       -4.754186   -2.849967    1.339921
     24          1           0       -6.472335   -2.765620    0.915471
     25          6           0       -3.654231    0.610818   -0.825505
     26          6           0       -2.420276    1.463754   -0.529125
     27          6           0       -2.077114    2.423170   -1.669105
     28          1           0       -3.483206    0.039138   -1.748179
     29          1           0       -4.510177    1.271146   -1.021124
     30          1           0       -1.567210    0.801317   -0.334000
     31          1           0       -2.593034    2.032609    0.393467
     32          1           0       -2.909997    3.107441   -1.860628
     33          1           0       -1.878346    1.869153   -2.592228
     34          1           0       -1.191848    3.023094   -1.436179
 ---------------------------------------------------------------------

 SCF Done:  E(RHF) =  -669.535801252     A.U. after   15 cycles
 E2 =    -0.2091265374D+01 EUMP2 =    -0.67162706662618D+03

 The electronic state is 1-A.
 Alpha  occ. eigenvalues --  -20.60883 -20.60875 -15.85923 -11.31268 -11.27837
 Alpha  occ. eigenvalues --  -11.27831 -11.27575 -11.26848 -11.26838 -11.21213
 Alpha  occ. eigenvalues --  -11.20855 -11.20784 -11.20732 -11.20659 -11.20438
 Alpha  occ. eigenvalues --   -1.59950  -1.39505  -1.19439  -1.08839  -1.07857
 Alpha  occ. eigenvalues --   -1.04840  -1.02954  -0.95679  -0.95444  -0.86468
 Alpha  occ. eigenvalues --   -0.86239  -0.82514  -0.79010  -0.77699  -0.77485
 Alpha  occ. eigenvalues --   -0.72144  -0.71267  -0.70548  -0.65097  -0.64846
 Alpha  occ. eigenvalues --   -0.64499  -0.62191  -0.60366  -0.58794  -0.57012
 Alpha  occ. eigenvalues --   -0.55342  -0.54768  -0.53170  -0.52931  -0.52135
 Alpha  occ. eigenvalues --   -0.51861  -0.49424  -0.48911  -0.48900  -0.47312
 Alpha  occ. eigenvalues --   -0.46043  -0.45188  -0.45120  -0.44858  -0.43212
 Alpha  occ. eigenvalues --   -0.37420  -0.36442
 Alpha virt. eigenvalues --    0.04962   0.11210   0.16455   0.20730   0.23095
 Alpha virt. eigenvalues --    0.24228   0.26569   0.27474   0.27649   0.28451
 Alpha virt. eigenvalues --    0.28981   0.30577   0.31613   0.32083   0.32503

 Mulliken charges:
               1
     1  C   -0.170505
     2  C   -0.219313
     3  C   -0.171775
     4  C    0.157432
     5  C   -0.170725
     6  C   -0.218642
     7  H    0.225911
     8  H    0.223948
     9  H    0.278281
    10  H    0.275790
    11  H    0.223737
    12  N    0.492687
    13  O   -0.459556
    14  O   -0.465024
    15  C   -0.297262
    16  C   -0.299029
    17  C   -0.475246
    18  H    0.149380
    19  H    0.152192
    20  H    0.149041
    21  H    0.151237
    22  H    0.156133
    23  H    0.154390
    24  H    0.158362
    25  C   -0.298417
    26  C   -0.302743
    27  C   -0.477443
    28  H    0.142993
    29  H    0.147468
    30  H    0.164454
    31  H    0.157941
    32  H    0.152888
    33  H    0.145289
    34  H    0.166126
 Sum of Mulliken charges =  -0.00000

 Dipole moment (field-independent basis, Debye):
    X=              2.9616    Y=             -2.7760    Z=             -3.2330  Tot=              5.1893
 Quadrupole moment (field-independent basis, Debye-Ang):
   XX=            -76.5481   YY=            -95.8426   ZZ=            -96.2064
   XY=             -9.2527   XZ=             -6.4362   YZ=             -0.0235

 Normal termination of Gaussian 16 at Wed May  5 22:16:59 2021.
