 Gaussian 16, Revision A.03,
 Gaussian 16:  EM64L-G16RevA.03 25-Dec-2016

 -------------
 #p 6-31g* mp2
 -------------

 ------------------------------------------------------
 Input file generated by CHIRIPA (05-May-2021 14:55:24)
 ------------------------------------------------------
 Symbolic Z-matrix:
 Charge =  0 Multiplicity = 1

                         Standard orientation:
 ---------------------------------------------------------------------
 Center     Atomic      Atomic             Coordinates (Angstroms)
 Number     Number       Type             X           Y           Z
 ---------------------------------------------------------------------
      1          6           0       -6.163391    1.018007   -0.066431
      2          6           0       -6.037116   -0.349887   -0.329951
      3          6           0       -4.775120   -0.949083   -0.383597
      4          6           0       -3.655611   -0.146908   -0.167946
      5          6           0       -3.748755    1.218569    0.096793
      6          6           0       -5.020822    1.796497    0.145726
      7          1           0       -7.147651    1.475216   -0.026588
      8          1           0       -6.922706   -0.956927   -0.495109
      9          1           0       -4.648538   -2.005757   -0.585675
     10          1           0       -2.847573    1.797826    0.257266
     11          1           0       -5.115867    2.859062    0.350581
     12          7           0       -2.314262   -0.769992   -0.222244
     13          8           0       -1.343493   -0.041432   -0.028739
     14          8           0       -2.259081   -1.975127   -0.457280
     15          6           0        4.510670   -0.218261    0.754922
     16          6           0        3.029328    0.091248    0.536259
     17          6           0        2.138833   -0.465118    1.647686
     18          1           0        4.645016   -1.306422    0.824222
     19          1           0        4.826205    0.197836    1.721720
     20          1           0        2.717025   -0.324109   -0.430468
     21          1           0        2.898520    1.178790    0.467281
     22          1           0        2.422354   -0.041807    2.616719
     23          1           0        2.239827   -1.553245    1.713870
     24          1           0        1.084030   -0.232403    1.471349
     25          6           0        5.413636    0.331454   -0.347890
     26          6           0        6.894978    0.021945   -0.129226
     27          6           0        7.785473    0.578311   -1.240653
     28          1           0        5.098101   -0.084643   -1.314687
     29          1           0        5.279291    1.419614   -0.417189
     30          1           0        7.025786   -1.065597   -0.060248
     31          1           0        7.207281    0.437302    0.837501
     32          1           0        7.684478    1.666439   -1.306837
     33          1           0        7.501953    0.155000   -2.209686
     34          1           0        8.840276    0.345596   -1.064316
 ---------------------------------------------------------------------

 SCF Done:  E(RHF) =  -669.536246239     A.U. after   15 cycles
 E2 =    -0.2090703749D+01 EUMP2 =    -0.67162694998796D+03

 The electronic state is 1-A.
 Alpha  occ. eigenvalues --  -20.60969 -20.60964 -15.86001 -11.31308 -11.27869
 Alpha  occ. eigenvalues --  -11.27866 -11.27606 -11.26874 -11.26865 -11.20967
 Alpha  occ. eigenvalues --  -11.20593 -11.20547 -11.20392 -11.20285 -11.19438
 Alpha  occ. eigenvalues --   -1.60026  -1.39583  -1.19475  -1.08882  -1.07511
 Alpha  occ. eigenvalues --   -1.04869  -1.02526  -0.95727  -0.94971  -0.86271
 Alpha  occ. eigenvalues --   -0.85997  -0.82560  -0.78636  -0.77614  -0.77285
 Alpha  occ. eigenvalues --   -0.72226  -0.71338  -0.70584  -0.65131  -0.64872
 Alpha  occ. eigenvalues --   -0.64154  -0.62217  -0.59939  -0.58380  -0.56541
 Alpha  occ. eigenvalues --   -0.55374  -0.54288  -0.53202  -0.52962  -0.51632
 Alpha  occ. eigenvalues --   -0.51408  -0.48988  -0.48971  -0.48925  -0.46921
 Alpha  occ. eigenvalues --   -0.45700  -0.45001  -0.44825  -0.44740  -0.42752
 Alpha  occ. eigenvalues --   -0.37453  -0.36470
 Alpha virt. eigenvalues --    0.04898   0.11185   0.16387   0.21316   0.23716
 Alpha virt. eigenvalues --    0.25376   0.27240   0.27516   0.28150   0.28385
 Alpha virt. eigenvalues --    0.29088   0.30875   0.32334   0.32369   0.32609

 Mulliken charges:
               1
     1  C   -0.170546
     2  C   -0.218595
     3  C   -0.170523
     4  C    0.157715
     5  C   -0.170718
     6  C   -0.218547
     7  H    0.226048
     8  H    0.223866
     9  H    0.275909
    10  H    0.275797
    11  H    0.223894
    12  N    0.490831
    13  O   -0.462265
    14  O   -0.458490
    15  C   -0.297537
    16  C   -0.297215
    17  C   -0.485162
    18  H    0.148531
    19  H    0.145996
    20  H    0.156936
    21  H    0.147172
    22  H    0.144420
    23  H    0.152246
    24  H    0.185761
    25  C   -0.297452
    26  C   -0.298890
    27  C   -0.475178
    28  H    0.149564
    29  H    0.147592
    30  H    0.151403
    31  H    0.150427
    32  H    0.153960
    33  H    0.154805
    34  H    0.158245
 Sum of Mulliken charges =  -0.00000

 Dipole moment (field-independent basis, Debye):
    X=             -5.1245    Y=              2.1590    Z=              0.1200  Tot=              5.5620
 Quadrupole moment (field-independent basis, Debye-Ang):
   XX=            -61.7033   YY=            -90.9541   ZZ=            -96.0878
   XY=             -5.6264   XZ=              0.9459   YZ=              1.3967

 Normal termination of Gaussian 16 at Wed May  5 17:36:27 2021.
