 Gaussian 16, Revision A.03,
 Gaussian 16:  EM64L-G16RevA.03 25-Dec-2016

 -------------
 #p 6-31g* mp2
 -------------

 ------------------------------------------------------
 Input file generated by CHIRIPA (05-May-2021 14:57:22)
 ------------------------------------------------------
 Symbolic Z-matrix:
 Charge =  0 Multiplicity = 1

                         Standard orientation:
 ---------------------------------------------------------------------
 Center     Atomic      Atomic             Coordinates (Angstroms)
 Number     Number       Type             X           Y           Z
 ---------------------------------------------------------------------
      1          6           0       -3.287411    2.530211   -0.373629
      2          6           0       -2.206412    1.954061   -1.048916
      3          6           0       -2.017318    0.568925   -1.035108
      4          6           0       -2.932587   -0.213642   -0.332852
      5          6           0       -4.019433    0.330599    0.349685
      6          6           0       -4.188882    1.718073    0.322290
      7          1           0       -3.426673    3.607126   -0.389633
      8          1           0       -1.504735    2.582319   -1.590198
      9          1           0       -1.189110    0.096601   -1.549305
     10          1           0       -4.702224   -0.321591    0.880594
     11          1           0       -5.029309    2.162763    0.847627
     12          7           0       -2.742800   -1.681261   -0.311042
     13          8           0       -3.563232   -2.348827    0.314964
     14          8           0       -1.777207   -2.136224   -0.920366
     15          6           0        0.936086   -0.388762    1.793862
     16          6           0        1.363779   -1.399774    0.926996
     17          6           0        2.486004   -1.211023    0.114881
     18          6           0        3.159904    0.006614    0.195549
     19          6           0        2.758464    1.033065    1.049092
     20          6           0        1.633565    0.822295    1.852040
     21          1           0        0.063276   -0.543941    2.421172
     22          1           0        0.824052   -2.341318    0.879714
     23          1           0        2.838885   -1.976813   -0.565163
     24          1           0        3.316971    1.960892    1.074098
     25          1           0        1.303697    1.609232    2.524322
     26          7           0        4.349369    0.218092   -0.659348
     27          8           0        4.925786    1.299908   -0.569599
     28          8           0        4.682733   -0.701973   -1.402979
 ---------------------------------------------------------------------

 SCF Done:  E(RHF) =  -868.339566674     A.U. after   16 cycles
 E2 =    -0.2600012844D+01 EUMP2 =    -0.87093957951739D+03

 The electronic state is 1-A.
 Alpha  occ. eigenvalues --  -20.61618 -20.61605 -20.60682 -20.60666 -15.86641
 Alpha  occ. eigenvalues --  -15.85723 -11.31820 -11.31023 -11.28387 -11.28330
 Alpha  occ. eigenvalues --  -11.28072 -11.27596 -11.27458 -11.27346 -11.27290
 Alpha  occ. eigenvalues --  -11.27247 -11.26634 -11.26376  -1.60689  -1.59755
 Alpha  occ. eigenvalues --   -1.40242  -1.39309  -1.19981  -1.19166  -1.09411
 Alpha  occ. eigenvalues --   -1.08572  -1.05339  -1.04526  -0.96271  -0.95423
 Alpha  occ. eigenvalues --   -0.86746  -0.85922  -0.83099  -0.82234  -0.78171
 Alpha  occ. eigenvalues --   -0.77296  -0.72861  -0.72029  -0.71933  -0.71084
 Alpha  occ. eigenvalues --   -0.71067  -0.70259  -0.65625  -0.65326  -0.64796
 Alpha  occ. eigenvalues --   -0.64475  -0.62676  -0.61847  -0.55846  -0.55034
 Alpha  occ. eigenvalues --   -0.53716  -0.53422  -0.52882  -0.52576  -0.49626
 Alpha  occ. eigenvalues --   -0.49606  -0.48702  -0.48690  -0.45679  -0.44729
 Alpha  occ. eigenvalues --   -0.37985  -0.37264  -0.36805  -0.36123
 Alpha virt. eigenvalues --    0.04307   0.05185   0.10685   0.11532   0.15841
 Alpha virt. eigenvalues --    0.16720   0.20921   0.21744   0.26859   0.27630
 Alpha virt. eigenvalues --    0.27914   0.28472   0.30517   0.31348   0.31985

 Mulliken charges:
               1
     1  C   -0.171031
     2  C   -0.219642
     3  C   -0.168375
     4  C    0.153657
     5  C   -0.172668
     6  C   -0.219504
     7  H    0.227705
     8  H    0.227416
     9  H    0.278780
    10  H    0.275717
    11  H    0.224797
    12  N    0.486384
    13  O   -0.459130
    14  O   -0.462922
    15  C   -0.175878
    16  C   -0.216848
    17  C   -0.174694
    18  C    0.156984
    19  C   -0.175105
    20  C   -0.219104
    21  H    0.225828
    22  H    0.240293
    23  H    0.278078
    24  H    0.272914
    25  H    0.220474
    26  N    0.487800
    27  O   -0.462764
    28  O   -0.459164
 Sum of Mulliken charges =  -0.00000

 Dipole moment (field-independent basis, Debye):
    X=             -5.0225    Y=              4.3243    Z=              2.8595  Tot=              7.2181
 Quadrupole moment (field-independent basis, Debye-Ang):
   XX=           -125.3377   YY=           -103.1163   ZZ=           -102.4874
   XY=            -17.1275   XZ=              6.7096   YZ=             -0.3803

 Normal termination of Gaussian 16 at Thu May  6 00:11:10 2021.
