 Gaussian 16, Revision A.03,
 Gaussian 16:  EM64L-G16RevA.03 25-Dec-2016

 -------------
 #p 6-31g* mp2
 -------------

 ------------------------------------------------------
 Input file generated by CHIRIPA (05-May-2021 14:53:18)
 ------------------------------------------------------
 Symbolic Z-matrix:
 Charge =  0 Multiplicity = 1

                         Standard orientation:
 ---------------------------------------------------------------------
 Center     Atomic      Atomic             Coordinates (Angstroms)
 Number     Number       Type             X           Y           Z
 ---------------------------------------------------------------------
      1          6           0        2.770853    1.350190   -0.175906
      2          6           0        1.592245    1.904088    0.625382
      3          6           0        1.500501    3.429096    0.564317
      4          1           0        3.703145    1.790514    0.203424
      5          1           0        2.676792    1.671169   -1.222577
      6          1           0        1.687766    1.581006    1.669944
      7          1           0        0.662667    1.462248    0.244226
      8          1           0        1.380782    3.766709   -0.470229
      9          1           0        2.411705    3.886141    0.963589
     10          1           0        0.651022    3.803711    1.143893
     11          6           0        2.875881   -0.172984   -0.124546
     12          6           0        4.054490   -0.726883   -0.925834
     13          6           0        4.146234   -2.251891   -0.864770
     14          1           0        2.969943   -0.493964    0.922125
     15          1           0        1.943589   -0.613309   -0.503876
     16          1           0        4.984067   -0.285043   -0.544679
     17          1           0        3.958969   -0.403801   -1.970396
     18          1           0        3.235030   -2.708936   -1.264042
     19          1           0        4.265953   -2.589504    0.169776
     20          1           0        4.995713   -2.626506   -1.444346
     21          6           0       -3.462384    1.257251   -1.238508
     22          6           0       -2.699033    1.657280   -0.136785
     23          6           0       -1.998644    0.714547    0.621673
     24          6           0       -2.084269   -0.625848    0.248445
     25          6           0       -2.836290   -1.055659   -0.843809
     26          6           0       -3.528460   -0.095557   -1.587887
     27          1           0       -4.003270    1.996335   -1.822111
     28          1           0       -2.645886    2.707200    0.136872
     29          1           0       -1.400161    0.996661    1.479372
     30          1           0       -2.869982   -2.109523   -1.092109
     31          1           0       -4.120500   -0.409116   -2.442998
     32          7           0       -1.347150   -1.633072    1.043780
     33          8           0       -1.438871   -2.807839    0.694286
     34          8           0       -0.691633   -1.228694    2.001596
 ---------------------------------------------------------------------

 SCF Done:  E(RHF) =  -669.534943251     A.U. after   15 cycles
 E2 =    -0.2093222550D+01 EUMP2 =    -0.67162816580032D+03

 The electronic state is 1-A.
 Alpha  occ. eigenvalues --  -20.60811 -20.60790 -15.85853 -11.31227 -11.27810
 Alpha  occ. eigenvalues --  -11.27769 -11.27549 -11.26815 -11.26802 -11.21489
 Alpha  occ. eigenvalues --  -11.21292 -11.21188 -11.21178 -11.20904 -11.20539
 Alpha  occ. eigenvalues --   -1.59873  -1.39426  -1.19415  -1.08799  -1.08156
 Alpha  occ. eigenvalues --   -1.04821  -1.03314  -0.95768  -0.95631  -0.86780
 Alpha  occ. eigenvalues --   -0.86209  -0.82462  -0.79408  -0.77952  -0.77471
 Alpha  occ. eigenvalues --   -0.72069  -0.71196  -0.70519  -0.65061  -0.64870
 Alpha  occ. eigenvalues --   -0.64737  -0.62186  -0.60707  -0.59171  -0.57368
 Alpha  occ. eigenvalues --   -0.55310  -0.55044  -0.53172  -0.52907  -0.52490
 Alpha  occ. eigenvalues --   -0.52168  -0.49684  -0.48832  -0.48823  -0.47685
 Alpha  occ. eigenvalues --   -0.46417  -0.45533  -0.45366  -0.44753  -0.43547
 Alpha  occ. eigenvalues --   -0.37386  -0.36354
 Alpha virt. eigenvalues --    0.05000   0.11176   0.16469   0.20812   0.23132
 Alpha virt. eigenvalues --    0.24246   0.26506   0.26941   0.27442   0.28129
 Alpha virt. eigenvalues --    0.29269   0.30703   0.31613   0.31726   0.32384

 Mulliken charges:
               1
     1  C   -0.297832
     2  C   -0.307797
     3  C   -0.475019
     4  H    0.149130
     5  H    0.146637
     6  H    0.159320
     7  H    0.152265
     8  H    0.153667
     9  H    0.158250
    10  H    0.150814
    11  C   -0.297230
    12  C   -0.300021
    13  C   -0.475594
    14  H    0.158449
    15  H    0.148208
    16  H    0.150425
    17  H    0.148725
    18  H    0.157550
    19  H    0.158768
    20  H    0.157596
    21  C   -0.170531
    22  C   -0.219938
    23  C   -0.172809
    24  C    0.157777
    25  C   -0.171116
    26  C   -0.218603
    27  H    0.225911
    28  H    0.224628
    29  H    0.280881
    30  H    0.275713
    31  H    0.223591
    32  N    0.488567
    33  O   -0.460568
    34  O   -0.459814
 Sum of Mulliken charges =  -0.00000

 Dipole moment (field-independent basis, Debye):
    X=             -2.6066    Y=              3.4152    Z=             -2.7171  Tot=              5.0833
 Quadrupole moment (field-independent basis, Debye-Ang):
   XX=            -83.6095   YY=            -98.4709   ZZ=            -94.1751
   XY=             -4.3844   XZ=              7.3934   YZ=              5.0587

 Normal termination of Gaussian 16 at Wed May  5 20:27:22 2021.
