 Gaussian 16, Revision A.03,
 Gaussian 16:  EM64L-G16RevA.03 25-Dec-2016

 -------------
 #p 6-31g* mp2
 -------------

 ------------------------------------------------------
 Input file generated by CHIRIPA (05-May-2021 14:55:19)
 ------------------------------------------------------
 Symbolic Z-matrix:
 Charge =  0 Multiplicity = 1

                         Standard orientation:
 ---------------------------------------------------------------------
 Center     Atomic      Atomic             Coordinates (Angstroms)
 Number     Number       Type             X           Y           Z
 ---------------------------------------------------------------------
      1          6           0       -2.786837    1.470921    1.772435
      2          6           0       -3.114338    0.136451    2.034073
      3          6           0       -2.882392   -0.852933    1.073933
      4          6           0       -2.319011   -0.470785   -0.142559
      5          6           0       -1.981850    0.850287   -0.433045
      6          6           0       -2.222633    1.822959    0.541881
      7          1           0       -2.970450    2.233008    2.524038
      8          1           0       -3.552623   -0.139850    2.988855
      9          1           0       -3.126348   -1.893529    1.250182
     10          1           0       -1.546165    1.095113   -1.394115
     11          1           0       -1.967286    2.858540    0.335933
     12          7           0       -2.068783   -1.509356   -1.166843
     13          8           0       -1.571415   -1.146844   -2.230726
     14          8           0       -2.374760   -2.666233   -0.886398
     15          6           0        2.931542    1.135438   -0.133652
     16          6           0        1.677088    1.495979   -0.930108
     17          6           0        1.511697    3.003840   -1.121930
     18          1           0        2.889927    1.628877    0.847027
     19          1           0        3.813646    1.539299   -0.649583
     20          1           0        0.797733    1.090369   -0.413552
     21          1           0        1.721604    1.001471   -1.908931
     22          1           0        2.370801    3.420566   -1.657544
     23          1           0        1.441680    3.509970   -0.153668
     24          1           0        0.608679    3.239128   -1.693818
     25          6           0        3.110703   -0.368421    0.066439
     26          6           0        4.365156   -0.728962    0.862896
     27          6           0        4.530548   -2.236823    1.054718
     28          1           0        2.228599   -0.772281    0.582371
     29          1           0        3.152317   -0.861860   -0.914240
     30          1           0        4.320641   -0.234453    1.841720
     31          1           0        5.244512   -0.323352    0.346340
     32          1           0        4.600565   -2.742953    0.086456
     33          1           0        3.671444   -2.653550    1.590332
     34          1           0        5.433566   -2.472111    1.626607
 ---------------------------------------------------------------------

 SCF Done:  E(RHF) =  -669.534908358     A.U. after   15 cycles
 E2 =    -0.2092957344D+01 EUMP2 =    -0.67162786570175D+03

 The electronic state is 1-A.
 Alpha  occ. eigenvalues --  -20.60782 -20.60774 -15.85835 -11.31216 -11.27799
 Alpha  occ. eigenvalues --  -11.27769 -11.27540 -11.26806 -11.26788 -11.21646
 Alpha  occ. eigenvalues --  -11.21517 -11.21501 -11.21416 -11.21246 -11.20906
 Alpha  occ. eigenvalues --   -1.59855  -1.39407  -1.19406  -1.08787  -1.08426
 Alpha  occ. eigenvalues --   -1.04816  -1.03581  -0.96055  -0.95620  -0.87064
 Alpha  occ. eigenvalues --   -0.86200  -0.82451  -0.79649  -0.78222  -0.77481
 Alpha  occ. eigenvalues --   -0.72052  -0.71180  -0.70511  -0.65103  -0.65017
 Alpha  occ. eigenvalues --   -0.64793  -0.62196  -0.60965  -0.59432  -0.57652
 Alpha  occ. eigenvalues --   -0.55361  -0.55274  -0.53165  -0.52889  -0.52764
 Alpha  occ. eigenvalues --   -0.52466  -0.49969  -0.48813  -0.48805  -0.47954
 Alpha  occ. eigenvalues --   -0.46655  -0.45763  -0.45666  -0.44795  -0.43823
 Alpha  occ. eigenvalues --   -0.37381  -0.36335
 Alpha virt. eigenvalues --    0.05015   0.11198   0.16466   0.20332   0.22972
 Alpha virt. eigenvalues --    0.23931   0.26286   0.26710   0.27359   0.28072
 Alpha virt. eigenvalues --    0.29406   0.30576   0.31340   0.31500   0.32139

 Mulliken charges:
               1
     1  C   -0.170817
     2  C   -0.218696
     3  C   -0.171103
     4  C    0.158487
     5  C   -0.173487
     6  C   -0.219628
     7  H    0.225823
     8  H    0.223542
     9  H    0.275747
    10  H    0.280255
    11  H    0.225651
    12  N    0.488549
    13  O   -0.460230
    14  O   -0.460543
    15  C   -0.297448
    16  C   -0.308832
    17  C   -0.477140
    18  H    0.146872
    19  H    0.149653
    20  H    0.154831
    21  H    0.160733
    22  H    0.159888
    23  H    0.151827
    24  H    0.151798
    25  C   -0.298761
    26  C   -0.299766
    27  C   -0.475757
    28  H    0.149602
    29  H    0.154938
    30  H    0.149828
    31  H    0.151659
    32  H    0.157649
    33  H    0.155593
    34  H    0.159280
 Sum of Mulliken charges =  -0.00000

 Dipole moment (field-independent basis, Debye):
    X=             -0.8648    Y=              3.5621    Z=              3.5614  Tot=              5.1108
 Quadrupole moment (field-independent basis, Debye-Ang):
   XX=            -90.3529   YY=            -97.5135   ZZ=            -93.5610
   XY=             -6.5904   XZ=            -10.4929   YZ=             -4.3085

 Normal termination of Gaussian 16 at Thu May  6 07:39:55 2021.
