 Gaussian 16, Revision A.03,
 Gaussian 16:  EM64L-G16RevA.03 25-Dec-2016

 -------------
 #p 6-31g* mp2
 -------------

 ------------------------------------------------------
 Input file generated by CHIRIPA (05-May-2021 14:55:23)
 ------------------------------------------------------
 Symbolic Z-matrix:
 Charge =  0 Multiplicity = 1

                         Standard orientation:
 ---------------------------------------------------------------------
 Center     Atomic      Atomic             Coordinates (Angstroms)
 Number     Number       Type             X           Y           Z
 ---------------------------------------------------------------------
      1          6           0       -1.609285    1.155182   -0.273816
      2          6           0       -2.755633    1.943825   -0.130810
      3          6           0       -4.019599    1.351587   -0.052130
      4          6           0       -4.100878   -0.038398   -0.120130
      5          6           0       -2.977332   -0.851220   -0.262446
      6          6           0       -1.723592   -0.237369   -0.339063
      7          1           0       -0.631378    1.623642   -0.334134
      8          1           0       -2.669876    3.025535   -0.079861
      9          1           0       -4.923465    1.938236    0.058726
     10          1           0       -3.094597   -1.927034   -0.310317
     11          1           0       -0.835043   -0.852344   -0.450108
     12          7           0       -5.433570   -0.676815   -0.037928
     13          8           0       -5.478348   -1.903494   -0.100300
     14          8           0       -6.408121    0.061562    0.087317
     15          6           0        4.243341    0.095352    0.011077
     16          6           0        3.280215   -0.180574    1.166169
     17          6           0        1.834318    0.186418    0.830769
     18          1           0        4.186677    1.158704   -0.259141
     19          1           0        3.916256   -0.469617   -0.872790
     20          1           0        3.609810    0.383667    2.047994
     21          1           0        3.339318   -1.243354    1.433796
     22          1           0        1.482060   -0.386153   -0.033335
     23          1           0        1.754088    1.250111    0.584352
     24          1           0        1.162911   -0.018905    1.670361
     25          6           0        5.692621   -0.266414    0.331140
     26          6           0        6.655746    0.009513   -0.823952
     27          6           0        8.101643   -0.357479   -0.488553
     28          1           0        6.019705    0.298556    1.215006
     29          1           0        5.749284   -1.329765    0.601358
     30          1           0        6.596643    1.072293   -1.091579
     31          1           0        6.326152   -0.554728   -1.705777
     32          1           0        8.181873   -1.421172   -0.242136
     33          1           0        8.453901    0.215092    0.375553
     34          1           0        8.773050   -0.152156   -1.328144
 ---------------------------------------------------------------------

 SCF Done:  E(RHF) =  -669.534976742     A.U. after   15 cycles
 E2 =    -0.2091735735D+01 EUMP2 =    -0.67162671247662D+03

 The electronic state is 1-A.
 Alpha  occ. eigenvalues --  -20.60677 -20.60672 -15.85730 -11.31064 -11.27637
 Alpha  occ. eigenvalues --  -11.27622 -11.27308 -11.26634 -11.26579 -11.22600
 Alpha  occ. eigenvalues --  -11.22480 -11.22221 -11.22151 -11.22020 -11.21520
 Alpha  occ. eigenvalues --   -1.59754  -1.39308  -1.19231  -1.09217  -1.08624
 Alpha  occ. eigenvalues --   -1.04637  -1.04357  -0.96853  -0.95462  -0.87891
 Alpha  occ. eigenvalues --   -0.86020  -0.82304  -0.80455  -0.78983  -0.77360
 Alpha  occ. eigenvalues --   -0.71948  -0.71077  -0.70325  -0.65854  -0.64878
 Alpha  occ. eigenvalues --   -0.64658  -0.62068  -0.61696  -0.60213  -0.58419
 Alpha  occ. eigenvalues --   -0.56207  -0.55101  -0.53562  -0.53266  -0.52931
 Alpha  occ. eigenvalues --   -0.52696  -0.50766  -0.48750  -0.48705  -0.48694
 Alpha  occ. eigenvalues --   -0.47442  -0.46536  -0.46426  -0.44721  -0.44583
 Alpha  occ. eigenvalues --   -0.37189  -0.36238
 Alpha virt. eigenvalues --    0.05170   0.11375   0.16668   0.20173   0.22282
 Alpha virt. eigenvalues --    0.23776   0.25179   0.25714   0.26936   0.27216
 Alpha virt. eigenvalues --    0.29199   0.29450   0.31008   0.31631   0.32033

 Mulliken charges:
               1
     1  C   -0.172964
     2  C   -0.219615
     3  C   -0.171149
     4  C    0.158338
     5  C   -0.171961
     6  C   -0.221829
     7  H    0.230815
     8  H    0.222801
     9  H    0.275017
    10  H    0.275111
    11  H    0.227346
    12  N    0.488028
    13  O   -0.460844
    14  O   -0.460840
    15  C   -0.299210
    16  C   -0.300391
    17  C   -0.482898
    18  H    0.149388
    19  H    0.149462
    20  H    0.156026
    21  H    0.155566
    22  H    0.149085
    23  H    0.151561
    24  H    0.167890
    25  C   -0.298951
    26  C   -0.300147
    27  C   -0.476136
    28  H    0.150944
    29  H    0.151177
    30  H    0.152175
    31  H    0.152417
    32  H    0.156101
    33  H    0.155933
    34  H    0.161750
 Sum of Mulliken charges =  -0.00000

 Dipole moment (field-independent basis, Debye):
    X=              4.9971    Y=              2.2346    Z=             -0.2197  Tot=              5.4784
 Quadrupole moment (field-independent basis, Debye-Ang):
   XX=           -133.3664   YY=            -90.1568   ZZ=            -95.3225
   XY=            -11.3765   XZ=              0.5226   YZ=              0.5364

 Normal termination of Gaussian 16 at Thu May  6 06:17:53 2021.
