 Gaussian 16, Revision A.03,
 Gaussian 16:  EM64L-G16RevA.03 25-Dec-2016

 -------------
 #p 6-31g* mp2
 -------------

 ------------------------------------------------------
 Input file generated by CHIRIPA (05-May-2021 14:53:14)
 ------------------------------------------------------
 Symbolic Z-matrix:
 Charge =  0 Multiplicity = 1

                         Standard orientation:
 ---------------------------------------------------------------------
 Center     Atomic      Atomic             Coordinates (Angstroms)
 Number     Number       Type             X           Y           Z
 ---------------------------------------------------------------------
      1          6           0        5.012052   -0.202800    0.405924
      2          6           0        5.751729   -1.405956   -0.179976
      3          6           0        6.809518   -1.969292    0.769513
      4          1           0        5.739866    0.582024    0.653477
      5          1           0        4.537094   -0.498213    1.351726
      6          1           0        6.223996   -1.108731   -1.125088
      7          1           0        5.022050   -2.187933   -0.426341
      8          1           0        6.350479   -2.292854    1.709296
      9          1           0        7.559255   -1.207520    1.006579
     10          1           0        7.326031   -2.828665    0.330705
     11          6           0        3.951377    0.371537   -0.531538
     12          6           0        3.211700    1.574693    0.054362
     13          6           0        2.153911    2.138029   -0.895127
     14          1           0        4.426335    0.666950   -1.477340
     15          1           0        3.223563   -0.413287   -0.779091
     16          1           0        3.941379    2.356670    0.300727
     17          1           0        2.739433    1.277468    0.999474
     18          1           0        1.404175    1.376257   -1.132193
     19          1           0        2.612950    2.461591   -1.834910
     20          1           0        1.637398    2.997402   -0.456319
     21          6           0       -1.408929    1.339922    0.155685
     22          6           0       -1.599356    0.447442   -0.904379
     23          6           0       -2.754865   -0.336489   -0.973666
     24          6           0       -3.703625   -0.201824    0.038760
     25          6           0       -3.542773    0.678362    1.107727
     26          6           0       -2.379533    1.452336    1.156591
     27          1           0       -0.508299    1.945031    0.201577
     28          1           0       -0.847263    0.358045   -1.683102
     29          1           0       -2.927766   -1.035370   -1.783041
     30          1           0       -4.310308    0.745389    1.869183
     31          1           0       -2.234315    2.144613    1.981035
     32          7           0       -4.931003   -1.026466   -0.023779
     33          8           0       -5.751825   -0.889177    0.880676
     34          8           0       -5.048958   -1.794494   -0.976070
 ---------------------------------------------------------------------

 SCF Done:  E(RHF) =  -669.534660261     A.U. after   15 cycles
 E2 =    -0.2091910382D+01 EUMP2 =    -0.67162657064311D+03

 The electronic state is 1-A.
 Alpha  occ. eigenvalues --  -20.60706 -20.60701 -15.85760 -11.31104 -11.27686
 Alpha  occ. eigenvalues --  -11.27678 -11.27310 -11.26672 -11.26659 -11.22717
 Alpha  occ. eigenvalues --  -11.22568 -11.22254 -11.22137 -11.22034 -11.21500
 Alpha  occ. eigenvalues --   -1.59783  -1.39337  -1.19275  -1.09257  -1.08665
 Alpha  occ. eigenvalues --   -1.04684  -1.04406  -0.96895  -0.95500  -0.87916
 Alpha  occ. eigenvalues --   -0.86078  -0.82346  -0.80488  -0.79001  -0.77402
 Alpha  occ. eigenvalues --   -0.71978  -0.71107  -0.70408  -0.65895  -0.64927
 Alpha  occ. eigenvalues --   -0.64714  -0.62091  -0.61741  -0.60323  -0.58456
 Alpha  occ. eigenvalues --   -0.56268  -0.55087  -0.53524  -0.53310  -0.53004
 Alpha  occ. eigenvalues --   -0.52761  -0.50785  -0.48811  -0.48734  -0.48711
 Alpha  occ. eigenvalues --   -0.47488  -0.46558  -0.46439  -0.44747  -0.44630
 Alpha  occ. eigenvalues --   -0.37237  -0.36294
 Alpha virt. eigenvalues --    0.05137   0.11333   0.16619   0.19929   0.22524
 Alpha virt. eigenvalues --    0.23898   0.24774   0.26088   0.26534   0.27420
 Alpha virt. eigenvalues --    0.29240   0.29880   0.31137   0.31452   0.31678

 Mulliken charges:
               1
     1  C   -0.299082
     2  C   -0.300374
     3  C   -0.476200
     4  H    0.150981
     5  H    0.150786
     6  H    0.152690
     7  H    0.152890
     8  H    0.156088
     9  H    0.155765
    10  H    0.162110
    11  C   -0.299234
    12  C   -0.300404
    13  C   -0.486264
    14  H    0.151600
    15  H    0.149709
    16  H    0.156768
    17  H    0.152418
    18  H    0.150458
    19  H    0.164186
    20  H    0.157503
    21  C   -0.175461
    22  C   -0.225619
    23  C   -0.170696
    24  C    0.157916
    25  C   -0.170641
    26  C   -0.220943
    27  H    0.237734
    28  H    0.224987
    29  H    0.275311
    30  H    0.275180
    31  H    0.223213
    32  N    0.488049
    33  O   -0.460679
    34  O   -0.460742
 Sum of Mulliken charges =  -0.00000

 Dipole moment (field-independent basis, Debye):
    X=              4.6339    Y=              2.9073    Z=              0.2214  Tot=              5.4749
 Quadrupole moment (field-independent basis, Debye-Ang):
   XX=           -126.1735   YY=            -95.5013   ZZ=            -91.4869
   XY=            -11.5790   XZ=             -3.0164   YZ=              2.1382

 Normal termination of Gaussian 16 at Thu May  6 01:02:13 2021.
