 Gaussian 16, Revision A.03,
 Gaussian 16:  EM64L-G16RevA.03 25-Dec-2016

 -------------
 #p 6-31g* mp2
 -------------

 ------------------------------------------------------
 Input file generated by CHIRIPA (05-May-2021 14:55:25)
 ------------------------------------------------------
 Symbolic Z-matrix:
 Charge =  0 Multiplicity = 1

                         Standard orientation:
 ---------------------------------------------------------------------
 Center     Atomic      Atomic             Coordinates (Angstroms)
 Number     Number       Type             X           Y           Z
 ---------------------------------------------------------------------
      1          6           0       -4.355218    2.393499   -0.002909
      2          6           0       -3.442525    2.056428    1.002026
      3          6           0       -2.852445    0.789302    1.029350
      4          6           0       -3.199464   -0.120329    0.031633
      5          6           0       -4.105356    0.185617   -0.982787
      6          6           0       -4.683143    1.458666   -0.990368
      7          1           0       -4.808832    3.380133   -0.016466
      8          1           0       -3.185978    2.780418    1.770184
      9          1           0       -2.142827    0.501982    1.795710
     10          1           0       -4.341311   -0.557305   -1.734990
     11          1           0       -5.391633    1.717676   -1.772032
     12          7           0       -2.581280   -1.464913    0.050109
     13          8           0       -2.903708   -2.248390   -0.840308
     14          8           0       -1.786025   -1.709861    0.954657
     15          6           0        4.790784    0.279249    0.274789
     16          6           0        5.710392    0.928951   -0.759712
     17          6           0        6.835886    1.743554   -0.121372
     18          1           0        4.361277    1.060787    0.916401
     19          1           0        5.388232   -0.369703    0.930008
     20          1           0        5.111169    1.575410   -1.413653
     21          1           0        6.137611    0.145793   -1.399059
     22          1           0        7.458094    1.107276    0.516287
     23          1           0        6.425821    2.545015    0.501610
     24          1           0        7.481193    2.199139   -0.878921
     25          6           0        3.660669   -0.538513   -0.347974
     26          6           0        2.741060   -1.188216    0.686527
     27          6           0        1.615566   -2.002818    0.048186
     28          1           0        3.063221    0.110439   -1.003194
     29          1           0        4.090176   -1.320051   -0.989587
     30          1           0        2.313842   -0.405057    1.325873
     31          1           0        3.340283   -1.834674    1.340468
     32          1           0        2.025633   -2.804279   -0.574795
     33          1           0        0.993359   -1.366540   -0.589473
     34          1           0        0.970260   -2.458403    0.805737
 ---------------------------------------------------------------------

 SCF Done:  E(RHF) =  -669.535658267     A.U. after   15 cycles
 E2 =    -0.2091092215D+01 EUMP2 =    -0.67162675048238D+03

 The electronic state is 1-A.
 Alpha  occ. eigenvalues --  -20.60880 -20.60854 -15.85902 -11.31260 -11.27826
 Alpha  occ. eigenvalues --  -11.27822 -11.27568 -11.26841 -11.26831 -11.21284
 Alpha  occ. eigenvalues --  -11.20956 -11.20837 -11.20783 -11.20718 -11.19672
 Alpha  occ. eigenvalues --   -1.59929  -1.39486  -1.19430  -1.08828  -1.07876
 Alpha  occ. eigenvalues --   -1.04831  -1.02874  -0.95671  -0.95282  -0.86299
 Alpha  occ. eigenvalues --   -0.86227  -0.82499  -0.78966  -0.77669  -0.77545
 Alpha  occ. eigenvalues --   -0.72134  -0.71248  -0.70538  -0.65086  -0.64834
 Alpha  occ. eigenvalues --   -0.64522  -0.62178  -0.60288  -0.58700  -0.56882
 Alpha  occ. eigenvalues --   -0.55334  -0.54600  -0.53163  -0.52924  -0.51920
 Alpha  occ. eigenvalues --   -0.51715  -0.49280  -0.48884  -0.48857  -0.47258
 Alpha  occ. eigenvalues --   -0.46056  -0.45201  -0.45168  -0.44828  -0.43061
 Alpha  occ. eigenvalues --   -0.37410  -0.36435
 Alpha virt. eigenvalues --    0.04974   0.11219   0.16453   0.21338   0.23348
 Alpha virt. eigenvalues --    0.24983   0.27103   0.27284   0.27958   0.28186
 Alpha virt. eigenvalues --    0.28813   0.30929   0.31959   0.32250   0.32502

 Mulliken charges:
               1
     1  C   -0.170732
     2  C   -0.218562
     3  C   -0.170957
     4  C    0.158006
     5  C   -0.170820
     6  C   -0.218562
     7  H    0.225846
     8  H    0.223658
     9  H    0.275638
    10  H    0.275873
    11  H    0.223712
    12  N    0.489207
    13  O   -0.459376
    14  O   -0.459687
    15  C   -0.297274
    16  C   -0.299024
    17  C   -0.475249
    18  H    0.146940
    19  H    0.149121
    20  H    0.150453
    21  H    0.152032
    22  H    0.155102
    23  H    0.153722
    24  H    0.159018
    25  C   -0.297171
    26  C   -0.300285
    27  C   -0.474117
    28  H    0.146779
    29  H    0.149310
    30  H    0.146891
    31  H    0.149384
    32  H    0.149768
    33  H    0.149150
    34  H    0.182206
 Sum of Mulliken charges =  -0.00000

 Dipole moment (field-independent basis, Debye):
    X=             -2.4334    Y=              4.6306    Z=             -0.0233  Tot=              5.2312
 Quadrupole moment (field-independent basis, Debye-Ang):
   XX=            -81.3370   YY=            -95.6916   ZZ=            -91.8184
   XY=            -15.6437   XZ=              2.4362   YZ=              1.0424

 Normal termination of Gaussian 16 at Thu May  6 06:25:20 2021.
