 Gaussian 16, Revision A.03,
 Gaussian 16:  EM64L-G16RevA.03 25-Dec-2016

 -------------
 #p 6-31g* mp2
 -------------

 ------------------------------------------------------
 Input file generated by CHIRIPA (05-May-2021 14:55:24)
 ------------------------------------------------------
 Symbolic Z-matrix:
 Charge =  0 Multiplicity = 1

                         Standard orientation:
 ---------------------------------------------------------------------
 Center     Atomic      Atomic             Coordinates (Angstroms)
 Number     Number       Type             X           Y           Z
 ---------------------------------------------------------------------
      1          6           0        0.977914   -1.176146    1.402553
      2          6           0        2.265566   -1.134768    1.947312
      3          6           0        3.317725   -0.547031    1.238738
      4          6           0        3.045409   -0.007880   -0.017626
      5          6           0        1.773344   -0.033651   -0.587253
      6          6           0        0.736339   -0.626425    0.139236
      7          1           0        0.166458   -1.634670    1.959949
      8          1           0        2.456102   -1.560898    2.928206
      9          1           0        4.324159   -0.501360    1.636762
     10          1           0        1.614232    0.399469   -1.567309
     11          1           0       -0.262664   -0.657130   -0.286316
     12          7           0        4.151262    0.616996   -0.777244
     13          8           0        3.885329    1.084955   -1.882202
     14          8           0        5.263022    0.626984   -0.253292
     15          6           0       -3.550577    0.706362    0.364080
     16          6           0       -3.942475    2.083410   -0.172704
     17          6           0       -3.708100    3.202306    0.842646
     18          1           0       -4.123459    0.499638    1.278421
     19          1           0       -2.491301    0.722097    0.655769
     20          1           0       -5.000337    2.064680   -0.464581
     21          1           0       -3.368734    2.286798   -1.085978
     22          1           0       -2.651810    3.249858    1.126535
     23          1           0       -4.292685    3.026478    1.751462
     24          1           0       -3.994958    4.178011    0.438207
     25          6           0       -3.779092   -0.422542   -0.639457
     26          6           0       -3.387193   -1.799590   -0.102672
     27          6           0       -3.621569   -2.918485   -1.118022
     28          1           0       -4.838367   -0.438277   -0.931145
     29          1           0       -3.206209   -0.215818   -1.553796
     30          1           0       -3.960935   -2.002978    0.810602
     31          1           0       -2.329331   -1.780860    0.189206
     32          1           0       -3.036984   -2.742657   -2.026837
     33          1           0       -4.677858   -2.966037   -1.401911
     34          1           0       -3.334710   -3.894192   -0.713583
 ---------------------------------------------------------------------

 SCF Done:  E(RHF) =  -669.535395459     A.U. after   15 cycles
 E2 =    -0.2091875513D+01 EUMP2 =    -0.67162727097252D+03

 The electronic state is 1-A.
 Alpha  occ. eigenvalues --  -20.60763 -20.60758 -15.85817 -11.31185 -11.27758
 Alpha  occ. eigenvalues --  -11.27755 -11.27493 -11.26766 -11.26741 -11.22758
 Alpha  occ. eigenvalues --  -11.22357 -11.22282 -11.22225 -11.21961 -11.21579
 Alpha  occ. eigenvalues --   -1.59839  -1.39392  -1.19359  -1.09348  -1.08751
 Alpha  occ. eigenvalues --   -1.04764  -1.04358  -0.96777  -0.95586  -0.87792
 Alpha  occ. eigenvalues --   -0.86167  -0.82419  -0.80451  -0.79149  -0.77468
 Alpha  occ. eigenvalues --   -0.72036  -0.71162  -0.70464  -0.66111  -0.65009
 Alpha  occ. eigenvalues --   -0.64701  -0.62158  -0.61701  -0.60155  -0.58391
 Alpha  occ. eigenvalues --   -0.56064  -0.55254  -0.53460  -0.53194  -0.53082
 Alpha  occ. eigenvalues --   -0.52863  -0.50725  -0.48815  -0.48790  -0.48726
 Alpha  occ. eigenvalues --   -0.47505  -0.46656  -0.46594  -0.44797  -0.44624
 Alpha  occ. eigenvalues --   -0.37335  -0.36364
 Alpha virt. eigenvalues --    0.05072   0.11199   0.16553   0.18495   0.22665
 Alpha virt. eigenvalues --    0.23648   0.25066   0.25918   0.26964   0.28123
 Alpha virt. eigenvalues --    0.29166   0.30537   0.31004   0.31427   0.31805

 Mulliken charges:
               1
     1  C   -0.173103
     2  C   -0.218568
     3  C   -0.171003
     4  C    0.158845
     5  C   -0.171625
     6  C   -0.225298
     7  H    0.226710
     8  H    0.223524
     9  H    0.275662
    10  H    0.275692
    11  H    0.232242
    12  N    0.487965
    13  O   -0.460466
    14  O   -0.460377
    15  C   -0.300948
    16  C   -0.299936
    17  C   -0.476549
    18  H    0.151873
    19  H    0.144506
    20  H    0.154254
    21  H    0.152858
    22  H    0.156436
    23  H    0.155618
    24  H    0.163338
    25  C   -0.300209
    26  C   -0.303372
    27  C   -0.475690
    28  H    0.155131
    29  H    0.148426
    30  H    0.155821
    31  H    0.140272
    32  H    0.156319
    33  H    0.159587
    34  H    0.162065
 Sum of Mulliken charges =  -0.00000

 Dipole moment (field-independent basis, Debye):
    X=             -4.1065    Y=             -2.1747    Z=              2.6588  Tot=              5.3536
 Quadrupole moment (field-independent basis, Debye-Ang):
   XX=           -114.9963   YY=            -95.7242   ZZ=            -92.5588
   XY=             -7.4582   XZ=             10.7527   YZ=             -1.4843

 Normal termination of Gaussian 16 at Thu May  6 06:21:02 2021.
