 Gaussian 16, Revision A.03,
 Gaussian 16:  EM64L-G16RevA.03 25-Dec-2016

 -------------
 #p 6-31g* mp2
 -------------

 ------------------------------------------------------
 Input file generated by CHIRIPA (05-May-2021 14:55:23)
 ------------------------------------------------------
 Symbolic Z-matrix:
 Charge =  0 Multiplicity = 1

                         Standard orientation:
 ---------------------------------------------------------------------
 Center     Atomic      Atomic             Coordinates (Angstroms)
 Number     Number       Type             X           Y           Z
 ---------------------------------------------------------------------
      1          6           0       -0.994799    0.595213    2.154966
      2          6           0       -1.697434    1.494151    1.345809
      3          6           0       -2.521958    1.028612    0.317227
      4          6           0       -2.621031   -0.348522    0.124936
      5          6           0       -1.933729   -1.269308    0.914278
      6          6           0       -1.114977   -0.781221    1.937002
      7          1           0       -0.356531    0.965613    2.951718
      8          1           0       -1.606013    2.563641    1.512782
      9          1           0       -3.077165    1.702348   -0.324055
     10          1           0       -2.045000   -2.329815    0.723593
     11          1           0       -0.570481   -1.481674    2.563847
     12          7           0       -3.490862   -0.853303   -0.960877
     13          8           0       -3.561144   -2.071299   -1.109822
     14          8           0       -4.085884   -0.021397   -1.642433
     15          6           0        3.376460   -0.333098   -0.090919
     16          6           0        4.778743   -0.778551   -0.507045
     17          6           0        5.174580   -2.126123    0.097238
     18          1           0        3.327656   -0.273642    1.004996
     19          1           0        2.650434   -1.099792   -0.394993
     20          1           0        5.501746   -0.010602   -0.203506
     21          1           0        4.824271   -0.836769   -1.602103
     22          1           0        4.475919   -2.908774   -0.215699
     23          1           0        5.157243   -2.077914    1.190845
     24          1           0        6.180511   -2.425383   -0.213255
     25          6           0        2.966380    1.012338   -0.687042
     26          6           0        1.564097    1.457793   -0.270917
     27          6           0        1.168260    2.805364   -0.875199
     28          1           0        3.692406    1.779033   -0.382967
     29          1           0        3.015185    0.952883   -1.782956
     30          1           0        1.518570    1.516010    0.824143
     31          1           0        0.841095    0.689843   -0.574455
     32          1           0        1.185597    2.757155   -1.968806
     33          1           0        1.866921    3.588016   -0.562262
     34          1           0        0.162329    3.104624   -0.564706
 ---------------------------------------------------------------------

 SCF Done:  E(RHF) =  -669.534316739     A.U. after   15 cycles
 E2 =    -0.2094060391D+01 EUMP2 =    -0.67162837713079D+03

 The electronic state is 1-A.
 Alpha  occ. eigenvalues --  -20.60795 -20.60789 -15.85850 -11.31223 -11.27802
 Alpha  occ. eigenvalues --  -11.27792 -11.27514 -11.26786 -11.26772 -11.21919
 Alpha  occ. eigenvalues --  -11.21916 -11.21776 -11.21686 -11.21495 -11.21390
 Alpha  occ. eigenvalues --   -1.59872  -1.39424  -1.19401  -1.08848  -1.08727
 Alpha  occ. eigenvalues --   -1.04806  -1.03878  -0.96347  -0.95625  -0.87363
 Alpha  occ. eigenvalues --   -0.86197  -0.82459  -0.79946  -0.78605  -0.77503
 Alpha  occ. eigenvalues --   -0.72067  -0.71197  -0.70512  -0.65417  -0.65048
 Alpha  occ. eigenvalues --   -0.64807  -0.62162  -0.61276  -0.59761  -0.58004
 Alpha  occ. eigenvalues --   -0.55632  -0.55307  -0.53276  -0.52973  -0.52837
 Alpha  occ. eigenvalues --   -0.52707  -0.50281  -0.48827  -0.48821  -0.48241
 Alpha  occ. eigenvalues --   -0.46974  -0.46148  -0.46045  -0.44829  -0.44148
 Alpha  occ. eigenvalues --   -0.37274  -0.36378
 Alpha virt. eigenvalues --    0.05002   0.11197   0.16392   0.20497   0.22740
 Alpha virt. eigenvalues --    0.24044   0.25906   0.26345   0.26917   0.28318
 Alpha virt. eigenvalues --    0.28423   0.30134   0.31111   0.31728   0.32227

 Mulliken charges:
               1
     1  C   -0.167194
     2  C   -0.214671
     3  C   -0.171584
     4  C    0.157868
     5  C   -0.171669
     6  C   -0.218397
     7  H    0.225274
     8  H    0.223631
     9  H    0.275856
    10  H    0.275727
    11  H    0.223788
    12  N    0.488062
    13  O   -0.460533
    14  O   -0.460270
    15  C   -0.297443
    16  C   -0.299789
    17  C   -0.475871
    18  H    0.144182
    19  H    0.150643
    20  H    0.151997
    21  H    0.154126
    22  H    0.155737
    23  H    0.153162
    24  H    0.161787
    25  C   -0.299212
    26  C   -0.296474
    27  C   -0.476694
    28  H    0.148485
    29  H    0.152128
    30  H    0.142291
    31  H    0.158731
    32  H    0.159582
    33  H    0.153889
    34  H    0.152853
 Sum of Mulliken charges =  -0.00000

 Dipole moment (field-independent basis, Debye):
    X=              3.0573    Y=              1.7241    Z=              3.7928  Tot=              5.1677
 Quadrupole moment (field-independent basis, Debye-Ang):
   XX=           -111.4327   YY=            -92.5925   ZZ=            -93.5341
   XY=             -6.5961   XZ=             -9.4180   YZ=             -1.6886

 Normal termination of Gaussian 16 at Thu May  6 19:15:28 2021.
