 Gaussian 16, Revision A.03,
 Gaussian 16:  EM64L-G16RevA.03 25-Dec-2016

 -------------
 #p 6-31g* mp2
 -------------

 ------------------------------------------------------
 Input file generated by CHIRIPA (05-May-2021 14:57:22)
 ------------------------------------------------------
 Symbolic Z-matrix:
 Charge =  0 Multiplicity = 1

                         Standard orientation:
 ---------------------------------------------------------------------
 Center     Atomic      Atomic             Coordinates (Angstroms)
 Number     Number       Type             X           Y           Z
 ---------------------------------------------------------------------
      1          6           0        2.811050   -2.339260    0.419421
      2          6           0        3.012247   -1.859877   -0.879129
      3          6           0        3.101156   -0.486136   -1.123013
      4          6           0        2.983936    0.383834   -0.040099
      5          6           0        2.783116   -0.062966    1.265019
      6          6           0        2.697328   -1.440859    1.485471
      7          1           0        2.743196   -3.408028    0.599775
      8          1           0        3.100928   -2.555263   -1.708959
      9          1           0        3.256595   -0.087817   -2.118301
     10          1           0        2.698530    0.654721    2.071981
     11          1           0        2.541042   -1.810303    2.494991
     12          7           0        3.076408    1.840349   -0.285885
     13          8           0        2.969916    2.586117    0.685263
     14          8           0        3.253629    2.208620   -1.445025
     15          6           0       -5.099450    1.207162    0.027167
     16          6           0       -3.899304    1.783980    0.455478
     17          6           0       -2.712650    1.044873    0.444519
     18          6           0       -2.762702   -0.274386   -0.003076
     19          6           0       -3.942703   -0.877233   -0.436046
     20          6           0       -5.117287   -0.119267   -0.416446
     21          1           0       -6.016583    1.788643    0.039037
     22          1           0       -3.882466    2.813889    0.800513
     23          1           0       -1.769654    1.466589    0.770604
     24          1           0       -3.928029   -1.906133   -0.774524
     25          1           0       -6.047881   -0.569835   -0.749654
     26          7           0       -1.512833   -1.066830   -0.019252
     27          8           0       -1.583489   -2.227211   -0.418200
     28          8           0       -0.486197   -0.512561    0.367324
 ---------------------------------------------------------------------

 SCF Done:  E(RHF) =  -868.338538089     A.U. after   16 cycles
 E2 =    -0.2600342581D+01 EUMP2 =    -0.87093888066984D+03

 The electronic state is 1-A.
 Alpha  occ. eigenvalues --  -20.61053 -20.61036 -20.59774 -20.59762 -15.86082
 Alpha  occ. eigenvalues --  -15.84807 -11.31301 -11.29724 -11.27877 -11.27820
 Alpha  occ. eigenvalues --  -11.27574 -11.26857 -11.26806 -11.26316 -11.26288
 Alpha  occ. eigenvalues --  -11.25972 -11.25255 -11.25219  -1.60121  -1.58853
 Alpha  occ. eigenvalues --   -1.39680  -1.38421  -1.19463  -1.17853  -1.08888
 Alpha  occ. eigenvalues --   -1.07352  -1.04840  -1.03249  -0.95748  -0.94272
 Alpha  occ. eigenvalues --   -0.86247  -0.84700  -0.82586  -0.81157  -0.77648
 Alpha  occ. eigenvalues --   -0.76245  -0.72335  -0.71438  -0.71058  -0.70571
 Alpha  occ. eigenvalues --   -0.70149  -0.69067  -0.65119  -0.64840  -0.63575
 Alpha  occ. eigenvalues --   -0.63337  -0.62185  -0.60675  -0.55354  -0.53816
 Alpha  occ. eigenvalues --   -0.53183  -0.52931  -0.51593  -0.51422  -0.49079
 Alpha  occ. eigenvalues --   -0.48901  -0.47823  -0.47767  -0.45128  -0.43931
 Alpha  occ. eigenvalues --   -0.37444  -0.36437  -0.35748  -0.34746
 Alpha virt. eigenvalues --    0.04864   0.06309   0.11217   0.12859   0.16378
 Alpha virt. eigenvalues --    0.17931   0.21383   0.22728   0.27310   0.28252
 Alpha virt. eigenvalues --    0.28573   0.29592   0.30945   0.32191   0.32511

 Mulliken charges:
               1
     1  C   -0.160407
     2  C   -0.213537
     3  C   -0.170409
     4  C    0.163765
     5  C   -0.162137
     6  C   -0.206918
     7  H    0.221865
     8  H    0.218391
     9  H    0.269265
    10  H    0.267780
    11  H    0.216844
    12  N    0.487442
    13  O   -0.467431
    14  O   -0.465584
    15  C   -0.170380
    16  C   -0.218608
    17  C   -0.170877
    18  C    0.157186
    19  C   -0.171161
    20  C   -0.218667
    21  H    0.226459
    22  H    0.226233
    23  H    0.278637
    24  H    0.274189
    25  H    0.223373
    26  N    0.491090
    27  O   -0.464337
    28  O   -0.462066
 Sum of Mulliken charges =  -0.00000

 Dipole moment (field-independent basis, Debye):
    X=             -5.0106    Y=             -2.4543    Z=              0.9931  Tot=              5.6671
 Quadrupole moment (field-independent basis, Debye-Ang):
   XX=            -83.1438   YY=           -108.1878   ZZ=           -100.5430
   XY=            -20.8331   XZ=              2.8841   YZ=              3.1335

 Normal termination of Gaussian 16 at Fri May  7 03:17:07 2021.
