 Gaussian 16, Revision A.03,
 Gaussian 16:  EM64L-G16RevA.03 25-Dec-2016

 -------------
 #p 6-31g* mp2
 -------------

 ------------------------------------------------------
 Input file generated by CHIRIPA (05-May-2021 14:55:20)
 ------------------------------------------------------
 Symbolic Z-matrix:
 Charge =  0 Multiplicity = 1

                         Standard orientation:
 ---------------------------------------------------------------------
 Center     Atomic      Atomic             Coordinates (Angstroms)
 Number     Number       Type             X           Y           Z
 ---------------------------------------------------------------------
      1          6           0        3.007579   -2.374572    0.493400
      2          6           0        2.323323   -1.762152   -0.561710
      3          6           0        2.448865   -0.388066   -0.786821
      4          6           0        3.270785    0.346586    0.066422
      5          6           0        3.965430   -0.234595    1.126133
      6          6           0        3.825007   -1.610186    1.332474
      7          1           0        2.904275   -3.442580    0.660981
      8          1           0        1.687804   -2.353294   -1.214942
      9          1           0        1.930523    0.111628   -1.596170
     10          1           0        4.591642    0.380924    1.760494
     11          1           0        4.357603   -2.083119    2.152671
     12          7           0        3.411568    1.802066   -0.161958
     13          8           0        4.141847    2.427143    0.603945
     14          8           0        2.788968    2.290236   -1.102541
     15          6           0       -3.561006   -0.061071   -0.605039
     16          6           0       -2.553328   -1.206039   -0.497255
     17          6           0       -1.366848   -1.040723   -1.447376
     18          1           0       -3.924271    0.003007   -1.639872
     19          1           0       -3.050356    0.888639   -0.393657
     20          1           0       -3.066033   -2.153446   -0.707421
     21          1           0       -2.192565   -1.267521    0.537484
     22          1           0       -0.829826   -0.110642   -1.234872
     23          1           0       -1.708257   -1.001600   -2.486852
     24          1           0       -0.658965   -1.870181   -1.353775
     25          6           0       -4.752805   -0.212095    0.338642
     26          6           0       -5.760482    0.932874    0.230857
     27          6           0       -6.946963    0.767557    1.180977
     28          1           0       -5.263455   -1.161805    0.127260
     29          1           0       -4.389541   -0.276173    1.373475
     30          1           0       -6.121247    0.994355   -0.803882
     31          1           0       -5.247779    1.880280    0.441023
     32          1           0       -6.605554    0.728435    2.220454
     33          1           0       -7.483985   -0.162524    0.968475
     34          1           0       -7.654846    1.597015    1.087377
 ---------------------------------------------------------------------

 SCF Done:  E(RHF) =  -669.535018071     A.U. after   15 cycles
 E2 =    -0.2091639811D+01 EUMP2 =    -0.67162665788172D+03

 The electronic state is 1-A.
 Alpha  occ. eigenvalues --  -20.60751 -20.60745 -15.85803 -11.31152 -11.27725
 Alpha  occ. eigenvalues --  -11.27697 -11.27463 -11.26742 -11.26703 -11.22040
 Alpha  occ. eigenvalues --  -11.21725 -11.21700 -11.21629 -11.21543 -11.21150
 Alpha  occ. eigenvalues --   -1.59827  -1.39380  -1.19327  -1.08728  -1.08678
 Alpha  occ. eigenvalues --   -1.04730  -1.03824  -0.96298  -0.95561  -0.87331
 Alpha  occ. eigenvalues --   -0.86128  -0.82395  -0.79901  -0.78463  -0.77439
 Alpha  occ. eigenvalues --   -0.72021  -0.71150  -0.70437  -0.65303  -0.64978
 Alpha  occ. eigenvalues --   -0.64765  -0.62132  -0.61200  -0.59673  -0.57894
 Alpha  occ. eigenvalues --   -0.55577  -0.55229  -0.53261  -0.53010  -0.52820
 Alpha  occ. eigenvalues --   -0.52509  -0.50213  -0.48780  -0.48777  -0.48203
 Alpha  occ. eigenvalues --   -0.46901  -0.46015  -0.45914  -0.44789  -0.44079
 Alpha  occ. eigenvalues --   -0.37312  -0.36295
 Alpha virt. eigenvalues --    0.05073   0.11248   0.16509   0.20622   0.22744
 Alpha virt. eigenvalues --    0.24083   0.25942   0.26287   0.26805   0.27854
 Alpha virt. eigenvalues --    0.29026   0.29216   0.31292   0.31631   0.32313

 Mulliken charges:
               1
     1  C   -0.171814
     2  C   -0.218196
     3  C   -0.171268
     4  C    0.157884
     5  C   -0.171127
     6  C   -0.218558
     7  H    0.225394
     8  H    0.225549
     9  H    0.277295
    10  H    0.275376
    11  H    0.223208
    12  N    0.488134
    13  O   -0.460570
    14  O   -0.460689
    15  C   -0.299787
    16  C   -0.299033
    17  C   -0.480497
    18  H    0.150505
    19  H    0.153555
    20  H    0.151596
    21  H    0.153314
    22  H    0.160302
    23  H    0.157710
    24  H    0.149927
    25  C   -0.298592
    26  C   -0.300148
    27  C   -0.475882
    28  H    0.148892
    29  H    0.149980
    30  H    0.152336
    31  H    0.153911
    32  H    0.155359
    33  H    0.154709
    34  H    0.161225
 Sum of Mulliken charges =  -0.00000

 Dipole moment (field-independent basis, Debye):
    X=             -0.6095    Y=             -5.0713    Z=              0.8259  Tot=              5.1741
 Quadrupole moment (field-independent basis, Debye-Ang):
   XX=            -96.9103   YY=            -98.8224   ZZ=            -91.8369
   XY=            -16.7633   XZ=              6.4023   YZ=              0.4762

 Normal termination of Gaussian 16 at Thu May  6 19:04:52 2021.
