 Gaussian 16, Revision A.03,
 Gaussian 16:  EM64L-G16RevA.03 25-Dec-2016

 -------------
 #p 6-31g* mp2
 -------------

 ------------------------------------------------------
 Input file generated by CHIRIPA (05-May-2021 14:51:10)
 ------------------------------------------------------
 Symbolic Z-matrix:
 Charge =  0 Multiplicity = 1

                         Standard orientation:
 ---------------------------------------------------------------------
 Center     Atomic      Atomic             Coordinates (Angstroms)
 Number     Number       Type             X           Y           Z
 ---------------------------------------------------------------------
      1          6           0       -2.222250    0.750412   -0.359334
      2          6           0       -3.096817   -0.115439    0.548090
      3          6           0       -3.806313   -1.237582   -0.210333
      4          1           0       -2.844681    1.180721   -1.155801
      5          1           0       -1.476795    0.113232   -0.855007
      6          1           0       -3.839515    0.523401    1.042963
      7          1           0       -2.472268   -0.543583    1.342602
      8          1           0       -3.077631   -1.898553   -0.690688
      9          1           0       -4.452646   -0.825507   -0.992029
     10          1           0       -4.426004   -1.844129    0.457457
     11          6           0       -1.506393    1.876566    0.384343
     12          6           0       -0.631826    2.742417   -0.523081
     13          6           0        0.077669    3.864560    0.235342
     14          1           0       -2.251849    2.513746    0.880016
     15          1           0       -0.883963    1.446257    1.180810
     16          1           0       -1.256375    3.170561   -1.317592
     17          1           0        0.110872    2.103577   -1.017954
     18          1           0        0.724003    3.452485    1.017038
     19          1           0       -0.651012    4.525531    0.715697
     20          1           0        0.697361    4.471107   -0.432447
     21          6           0        1.190867   -1.610934   -0.216016
     22          6           0        0.976848   -3.035063    0.297830
     23          6           0       -0.374925   -3.616467   -0.117465
     24          1           0        0.382820   -0.967575    0.158276
     25          1           0        1.110521   -1.608042   -1.311887
     26          1           0        1.058949   -3.035509    1.392305
     27          1           0        1.785605   -3.675065   -0.077571
     28          1           0       -0.463208   -3.645102   -1.208331
     29          1           0       -1.193994   -3.001912    0.269897
     30          1           0       -0.507009   -4.635091    0.260448
     31          6           0        2.537776   -1.016043    0.191007
     32          6           0        2.751795    0.408085   -0.322840
     33          6           0        4.103568    0.989489    0.092456
     34          1           0        2.618122   -1.018936    1.286877
     35          1           0        3.345824   -1.659402   -0.183285
     36          1           0        1.943038    1.048087    0.052562
     37          1           0        2.669695    0.408532   -1.417315
     38          1           0        4.922637    0.374934   -0.294906
     39          1           0        4.191851    1.018124    1.183322
     40          1           0        4.235653    2.008113   -0.285457
 ---------------------------------------------------------------------

 SCF Done:  E(RHF) =  -470.731652523     A.U. after   11 cycles
 E2 =    -0.1586511229D+01 EUMP2 =    -0.47231816375164D+03

 The electronic state is 1-A.
 Alpha  occ. eigenvalues --  -11.21673 -11.21648 -11.21608 -11.21532 -11.21480
 Alpha  occ. eigenvalues --  -11.21420 -11.21392 -11.21296 -11.21115 -11.21112
 Alpha  occ. eigenvalues --  -11.21073 -11.21004  -1.08563  -1.08375  -1.03652
 Alpha  occ. eigenvalues --   -1.03471  -0.96101  -0.95918  -0.87117  -0.86933
 Alpha  occ. eigenvalues --   -0.79767  -0.79491  -0.78477  -0.78120  -0.65553
 Alpha  occ. eigenvalues --   -0.64683  -0.61412  -0.60610  -0.59409  -0.59281
 Alpha  occ. eigenvalues --   -0.57793  -0.57516  -0.55675  -0.54951  -0.52741
 Alpha  occ. eigenvalues --   -0.52646  -0.52597  -0.52246  -0.50151  -0.49671
 Alpha  occ. eigenvalues --   -0.48285  -0.47694  -0.46797  -0.46478  -0.46366
 Alpha  occ. eigenvalues --   -0.45868  -0.45685  -0.45049  -0.43853  -0.43753
 Alpha virt. eigenvalues --    0.19451   0.21524   0.23774   0.25373   0.25621
 Alpha virt. eigenvalues --    0.26202   0.26345   0.28005   0.29248   0.29938
 Alpha virt. eigenvalues --    0.30736   0.31270   0.31597   0.31812   0.32319

 Mulliken charges:
               1
     1  C   -0.304031
     2  C   -0.301349
     3  C   -0.480449
     4  H    0.150359
     5  H    0.155375
     6  H    0.152452
     7  H    0.150628
     8  H    0.160621
     9  H    0.155282
    10  H    0.159881
    11  C   -0.299876
    12  C   -0.305454
    13  C   -0.476682
    14  H    0.150003
    15  H    0.148261
    16  H    0.152554
    17  H    0.157645
    18  H    0.155052
    19  H    0.155349
    20  H    0.160405
    21  C   -0.307015
    22  C   -0.298933
    23  C   -0.482892
    24  H    0.158072
    25  H    0.149248
    26  H    0.151819
    27  H    0.152343
    28  H    0.154946
    29  H    0.162795
    30  H    0.161046
    31  C   -0.297199
    32  C   -0.308179
    33  C   -0.475259
    34  H    0.149247
    35  H    0.150060
    36  H    0.160966
    37  H    0.151674
    38  H    0.155319
    39  H    0.155012
    40  H    0.160904
 Sum of Mulliken charges =  -0.00000

 Dipole moment (field-independent basis, Debye):
    X=              0.0299    Y=             -0.0241    Z=             -0.0231  Tot=              0.0448
 Quadrupole moment (field-independent basis, Debye-Ang):
   XX=            -85.2532   YY=            -85.2820   ZZ=            -84.2480
   XY=             -1.6115   XZ=             -0.6400   YZ=             -0.2847

 Normal termination of Gaussian 16 at Thu May  6 03:46:48 2021.
