 Gaussian 16, Revision A.03,
 Gaussian 16:  EM64L-G16RevA.03 25-Dec-2016

 -------------
 #p 6-31g* mp2
 -------------

 ------------------------------------------------------
 Input file generated by CHIRIPA (05-May-2021 14:53:12)
 ------------------------------------------------------
 Symbolic Z-matrix:
 Charge =  0 Multiplicity = 1

                         Standard orientation:
 ---------------------------------------------------------------------
 Center     Atomic      Atomic             Coordinates (Angstroms)
 Number     Number       Type             X           Y           Z
 ---------------------------------------------------------------------
      1          6           0       -4.523172    0.446614   -0.169302
      2          6           0       -5.006711   -0.965144   -0.502640
      3          6           0       -6.397536   -0.979111   -1.137624
      4          1           0       -5.242938    0.922912    0.510420
      5          1           0       -4.514074    1.049936   -1.087624
      6          1           0       -5.013575   -1.566017    0.415794
      7          1           0       -4.285612   -1.438206   -1.181496
      8          1           0       -6.401778   -0.403056   -2.068615
      9          1           0       -7.133878   -0.531594   -0.462250
     10          1           0       -6.723577   -1.998225   -1.367764
     11          6           0       -3.134273    0.477015    0.466120
     12          6           0       -2.650734    1.888773    0.799457
     13          6           0       -1.259909    1.902740    1.434442
     14          1           0       -3.143371   -0.126307    1.384441
     15          1           0       -2.414507    0.000717   -0.213602
     16          1           0       -3.371833    2.361835    1.478313
     17          1           0       -2.643870    2.489646   -0.118977
     18          1           0       -0.523568    1.455223    0.759068
     19          1           0       -1.255667    1.326685    2.365433
     20          1           0       -0.933869    2.921854    1.664581
     21          6           0        4.809069    1.224557   -0.856150
     22          6           0        5.143209    0.023632   -0.221604
     23          6           0        4.144258   -0.862330    0.192786
     24          6           0        2.815443   -0.514058   -0.044384
     25          6           0        2.450659    0.674930   -0.674088
     26          6           0        3.466228    1.545807   -1.079973
     27          1           0        5.591533    1.906934   -1.174755
     28          1           0        6.185237   -0.228465   -0.046469
     29          1           0        4.374815   -1.798684    0.686245
     30          1           0        1.403054    0.898749   -0.834861
     31          1           0        3.203782    2.477766   -1.572538
     32          7           0        1.749103   -1.444001    0.389810
     33          8           0        0.585896   -1.113971    0.169204
     34          8           0        2.096702   -2.485311    0.942516
 ---------------------------------------------------------------------

 SCF Done:  E(RHF) =  -669.535666981     A.U. after   15 cycles
 E2 =    -0.2091948068D+01 EUMP2 =    -0.67162761504932D+03

 The electronic state is 1-A.
 Alpha  occ. eigenvalues --  -20.60905 -20.60899 -15.85938 -11.31268 -11.27835
 Alpha  occ. eigenvalues --  -11.27826 -11.27566 -11.26842 -11.26832 -11.20981
 Alpha  occ. eigenvalues --  -11.20900 -11.20681 -11.20524 -11.20424 -11.20418
 Alpha  occ. eigenvalues --   -1.59966  -1.39523  -1.19436  -1.08838  -1.07690
 Alpha  occ. eigenvalues --   -1.04836  -1.02872  -0.95683  -0.95314  -0.86348
 Alpha  occ. eigenvalues --   -0.86228  -0.82518  -0.78940  -0.77621  -0.77404
 Alpha  occ. eigenvalues --   -0.72164  -0.71278  -0.70551  -0.65096  -0.64850
 Alpha  occ. eigenvalues --   -0.64325  -0.62203  -0.60279  -0.58680  -0.56914
 Alpha  occ. eigenvalues --   -0.55346  -0.54612  -0.53162  -0.52934  -0.52059
 Alpha  occ. eigenvalues --   -0.51723  -0.49317  -0.48920  -0.48869  -0.47241
 Alpha  occ. eigenvalues --   -0.45970  -0.45087  -0.44951  -0.44763  -0.43103
 Alpha  occ. eigenvalues --   -0.37413  -0.36431
 Alpha virt. eigenvalues --    0.04937   0.11173   0.16447   0.20868   0.23413
 Alpha virt. eigenvalues --    0.24499   0.26460   0.27477   0.27785   0.28517
 Alpha virt. eigenvalues --    0.29218   0.30538   0.31560   0.32272   0.32455

 Mulliken charges:
               1
     1  C   -0.298165
     2  C   -0.299271
     3  C   -0.475316
     4  H    0.146589
     5  H    0.145433
     6  H    0.153398
     7  H    0.154737
     8  H    0.153033
     9  H    0.153526
    10  H    0.159349
    11  C   -0.300573
    12  C   -0.299311
    13  C   -0.480642
    14  H    0.152675
    15  H    0.163664
    16  H    0.149178
    17  H    0.145225
    18  H    0.162130
    19  H    0.159390
    20  H    0.151329
    21  C   -0.170515
    22  C   -0.218518
    23  C   -0.170627
    24  C    0.157201
    25  C   -0.170608
    26  C   -0.219571
    27  H    0.225931
    28  H    0.223738
    29  H    0.275771
    30  H    0.278458
    31  H    0.224091
    32  N    0.491055
    33  O   -0.463614
    34  O   -0.459168
 Sum of Mulliken charges =  -0.00000

 Dipole moment (field-independent basis, Debye):
    X=              3.9596    Y=              3.0796    Z=             -1.5146  Tot=              5.2399
 Quadrupole moment (field-independent basis, Debye-Ang):
   XX=            -72.9575   YY=            -97.1075   ZZ=            -94.1681
   XY=              5.2331   XZ=             -4.1625   YZ=             -1.0824

 Normal termination of Gaussian 16 at Thu May  6 08:52:14 2021.
