 Gaussian 16, Revision A.03,
 Gaussian 16:  EM64L-G16RevA.03 25-Dec-2016

 -------------
 #p 6-31g* mp2
 -------------

 ------------------------------------------------------
 Input file generated by CHIRIPA (05-May-2021 14:53:17)
 ------------------------------------------------------
 Symbolic Z-matrix:
 Charge =  0 Multiplicity = 1

                         Standard orientation:
 ---------------------------------------------------------------------
 Center     Atomic      Atomic             Coordinates (Angstroms)
 Number     Number       Type             X           Y           Z
 ---------------------------------------------------------------------
      1          6           0       -2.917550   -0.320149    0.152241
      2          6           0       -4.314576   -0.832149    0.504604
      3          6           0       -4.325265   -2.316708    0.870344
      4          1           0       -2.518837   -0.908512   -0.685496
      5          1           0       -2.245384   -0.493744    1.003976
      6          1           0       -4.984237   -0.656383   -0.347027
      7          1           0       -4.710088   -0.242374    1.341474
      8          1           0       -3.679734   -2.505287    1.734246
      9          1           0       -3.955441   -2.921648    0.036151
     10          1           0       -5.333796   -2.661742    1.118691
     11          6           0       -2.890581    1.162306   -0.215626
     12          6           0       -1.493555    1.674306   -0.567990
     13          6           0       -1.482867    3.158864   -0.933729
     14          1           0       -3.562748    1.335901   -1.067361
     15          1           0       -3.289295    1.750668    0.622110
     16          1           0       -1.098044    1.084530   -1.404860
     17          1           0       -0.823894    1.498540    0.283642
     18          1           0       -1.852691    3.763805   -0.099537
     19          1           0       -2.128398    3.347443   -1.797632
     20          1           0       -0.474336    3.503898   -1.182077
     21          6           0        2.545639    1.835836    1.290820
     22          6           0        2.143609    1.854849   -0.048780
     23          6           0        1.986995    0.661504   -0.760080
     24          6           0        2.242038   -0.538253   -0.097638
     25          6           0        2.643889   -0.590003    1.236201
     26          6           0        2.794058    0.615622    1.927913
     27          1           0        2.664798    2.767625    1.835767
     28          1           0        1.949987    2.801006   -0.546116
     29          1           0        1.676904    0.647274   -1.797894
     30          1           0        2.829555   -1.548747    1.704984
     31          1           0        3.106399    0.597822    2.968187
     32          7           0        2.079649   -1.808094   -0.840290
     33          8           0        2.310543   -2.851938   -0.233894
     34          8           0        1.724549   -1.735508   -2.014715
 ---------------------------------------------------------------------

 SCF Done:  E(RHF) =  -669.534413159     A.U. after   15 cycles
 E2 =    -0.2093610754D+01 EUMP2 =    -0.67162802391307D+03

 The electronic state is 1-A.
 Alpha  occ. eigenvalues --  -20.60779 -20.60772 -15.85831 -11.31185 -11.27766
 Alpha  occ. eigenvalues --  -11.27749 -11.27514 -11.26784 -11.26746 -11.21789
 Alpha  occ. eigenvalues --  -11.21618 -11.21507 -11.21475 -11.21300 -11.20878
 Alpha  occ. eigenvalues --   -1.59852  -1.39406  -1.19376  -1.08770  -1.08489
 Alpha  occ. eigenvalues --   -1.04789  -1.03630  -0.96101  -0.95602  -0.87116
 Alpha  occ. eigenvalues --   -0.86172  -0.82439  -0.79712  -0.78281  -0.77474
 Alpha  occ. eigenvalues --   -0.72051  -0.71173  -0.70483  -0.65131  -0.65025
 Alpha  occ. eigenvalues --   -0.64784  -0.62168  -0.61028  -0.59518  -0.57716
 Alpha  occ. eigenvalues --   -0.55375  -0.55277  -0.53153  -0.53009  -0.52718
 Alpha  occ. eigenvalues --   -0.52448  -0.50015  -0.48809  -0.48805  -0.48000
 Alpha  occ. eigenvalues --   -0.46712  -0.45815  -0.45715  -0.44809  -0.43883
 Alpha  occ. eigenvalues --   -0.37356  -0.36276
 Alpha virt. eigenvalues --    0.05047   0.11199   0.16463   0.20216   0.22974
 Alpha virt. eigenvalues --    0.24086   0.26099   0.26335   0.27103   0.28255
 Alpha virt. eigenvalues --    0.28961   0.29586   0.31316   0.31743   0.32365

 Mulliken charges:
               1
     1  C   -0.299930
     2  C   -0.299732
     3  C   -0.476095
     4  H    0.155751
     5  H    0.148495
     6  H    0.152164
     7  H    0.150074
     8  H    0.154970
     9  H    0.159124
    10  H    0.159584
    11  C   -0.297988
    12  C   -0.304597
    13  C   -0.475954
    14  H    0.150055
    15  H    0.147997
    16  H    0.152605
    17  H    0.157282
    18  H    0.155818
    19  H    0.158943
    20  H    0.147595
    21  C   -0.172343
    22  C   -0.217936
    23  C   -0.166238
    24  C    0.158128
    25  C   -0.171412
    26  C   -0.218922
    27  H    0.225866
    28  H    0.225410
    29  H    0.275398
    30  H    0.275575
    31  H    0.223362
    32  N    0.488398
    33  O   -0.460352
    34  O   -0.461092
 Sum of Mulliken charges =  -0.00000

 Dipole moment (field-independent basis, Debye):
    X=              0.5513    Y=              4.3725    Z=              2.6146  Tot=              5.1244
 Quadrupole moment (field-independent basis, Debye-Ang):
   XX=            -92.6042   YY=           -100.1030   ZZ=            -91.3367
   XY=              9.0599   XZ=              7.5045   YZ=             -3.5593

 Normal termination of Gaussian 16 at Wed May  5 17:15:08 2021.
