 Gaussian 16, Revision A.03,
 Gaussian 16:  EM64L-G16RevA.03 25-Dec-2016

 -------------
 #p 6-31g* mp2
 -------------

 ------------------------------------------------------
 Input file generated by CHIRIPA (05-May-2021 14:53:14)
 ------------------------------------------------------
 Symbolic Z-matrix:
 Charge =  0 Multiplicity = 1

                         Standard orientation:
 ---------------------------------------------------------------------
 Center     Atomic      Atomic             Coordinates (Angstroms)
 Number     Number       Type             X           Y           Z
 ---------------------------------------------------------------------
      1          6           0        3.666415   -0.907048   -0.146735
      2          6           0        2.515891   -1.103874    0.840959
      3          6           0        1.404937   -1.994875    0.284458
      4          1           0        3.273735   -0.469449   -1.074773
      5          1           0        4.081894   -1.888227   -0.415175
      6          1           0        2.103606   -0.122524    1.108521
      7          1           0        2.911387   -1.540878    1.766824
      8          1           0        1.795385   -2.986683    0.034524
      9          1           0        0.983015   -1.560271   -0.627519
     10          1           0        0.592659   -2.122197    1.006853
     11          6           0        4.784770   -0.018602    0.395182
     12          6           0        5.935294    0.178225   -0.592512
     13          6           0        7.046248    1.069225   -0.036012
     14          1           0        4.369291    0.962578    0.663621
     15          1           0        5.177450   -0.456200    1.323219
     16          1           0        5.539798    0.615229   -1.518378
     17          1           0        6.347579   -0.803125   -0.860075
     18          1           0        7.468170    0.634621    0.875965
     19          1           0        6.655800    2.061034    0.213922
     20          1           0        7.858526    1.196547   -0.758406
     21          6           0       -1.454019    2.078610   -0.171183
     22          6           0       -2.723817    2.436161    0.293890
     23          6           0       -3.754841    1.493044    0.339371
     24          6           0       -3.479827    0.195586   -0.089883
     25          6           0       -2.225221   -0.191325   -0.558449
     26          6           0       -1.209206    0.768319   -0.595121
     27          1           0       -0.658924    2.817665   -0.203092
     28          1           0       -2.916818    3.453009    0.623762
     29          1           0       -4.747163    1.742782    0.694824
     30          1           0       -2.063137   -1.212783   -0.880583
     31          1           0       -0.224037    0.487803   -0.956784
     32          7           0       -4.563382   -0.811597   -0.046396
     33          8           0       -4.295505   -1.948064   -0.430226
     34          8           0       -5.660031   -0.445491    0.370692
 ---------------------------------------------------------------------

 SCF Done:  E(RHF) =  -669.535261878     A.U. after   15 cycles
 E2 =    -0.2091525455D+01 EUMP2 =    -0.67162678733305D+03

 The electronic state is 1-A.
 Alpha  occ. eigenvalues --  -20.60733 -20.60728 -15.85787 -11.31152 -11.27726
 Alpha  occ. eigenvalues --  -11.27704 -11.27471 -11.26745 -11.26710 -11.22369
 Alpha  occ. eigenvalues --  -11.22134 -11.22104 -11.21986 -11.21908 -11.21531
 Alpha  occ. eigenvalues --   -1.59809  -1.39362  -1.19326  -1.09101  -1.08723
 Alpha  occ. eigenvalues --   -1.04734  -1.04184  -0.96640  -0.95557  -0.87658
 Alpha  occ. eigenvalues --   -0.86128  -0.82391  -0.80247  -0.78897  -0.77436
 Alpha  occ. eigenvalues --   -0.72005  -0.71133  -0.70438  -0.65779  -0.64979
 Alpha  occ. eigenvalues --   -0.64738  -0.62213  -0.61465  -0.59993  -0.58231
 Alpha  occ. eigenvalues --   -0.55965  -0.55220  -0.53331  -0.53083  -0.53029
 Alpha  occ. eigenvalues --   -0.52785  -0.50579  -0.48767  -0.48759  -0.48550
 Alpha  occ. eigenvalues --   -0.47294  -0.46438  -0.46367  -0.44768  -0.44431
 Alpha  occ. eigenvalues --   -0.37313  -0.36316
 Alpha virt. eigenvalues --    0.05090   0.11280   0.16533   0.19440   0.22595
 Alpha virt. eigenvalues --    0.23738   0.25557   0.26188   0.26960   0.28251
 Alpha virt. eigenvalues --    0.28918   0.29841   0.31128   0.31254   0.32105

 Mulliken charges:
               1
     1  C   -0.298263
     2  C   -0.301822
     3  C   -0.477622
     4  H    0.144575
     5  H    0.153127
     6  H    0.148466
     7  H    0.157167
     8  H    0.161280
     9  H    0.143202
    10  H    0.167072
    11  C   -0.298159
    12  C   -0.299973
    13  C   -0.475926
    14  H    0.147233
    15  H    0.152106
    16  H    0.151072
    17  H    0.153744
    18  H    0.156480
    19  H    0.154515
    20  H    0.161801
    21  C   -0.171798
    22  C   -0.218545
    23  C   -0.171056
    24  C    0.158289
    25  C   -0.171996
    26  C   -0.219868
    27  H    0.225230
    28  H    0.223211
    29  H    0.275479
    30  H    0.276602
    31  H    0.227184
    32  N    0.488115
    33  O   -0.460245
    34  O   -0.460676
 Sum of Mulliken charges =  -0.00000

 Dipole moment (field-independent basis, Debye):
    X=              3.9758    Y=              3.4615    Z=             -0.0732  Tot=              5.2721
 Quadrupole moment (field-independent basis, Debye-Ang):
   XX=           -119.7464   YY=            -90.7959   ZZ=            -94.7493
   XY=            -15.3166   XZ=             -1.0373   YZ=              0.5148

 Normal termination of Gaussian 16 at Thu May  6 15:27:55 2021.
