 Gaussian 16, Revision A.03,
 Gaussian 16:  EM64L-G16RevA.03 25-Dec-2016

 -------------
 #p 6-31g* mp2
 -------------

 ------------------------------------------------------
 Input file generated by CHIRIPA (05-May-2021 14:57:24)
 ------------------------------------------------------
 Symbolic Z-matrix:
 Charge =  0 Multiplicity = 1

                         Standard orientation:
 ---------------------------------------------------------------------
 Center     Atomic      Atomic             Coordinates (Angstroms)
 Number     Number       Type             X           Y           Z
 ---------------------------------------------------------------------
      1          6           0       -2.059988    1.572631    0.303753
      2          6           0       -1.993836    0.269773    0.808435
      3          6           0       -3.061303   -0.615429    0.631007
      4          6           0       -4.184617   -0.162466   -0.059123
      5          6           0       -4.280555    1.129514   -0.573782
      6          6           0       -3.201125    1.997594   -0.384531
      7          1           0       -1.226108    2.253627    0.446175
      8          1           0       -1.108875   -0.062994    1.343371
      9          1           0       -3.036586   -1.629432    1.011276
     10          1           0       -5.176009    1.432422   -1.102768
     11          1           0       -3.255277    3.008848   -0.777569
     12          7           0       -5.321029   -1.090527   -0.253216
     13          8           0       -6.299458   -0.667143   -0.864820
     14          8           0       -5.211801   -2.223752    0.209934
     15          6           0        1.942625    1.097654    1.006973
     16          6           0        2.263602    1.293789   -0.340256
     17          6           0        3.399612    0.695800   -0.893827
     18          6           0        4.195964   -0.095687   -0.067593
     19          6           0        3.902701   -0.310127    1.278253
     20          6           0        2.761755    0.297732    1.810511
     21          1           0        1.058229    1.566019    1.428722
     22          1           0        1.629283    1.914510   -0.966666
     23          1           0        3.671513    0.830853   -1.933657
     24          1           0        4.554285   -0.934248    1.877693
     25          1           0        2.514935    0.143651    2.857117
     26          7           0        5.401219   -0.733976   -0.642352
     27          8           0        6.086542   -1.426756    0.106663
     28          8           0        5.637752   -0.529400   -1.830981
 ---------------------------------------------------------------------

 SCF Done:  E(RHF) =  -868.335951061     A.U. after   16 cycles
 E2 =    -0.2600805996D+01 EUMP2 =    -0.87093675705670D+03

 The electronic state is 1-A.
 Alpha  occ. eigenvalues --  -20.61376 -20.61370 -20.61296 -20.61291 -15.86434
 Alpha  occ. eigenvalues --  -15.86354 -11.32009 -11.31892 -11.28571 -11.28564
 Alpha  occ. eigenvalues --  -11.28525 -11.28465 -11.28450 -11.28401 -11.27726
 Alpha  occ. eigenvalues --  -11.27702 -11.27595 -11.27562  -1.60445  -1.60367
 Alpha  occ. eigenvalues --   -1.39993  -1.39916  -1.20211  -1.20091  -1.09621
 Alpha  occ. eigenvalues --   -1.09481  -1.05627  -1.05509  -0.96426  -0.96271
 Alpha  occ. eigenvalues --   -0.87041  -0.86927  -0.83215  -0.83106  -0.78191
 Alpha  occ. eigenvalues --   -0.78095  -0.72652  -0.72575  -0.71769  -0.71691
 Alpha  occ. eigenvalues --   -0.71673  -0.71069  -0.65879  -0.65772  -0.65685
 Alpha  occ. eigenvalues --   -0.65482  -0.62957  -0.62848  -0.56392  -0.56000
 Alpha  occ. eigenvalues --   -0.53992  -0.53829  -0.53729  -0.53585  -0.49428
 Alpha  occ. eigenvalues --   -0.49391  -0.49345  -0.49314  -0.45351  -0.45282
 Alpha  occ. eigenvalues --   -0.38320  -0.38075  -0.37211  -0.37082
 Alpha virt. eigenvalues --    0.04284   0.04421   0.10342   0.10600   0.15574
 Alpha virt. eigenvalues --    0.15819   0.17691   0.22201   0.24820   0.25539
 Alpha virt. eigenvalues --    0.27286   0.29469   0.29761   0.30552   0.32423

 Mulliken charges:
               1
     1  C   -0.175053
     2  C   -0.217521
     3  C   -0.170058
     4  C    0.159710
     5  C   -0.170124
     6  C   -0.217522
     7  H    0.215657
     8  H    0.220660
     9  H    0.278226
    10  H    0.278079
    11  H    0.224943
    12  N    0.487874
    13  O   -0.458368
    14  O   -0.458286
    15  C   -0.176882
    16  C   -0.216555
    17  C   -0.169754
    18  C    0.160110
    19  C   -0.169609
    20  C   -0.219418
    21  H    0.217748
    22  H    0.221504
    23  H    0.278658
    24  H    0.278665
    25  H    0.225273
    26  N    0.487836
    27  O   -0.457892
    28  O   -0.457901
 Sum of Mulliken charges =  -0.00000

 Dipole moment (field-independent basis, Debye):
    X=             -0.1795    Y=              5.3371    Z=              2.5891  Tot=              5.9346
 Quadrupole moment (field-independent basis, Debye-Ang):
   XX=           -171.4608   YY=           -104.0263   ZZ=           -100.7130
   XY=             -7.1177   XZ=              8.2282   YZ=             -5.0619

 Normal termination of Gaussian 16 at Thu May  6 09:49:27 2021.
