 Gaussian 16, Revision A.03,
 Gaussian 16:  EM64L-G16RevA.03 25-Dec-2016

 -------------
 #p 6-31g* mp2
 -------------

 ------------------------------------------------------
 Input file generated by CHIRIPA (05-May-2021 14:53:16)
 ------------------------------------------------------
 Symbolic Z-matrix:
 Charge =  0 Multiplicity = 1

                         Standard orientation:
 ---------------------------------------------------------------------
 Center     Atomic      Atomic             Coordinates (Angstroms)
 Number     Number       Type             X           Y           Z
 ---------------------------------------------------------------------
      1          6           0        3.962641   -0.306033   -0.196579
      2          6           0        3.210712   -1.615893   -0.435016
      3          6           0        4.147578   -2.809260   -0.624633
      4          1           0        4.633578   -0.116027   -1.045511
      5          1           0        4.603044   -0.415062    0.689645
      6          1           0        2.570874   -1.503972   -1.319717
      7          1           0        2.541347   -1.802705    0.414493
      8          1           0        4.777021   -2.949269    0.260127
      9          1           0        4.806715   -2.648838   -1.483937
     10          1           0        3.589099   -3.735216   -0.793646
     11          6           0        3.039676    0.896149   -0.005207
     12          6           0        3.791605    2.206009    0.233231
     13          6           0        2.854740    3.399375    0.422848
     14          1           0        2.399274    1.005178   -0.891430
     15          1           0        2.368740    0.706143    0.843726
     16          1           0        4.460971    2.392821   -0.616279
     17          1           0        4.431444    2.094088    1.117932
     18          1           0        2.195602    3.238954    1.282152
     19          1           0        2.225297    3.539385   -0.461912
     20          1           0        3.413218    4.325332    0.591861
     21          6           0       -0.568144   -1.141788    0.994805
     22          6           0       -1.706765   -1.096120    1.805964
     23          6           0       -2.912867   -0.593249    1.308988
     24          6           0       -2.944791   -0.142415   -0.009731
     25          6           0       -1.827473   -0.174834   -0.842701
     26          6           0       -0.632020   -0.681811   -0.324612
     27          1           0        0.364649   -1.534025    1.389069
     28          1           0       -1.660092   -1.452656    2.831025
     29          1           0       -3.809453   -0.546352    1.915084
     30          1           0       -1.904908    0.187842   -1.860486
     31          1           0        0.250666   -0.716067   -0.956862
     32          7           0       -4.216000    0.392124   -0.547033
     33          8           0       -4.218029    0.783177   -1.712242
     34          8           0       -5.186276    0.409922    0.207212
 ---------------------------------------------------------------------

 SCF Done:  E(RHF) =  -669.534736606     A.U. after   15 cycles
 E2 =    -0.2093149564D+01 EUMP2 =    -0.67162788617053D+03

 The electronic state is 1-A.
 Alpha  occ. eigenvalues --  -20.60690 -20.60685 -15.85741 -11.31086 -11.27648
 Alpha  occ. eigenvalues --  -11.27624 -11.27350 -11.26669 -11.26575 -11.23010
 Alpha  occ. eigenvalues --  -11.22442 -11.22371 -11.22300 -11.22110 -11.21599
 Alpha  occ. eigenvalues --   -1.59766  -1.39320  -1.19246  -1.09470  -1.08641
 Alpha  occ. eigenvalues --   -1.04645  -1.04473  -0.96872  -0.95489  -0.87894
 Alpha  occ. eigenvalues --   -0.86048  -0.82323  -0.80614  -0.79295  -0.77358
 Alpha  occ. eigenvalues --   -0.71960  -0.71088  -0.70381  -0.66099  -0.64892
 Alpha  occ. eigenvalues --   -0.64651  -0.62016  -0.61868  -0.60259  -0.58502
 Alpha  occ. eigenvalues --   -0.56140  -0.55177  -0.53582  -0.53309  -0.52952
 Alpha  occ. eigenvalues --   -0.52744  -0.50821  -0.48882  -0.48722  -0.48712
 Alpha  occ. eigenvalues --   -0.47633  -0.46740  -0.46681  -0.44732  -0.44730
 Alpha  occ. eigenvalues --   -0.37213  -0.36238
 Alpha virt. eigenvalues --    0.05139   0.11347   0.16592   0.19414   0.22640
 Alpha virt. eigenvalues --    0.23286   0.23699   0.25309   0.27145   0.28334
 Alpha virt. eigenvalues --    0.29410   0.30248   0.31066   0.31369   0.31730

 Mulliken charges:
               1
     1  C   -0.297845
     2  C   -0.307807
     3  C   -0.475292
     4  H    0.154228
     5  H    0.152641
     6  H    0.149554
     7  H    0.145216
     8  H    0.158197
     9  H    0.159873
    10  H    0.162537
    11  C   -0.301592
    12  C   -0.300473
    13  C   -0.476292
    14  H    0.146885
    15  H    0.148365
    16  H    0.154149
    17  H    0.153344
    18  H    0.156482
    19  H    0.156833
    20  H    0.162986
    21  C   -0.177684
    22  C   -0.219018
    23  C   -0.171348
    24  C    0.158841
    25  C   -0.173228
    26  C   -0.221927
    27  H    0.230021
    28  H    0.222959
    29  H    0.275027
    30  H    0.275162
    31  H    0.232696
    32  N    0.488014
    33  O   -0.460735
    34  O   -0.460775
 Sum of Mulliken charges =  -0.00000

 Dipole moment (field-independent basis, Debye):
    X=              4.7675    Y=             -1.8269    Z=              1.8674  Tot=              5.4363
 Quadrupole moment (field-independent basis, Debye-Ang):
   XX=           -120.1041   YY=            -95.3083   ZZ=            -90.0836
   XY=              5.8455   XZ=             -7.9542   YZ=             -1.3719

 Normal termination of Gaussian 16 at Wed May  5 20:20:22 2021.
