 Gaussian 16, Revision A.03,
 Gaussian 16:  EM64L-G16RevA.03 25-Dec-2016

 -------------
 #p 6-31g* mp2
 -------------

 ------------------------------------------------------
 Input file generated by CHIRIPA (05-May-2021 14:57:27)
 ------------------------------------------------------
 Symbolic Z-matrix:
 Charge =  0 Multiplicity = 1

                         Standard orientation:
 ---------------------------------------------------------------------
 Center     Atomic      Atomic             Coordinates (Angstroms)
 Number     Number       Type             X           Y           Z
 ---------------------------------------------------------------------
      1          6           0       -2.092215    1.104421    1.743220
      2          6           0       -1.574071    0.193232    0.817055
      3          6           0       -2.415987   -0.444207   -0.099130
      4          6           0       -3.777106   -0.145565   -0.060933
      5          6           0       -4.323485    0.757515    0.849674
      6          6           0       -3.462852    1.383163    1.756550
      7          1           0       -1.430925    1.595019    2.451319
      8          1           0       -0.510030   -0.025178    0.804399
      9          1           0       -2.041451   -1.153819   -0.826860
     10          1           0       -5.388541    0.954845    0.838008
     11          1           0       -3.868038    2.090365    2.474698
     12          7           0       -4.678312   -0.814152   -1.025929
     13          8           0       -5.873772   -0.533832   -0.971776
     14          8           0       -4.172153   -1.605851   -1.818175
     15          6           0        4.149422   -2.151035    1.048302
     16          6           0        4.916180   -1.733621   -0.044570
     17          6           0        4.636618   -0.524039   -0.687457
     18          6           0        3.578222    0.246748   -0.208942
     19          6           0        2.796035   -0.141928    0.877522
     20          6           0        3.093658   -1.355259    1.505055
     21          1           0        4.373607   -3.092123    1.541748
     22          1           0        5.736703   -2.349590   -0.401459
     23          1           0        5.214116   -0.176887   -1.535632
     24          1           0        1.984443    0.493604    1.210441
     25          1           0        2.496495   -1.676911    2.353572
     26          7           0        3.272702    1.529263   -0.881410
     27          8           0        2.334898    2.190172   -0.440549
     28          8           0        3.976825    1.849303   -1.836618
 ---------------------------------------------------------------------

 SCF Done:  E(RHF) =  -868.337273604     A.U. after   16 cycles
 E2 =    -0.2599690127D+01 EUMP2 =    -0.87093696373043D+03

 The electronic state is 1-A.
 Alpha  occ. eigenvalues --  -20.61469 -20.61440 -20.60677 -20.60672 -15.86513
 Alpha  occ. eigenvalues --  -15.85732 -11.31965 -11.31098 -11.28628 -11.28449
 Alpha  occ. eigenvalues --  -11.28200 -11.27687 -11.27668 -11.27588 -11.27474
 Alpha  occ. eigenvalues --  -11.27440 -11.26744 -11.26679  -1.60528  -1.59752
 Alpha  occ. eigenvalues --   -1.40083  -1.39306  -1.20119  -1.19278  -1.09480
 Alpha  occ. eigenvalues --   -1.08678  -1.05543  -1.04689  -0.96315  -0.95509
 Alpha  occ. eigenvalues --   -0.86927  -0.86097  -0.83150  -0.82346  -0.78211
 Alpha  occ. eigenvalues --   -0.77389  -0.72726  -0.71953  -0.71852  -0.71217
 Alpha  occ. eigenvalues --   -0.71074  -0.70397  -0.65767  -0.65552  -0.64940
 Alpha  occ. eigenvalues --   -0.64724  -0.62913  -0.62022  -0.55990  -0.55204
 Alpha  occ. eigenvalues --   -0.53849  -0.53643  -0.53003  -0.52770  -0.49496
 Alpha  occ. eigenvalues --   -0.49475  -0.48711  -0.48705  -0.45469  -0.44711
 Alpha  occ. eigenvalues --   -0.38060  -0.37253  -0.37145  -0.36281
 Alpha virt. eigenvalues --    0.04300   0.05160   0.10439   0.11365   0.15819
 Alpha virt. eigenvalues --    0.16649   0.19124   0.21901   0.25168   0.27168
 Alpha virt. eigenvalues --    0.28087   0.28993   0.30559   0.30920   0.31797

 Mulliken charges:
               1
     1  C   -0.169549
     2  C   -0.216733
     3  C   -0.171206
     4  C    0.158821
     5  C   -0.170692
     6  C   -0.218379
     7  H    0.224430
     8  H    0.218952
     9  H    0.275776
    10  H    0.275689
    11  H    0.223765
    12  N    0.488127
    13  O   -0.460450
    14  O   -0.460652
    15  C   -0.170390
    16  C   -0.217160
    17  C   -0.170096
    18  C    0.160819
    19  C   -0.177807
    20  C   -0.218339
    21  H    0.228751
    22  H    0.226985
    23  H    0.278443
    24  H    0.268550
    25  H    0.223460
    26  N    0.488124
    27  O   -0.463302
    28  O   -0.455939
 Sum of Mulliken charges =  -0.00000

 Dipole moment (field-independent basis, Debye):
    X=              4.4840    Y=             -2.2019    Z=              5.6746  Tot=              7.5601
 Quadrupole moment (field-independent basis, Debye-Ang):
   XX=           -114.3436   YY=           -107.3920   ZZ=           -104.4829
   XY=            -28.9387   XZ=             -9.5823   YZ=              2.5055

 Normal termination of Gaussian 16 at Fri May  7 02:02:54 2021.
