 Gaussian 16, Revision A.03,
 Gaussian 16:  EM64L-G16RevA.03 25-Dec-2016

 -------------
 #p 6-31g* mp2
 -------------

 ------------------------------------------------------
 Input file generated by CHIRIPA (05-May-2021 14:51:10)
 ------------------------------------------------------
 Symbolic Z-matrix:
 Charge =  0 Multiplicity = 1

                         Standard orientation:
 ---------------------------------------------------------------------
 Center     Atomic      Atomic             Coordinates (Angstroms)
 Number     Number       Type             X           Y           Z
 ---------------------------------------------------------------------
      1          6           0        3.427587   -0.292639    0.272219
      2          6           0        4.097571    0.389720   -0.920882
      3          6           0        5.304224    1.237105   -0.516256
      4          1           0        3.114115    0.472498    0.995576
      5          1           0        4.165110   -0.924833    0.785820
      6          1           0        3.358646    1.019362   -1.432896
      7          1           0        4.409313   -0.377117   -1.641571
      8          1           0        6.062024    0.618427   -0.024750
      9          1           0        5.005387    2.022841    0.185111
     10          1           0        5.767944    1.715726   -1.384442
     11          6           0        2.219675   -1.143386   -0.116248
     12          6           0        1.549691   -1.825746    1.076854
     13          6           0        0.343038   -2.673130    0.672228
     14          1           0        1.482152   -0.511192   -0.629849
     15          1           0        2.533147   -1.908523   -0.839604
     16          1           0        1.237949   -1.058908    1.797543
     17          1           0        2.288616   -2.455387    1.588867
     18          1           0        0.641875   -3.458866   -0.029140
     19          1           0       -0.414762   -2.054453    0.180721
     20          1           0       -0.120681   -3.151751    1.540413
     21          6           0       -2.785862   -0.044731   -0.062884
     22          6           0       -4.015173   -0.724781   -0.666466
     23          6           0       -3.924765   -2.250630   -0.628999
     24          1           0       -1.889157   -0.373774   -0.605649
     25          1           0       -2.662991   -0.380281    0.976205
     26          1           0       -4.136489   -0.386987   -1.703672
     27          1           0       -4.909078   -0.393932   -0.122325
     28          1           0       -3.827235   -2.605560    0.402076
     29          1           0       -3.050256   -2.598575   -1.188257
     30          1           0       -4.813878   -2.716317   -1.065432
     31          6           0       -2.861400    1.480756   -0.093088
     32          6           0       -1.632089    2.160805    0.510496
     33          6           0       -1.722497    3.686655    0.473027
     34          1           0       -2.984272    1.816306   -1.132177
     35          1           0       -3.758106    1.809799    0.449677
     36          1           0       -0.738185    1.829957   -0.033647
     37          1           0       -1.510774    1.823012    1.547700
     38          1           0       -2.597005    4.034600    1.032286
     39          1           0       -1.820027    4.041585   -0.558046
     40          1           0       -0.833384    4.152343    0.909461
 ---------------------------------------------------------------------

 SCF Done:  E(RHF) =  -470.733117836     A.U. after   11 cycles
 E2 =    -0.1583529417D+01 EUMP2 =    -0.47231664725255D+03

 The electronic state is 1-A.
 Alpha  occ. eigenvalues --  -11.21684 -11.21631 -11.21596 -11.21534 -11.21464
 Alpha  occ. eigenvalues --  -11.21405 -11.21387 -11.21327 -11.21133 -11.21065
 Alpha  occ. eigenvalues --  -11.21058 -11.20917  -1.08496  -1.08395  -1.03579
 Alpha  occ. eigenvalues --   -1.03482  -0.96023  -0.95932  -0.87042  -0.86947
 Alpha  occ. eigenvalues --   -0.79669  -0.79531  -0.78353  -0.78178  -0.65165
 Alpha  occ. eigenvalues --   -0.64991  -0.60986  -0.60877  -0.59399  -0.59304
 Alpha  occ. eigenvalues --   -0.57644  -0.57540  -0.55327  -0.55211  -0.52715
 Alpha  occ. eigenvalues --   -0.52625  -0.52470  -0.52343  -0.49994  -0.49877
 Alpha  occ. eigenvalues --   -0.48022  -0.47824  -0.46716  -0.46638  -0.45995
 Alpha  occ. eigenvalues --   -0.45785  -0.45717  -0.45332  -0.43834  -0.43745
 Alpha virt. eigenvalues --    0.20399   0.22990   0.23684   0.24373   0.25248
 Alpha virt. eigenvalues --    0.26562   0.27231   0.27678   0.28305   0.29567
 Alpha virt. eigenvalues --    0.30856   0.31611   0.31630   0.31814   0.32206

 Mulliken charges:
               1
     1  C   -0.298302
     2  C   -0.299562
     3  C   -0.475684
     4  H    0.149919
     5  H    0.149609
     6  H    0.151512
     7  H    0.151878
     8  H    0.155211
     9  H    0.155202
    10  H    0.160180
    11  C   -0.299389
    12  C   -0.299157
    13  C   -0.483574
    14  H    0.149232
    15  H    0.149514
    16  H    0.152095
    17  H    0.151479
    18  H    0.153883
    19  H    0.164906
    20  H    0.159362
    21  C   -0.303231
    22  C   -0.299531
    23  C   -0.476868
    24  H    0.152756
    25  H    0.151005
    26  H    0.151812
    27  H    0.152037
    28  H    0.155928
    29  H    0.156790
    30  H    0.160212
    31  C   -0.297539
    32  C   -0.300780
    33  C   -0.475700
    34  H    0.149651
    35  H    0.150070
    36  H    0.151774
    37  H    0.152052
    38  H    0.155558
    39  H    0.155410
    40  H    0.160281
 Sum of Mulliken charges =  -0.00000

 Dipole moment (field-independent basis, Debye):
    X=             -0.0556    Y=              0.0161    Z=              0.0004  Tot=              0.0578
 Quadrupole moment (field-independent basis, Debye-Ang):
   XX=            -84.9385   YY=            -85.8317   ZZ=            -83.9443
   XY=             -1.1304   XZ=             -0.6267   YZ=              0.0002

 Normal termination of Gaussian 16 at Wed May  5 23:02:16 2021.
