 Gaussian 16, Revision A.03,
 Gaussian 16:  EM64L-G16RevA.03 25-Dec-2016

 -------------
 #p 6-31g* mp2
 -------------

 ------------------------------------------------------
 Input file generated by CHIRIPA (05-May-2021 14:53:17)
 ------------------------------------------------------
 Symbolic Z-matrix:
 Charge =  0 Multiplicity = 1

                         Standard orientation:
 ---------------------------------------------------------------------
 Center     Atomic      Atomic             Coordinates (Angstroms)
 Number     Number       Type             X           Y           Z
 ---------------------------------------------------------------------
      1          6           0       -3.137853   -0.654661   -0.516792
      2          6           0       -3.782813   -1.554787    0.537621
      3          6           0       -3.825223   -3.023603    0.115040
      4          1           0       -3.692483   -0.750371   -1.460280
      5          1           0       -2.117235   -1.009225   -0.716835
      6          1           0       -4.801424   -1.197794    0.736625
      7          1           0       -3.226699   -1.456776    1.478762
      8          1           0       -2.813760   -3.402179   -0.064470
      9          1           0       -4.397433   -3.141726   -0.810824
     10          1           0       -4.290206   -3.649142    0.883384
     11          6           0       -3.088131    0.816678   -0.108846
     12          6           0       -2.443171    1.716804   -1.163258
     13          6           0       -2.400761    3.185620   -0.740678
     14          1           0       -4.108749    1.171242    0.091197
     15          1           0       -2.533501    0.912388    0.834642
     16          1           0       -2.999285    1.618793   -2.104399
     17          1           0       -1.424559    1.359811   -1.362262
     18          1           0       -1.828550    3.303743    0.185186
     19          1           0       -3.412223    3.564196   -0.561168
     20          1           0       -1.935778    3.811158   -1.509022
     21          6           0        0.434690    0.962542    1.395151
     22          6           0        1.600107    1.714304    1.213006
     23          6           0        2.712858    1.156176    0.576744
     24          6           0        2.625120   -0.162461    0.133138
     25          6           0        1.478186   -0.937097    0.299787
     26          6           0        0.377550   -0.358430    0.938765
     27          1           0       -0.425015    1.404086    1.890470
     28          1           0        1.647333    2.740421    1.566414
     29          1           0        3.627615    1.715545    0.422649
     30          1           0        1.461133   -1.957526   -0.063330
     31          1           0       -0.526215   -0.944630    1.078850
     32          7           0        3.796726   -0.764198   -0.541881
     33          8           0        3.694080   -1.927993   -0.923564
     34          8           0        4.795493   -0.060649   -0.676498
 ---------------------------------------------------------------------

 SCF Done:  E(RHF) =  -669.534081473     A.U. after   15 cycles
 E2 =    -0.2094902326D+01 EUMP2 =    -0.67162898379897D+03

 The electronic state is 1-A.
 Alpha  occ. eigenvalues --  -20.60804 -20.60799 -15.85858 -11.31248 -11.27820
 Alpha  occ. eigenvalues --  -11.27813 -11.27549 -11.26833 -11.26803 -11.22585
 Alpha  occ. eigenvalues --  -11.22397 -11.22292 -11.22268 -11.21870 -11.21857
 Alpha  occ. eigenvalues --   -1.59879  -1.39432  -1.19428  -1.09390  -1.08797
 Alpha  occ. eigenvalues --   -1.04832  -1.04380  -0.96838  -0.95650  -0.87849
 Alpha  occ. eigenvalues --   -0.86232  -0.82485  -0.80435  -0.79178  -0.77527
 Alpha  occ. eigenvalues --   -0.72078  -0.71203  -0.70584  -0.66316  -0.65074
 Alpha  occ. eigenvalues --   -0.64591  -0.62197  -0.61751  -0.60191  -0.58435
 Alpha  occ. eigenvalues --   -0.56148  -0.55350  -0.53493  -0.53252  -0.53137
 Alpha  occ. eigenvalues --   -0.52909  -0.50776  -0.48847  -0.48830  -0.48727
 Alpha  occ. eigenvalues --   -0.47481  -0.46711  -0.46612  -0.44833  -0.44647
 Alpha  occ. eigenvalues --   -0.37367  -0.36411
 Alpha virt. eigenvalues --    0.04977   0.11112   0.16315   0.18621   0.22051
 Alpha virt. eigenvalues --    0.23667   0.25189   0.26097   0.26778   0.28267
 Alpha virt. eigenvalues --    0.29459   0.30329   0.31026   0.31325   0.31969

 Mulliken charges:
               1
     1  C   -0.304795
     2  C   -0.302897
     3  C   -0.475360
     4  H    0.156644
     5  H    0.148088
     6  H    0.156837
     7  H    0.144392
     8  H    0.152897
     9  H    0.159544
    10  H    0.163491
    11  C   -0.297907
    12  C   -0.303601
    13  C   -0.474671
    14  H    0.153643
    15  H    0.136531
    16  H    0.155567
    17  H    0.159748
    18  H    0.145762
    19  H    0.156894
    20  H    0.164489
    21  C   -0.172753
    22  C   -0.219151
    23  C   -0.170730
    24  C    0.158775
    25  C   -0.173690
    26  C   -0.221232
    27  H    0.228272
    28  H    0.224085
    29  H    0.275939
    30  H    0.275952
    31  H    0.231585
    32  N    0.488078
    33  O   -0.460205
    34  O   -0.460219
 Sum of Mulliken charges =  -0.00000

 Dipole moment (field-independent basis, Debye):
    X=             -4.2290    Y=              2.1054    Z=              2.2338  Tot=              5.2256
 Quadrupole moment (field-independent basis, Debye-Ang):
   XX=           -114.1865   YY=            -92.9501   ZZ=            -94.6158
   XY=              8.7753   XZ=              6.8658   YZ=              0.1366

 Normal termination of Gaussian 16 at Thu May  6 18:58:08 2021.
