 Gaussian 16, Revision A.03,
 Gaussian 16:  EM64L-G16RevA.03 25-Dec-2016

 -------------
 #p 6-31g* mp2
 -------------

 ------------------------------------------------------
 Input file generated by CHIRIPA (05-May-2021 14:57:24)
 ------------------------------------------------------
 Symbolic Z-matrix:
 Charge =  0 Multiplicity = 1

                         Standard orientation:
 ---------------------------------------------------------------------
 Center     Atomic      Atomic             Coordinates (Angstroms)
 Number     Number       Type             X           Y           Z
 ---------------------------------------------------------------------
      1          6           0       -5.980370    1.300126   -0.400959
      2          6           0       -5.347257    0.637255   -1.457506
      3          6           0       -4.245287   -0.189264   -1.218600
      4          6           0       -3.800891   -0.330857    0.095079
      5          6           0       -4.410396    0.316221    1.168897
      6          6           0       -5.510746    1.137780    0.906565
      7          1           0       -6.835778    1.940259   -0.595645
      8          1           0       -5.709799    0.761471   -2.473960
      9          1           0       -3.736374   -0.714222   -2.017878
     10          1           0       -4.026092    0.172753    2.171466
     11          1           0       -6.000462    1.651339    1.729050
     12          7           0       -2.635141   -1.203230    0.360398
     13          8           0       -2.262965   -1.311390    1.526770
     14          8           0       -2.115677   -1.762317   -0.603041
     15          6           0        1.470529    0.136413   -0.071247
     16          6           0        2.195646   -1.051725   -0.209287
     17          6           0        3.593572   -1.035564   -0.199686
     18          6           0        4.236885    0.191978   -0.049429
     19          6           0        3.542511    1.392652    0.090279
     20          6           0        2.145087    1.352665    0.077832
     21          1           0        0.384782    0.114604   -0.079811
     22          1           0        1.674437   -1.997740   -0.325224
     23          1           0        4.179707   -1.940467   -0.304633
     24          1           0        4.090111    2.320326    0.204168
     25          1           0        1.584548    2.276951    0.185237
     26          7           0        5.716541    0.221698   -0.037758
     27          8           0        6.259635    1.316132    0.096040
     28          8           0        6.305184   -0.850003   -0.162629
 ---------------------------------------------------------------------

 SCF Done:  E(RHF) =  -868.339928508     A.U. after   16 cycles
 E2 =    -0.2598558421D+01 EUMP2 =    -0.87093848692906D+03

 The electronic state is 1-A.
 Alpha  occ. eigenvalues --  -20.62056 -20.62039 -20.60095 -20.60085 -15.87066
 Alpha  occ. eigenvalues --  -15.85139 -11.32131 -11.30323 -11.28661 -11.28653
 Alpha  occ. eigenvalues --  -11.28330 -11.27592 -11.27582 -11.26921 -11.26822
 Alpha  occ. eigenvalues --  -11.26455 -11.25884 -11.25666  -1.61136  -1.59172
 Alpha  occ. eigenvalues --   -1.40683  -1.38731  -1.20276  -1.18462  -1.09726
 Alpha  occ. eigenvalues --   -1.07861  -1.05623  -1.03839  -0.96606  -0.94735
 Alpha  occ. eigenvalues --   -0.87034  -0.85221  -0.83438  -0.81583  -0.78527
 Alpha  occ. eigenvalues --   -0.76675  -0.73272  -0.72480  -0.71363  -0.71361
 Alpha  occ. eigenvalues --   -0.70494  -0.69492  -0.65920  -0.65610  -0.64097
 Alpha  occ. eigenvalues --   -0.63806  -0.62967  -0.61189  -0.56124  -0.54270
 Alpha  occ. eigenvalues --   -0.53965  -0.53701  -0.52179  -0.51906  -0.50058
 Alpha  occ. eigenvalues --   -0.50019  -0.48127  -0.48099  -0.46141  -0.44178
 Alpha  occ. eigenvalues --   -0.38239  -0.37214  -0.36391  -0.35454
 Alpha virt. eigenvalues --    0.03942   0.05852   0.10444   0.12216   0.15502
 Alpha virt. eigenvalues --    0.17412   0.20647   0.22385   0.26595   0.27475
 Alpha virt. eigenvalues --    0.28319   0.28882   0.30371   0.31725   0.31841

 Mulliken charges:
               1
     1  C   -0.169565
     2  C   -0.218564
     3  C   -0.171334
     4  C    0.155339
     5  C   -0.171195
     6  C   -0.218647
     7  H    0.228926
     8  H    0.226432
     9  H    0.276333
    10  H    0.276943
    11  H    0.226443
    12  N    0.484747
    13  O   -0.457905
    14  O   -0.464964
    15  C   -0.168550
    16  C   -0.220028
    17  C   -0.172690
    18  C    0.157538
    19  C   -0.172300
    20  C   -0.219983
    21  H    0.231329
    22  H    0.235344
    23  H    0.273668
    24  H    0.271831
    25  H    0.218156
    26  N    0.488230
    27  O   -0.463552
    28  O   -0.461980
 Sum of Mulliken charges =  -0.00000

 Dipole moment (field-independent basis, Debye):
    X=             -9.8975    Y=              2.8740    Z=             -0.9668  Tot=             10.3516
 Quadrupole moment (field-independent basis, Debye-Ang):
   XX=           -118.8745   YY=           -102.5087   ZZ=           -100.8692
   XY=            -12.9805   XZ=              2.9522   YZ=              2.4273

 Normal termination of Gaussian 16 at Thu May  6 06:39:57 2021.
