 Gaussian 16, Revision A.03,
 Gaussian 16:  EM64L-G16RevA.03 25-Dec-2016

 -------------
 #p 6-31g* mp2
 -------------

 ------------------------------------------------------
 Input file generated by CHIRIPA (05-May-2021 14:55:24)
 ------------------------------------------------------
 Symbolic Z-matrix:
 Charge =  0 Multiplicity = 1

                         Standard orientation:
 ---------------------------------------------------------------------
 Center     Atomic      Atomic             Coordinates (Angstroms)
 Number     Number       Type             X           Y           Z
 ---------------------------------------------------------------------
      1          6           0        3.192909    1.465122    0.253176
      2          6           0        3.251676    0.711776   -0.923912
      3          6           0        2.538942   -0.485638   -1.036860
      4          6           0        1.774034   -0.901836    0.051710
      5          6           0        1.695231   -0.173477    1.237700
      6          6           0        2.416243    1.020875    1.328330
      7          1           0        3.749793    2.394113    0.332248
      8          1           0        3.854022    1.054341   -1.760497
      9          1           0        2.566569   -1.088458   -1.936451
     10          1           0        1.086107   -0.540708    2.054723
     11          1           0        2.368731    1.603879    2.243695
     12          7           0        1.015112   -2.167864   -0.056050
     13          8           0        0.348552   -2.512799    0.917271
     14          8           0        1.101200   -2.791269   -1.111792
     15          6           0       -1.810965    1.315989    0.035000
     16          6           0       -1.968478    2.761115   -0.439112
     17          6           0       -0.720032    3.606258   -0.184338
     18          1           0       -1.576777    1.312402    1.108353
     19          1           0       -0.949594    0.862149   -0.474377
     20          1           0       -2.830135    3.211664    0.069975
     21          1           0       -2.202507    2.761254   -1.511422
     22          1           0        0.144702    3.182934   -0.705522
     23          1           0       -0.486492    3.635903    0.884859
     24          1           0       -0.854493    4.635665   -0.530896
     25          6           0       -3.050765    0.458551   -0.212842
     26          6           0       -2.893251   -0.986576    0.261271
     27          6           0       -4.141697   -1.831718    0.006495
     28          1           0       -3.912136    0.912391    0.296534
     29          1           0       -3.284952    0.462138   -1.286196
     30          1           0       -2.659222   -0.986715    1.333579
     31          1           0       -2.031594   -1.437124   -0.247817
     32          1           0       -4.375236   -1.861363   -1.062701
     33          1           0       -5.006430   -1.408395    0.527680
     34          1           0       -4.007237   -2.861125    0.353054
 ---------------------------------------------------------------------

 SCF Done:  E(RHF) =  -669.535705600     A.U. after   15 cycles
 E2 =    -0.2094125314D+01 EUMP2 =    -0.67162983091328D+03

 The electronic state is 1-A.
 Alpha  occ. eigenvalues --  -20.60901 -20.60871 -15.85911 -11.31250 -11.27835
 Alpha  occ. eigenvalues --  -11.27810 -11.27569 -11.26838 -11.26813 -11.21599
 Alpha  occ. eigenvalues --  -11.21258 -11.21223 -11.20926 -11.20716 -11.20265
 Alpha  occ. eigenvalues --   -1.59956  -1.39508  -1.19431  -1.08830  -1.08112
 Alpha  occ. eigenvalues --   -1.04823  -1.03151  -0.95673  -0.95649  -0.86680
 Alpha  occ. eigenvalues --   -0.86221  -0.82500  -0.79268  -0.77880  -0.77533
 Alpha  occ. eigenvalues --   -0.72137  -0.71281  -0.70531  -0.65083  -0.64830
 Alpha  occ. eigenvalues --   -0.64744  -0.62170  -0.60556  -0.59058  -0.57220
 Alpha  occ. eigenvalues --   -0.55326  -0.54972  -0.53184  -0.52916  -0.52340
 Alpha  occ. eigenvalues --   -0.52078  -0.49633  -0.48909  -0.48902  -0.47555
 Alpha  occ. eigenvalues --   -0.46319  -0.45591  -0.45313  -0.44612  -0.43416
 Alpha  occ. eigenvalues --   -0.37381  -0.36394
 Alpha virt. eigenvalues --    0.04949   0.11207   0.16402   0.21167   0.23021
 Alpha virt. eigenvalues --    0.24581   0.26201   0.26886   0.27623   0.28229
 Alpha virt. eigenvalues --    0.28762   0.30754   0.31565   0.31841   0.32518

 Mulliken charges:
               1
     1  C   -0.170204
     2  C   -0.219297
     3  C   -0.172430
     4  C    0.158356
     5  C   -0.167538
     6  C   -0.216623
     7  H    0.226522
     8  H    0.223823
     9  H    0.275740
    10  H    0.275739
    11  H    0.223845
    12  N    0.486367
    13  O   -0.456870
    14  O   -0.460529
    15  C   -0.297963
    16  C   -0.298941
    17  C   -0.475786
    18  H    0.144103
    19  H    0.149258
    20  H    0.152021
    21  H    0.152495
    22  H    0.154899
    23  H    0.149696
    24  H    0.158669
    25  C   -0.299156
    26  C   -0.299489
    27  C   -0.476221
    28  H    0.146847
    29  H    0.148650
    30  H    0.151897
    31  H    0.162677
    32  H    0.153098
    33  H    0.150042
    34  H    0.166305
 Sum of Mulliken charges =  -0.00000

 Dipole moment (field-independent basis, Debye):
    X=              2.7881    Y=              4.2749    Z=              0.4056  Tot=              5.1198
 Quadrupole moment (field-independent basis, Debye-Ang):
   XX=            -86.0966   YY=           -104.1139   ZZ=            -89.6625
   XY=              5.0575   XZ=             -1.4261   YZ=              0.6689

 Normal termination of Gaussian 16 at Thu May  6 14:20:03 2021.
