 Gaussian 16, Revision A.03,
 Gaussian 16:  EM64L-G16RevA.03 25-Dec-2016

 -------------
 #p 6-31g* mp2
 -------------

 ------------------------------------------------------
 Input file generated by CHIRIPA (05-May-2021 14:55:21)
 ------------------------------------------------------
 Symbolic Z-matrix:
 Charge =  0 Multiplicity = 1

                         Standard orientation:
 ---------------------------------------------------------------------
 Center     Atomic      Atomic             Coordinates (Angstroms)
 Number     Number       Type             X           Y           Z
 ---------------------------------------------------------------------
      1          6           0       -5.876269   -0.249429    0.276827
      2          6           0       -5.194276    0.957496    0.090444
      3          6           0       -3.808143    0.969025   -0.091354
      4          6           0       -3.132519   -0.250285   -0.081118
      5          6           0       -3.783653   -1.469182    0.102205
      6          6           0       -5.170026   -1.456787    0.282103
      7          1           0       -6.953144   -0.249094    0.417314
      8          1           0       -5.740163    1.896662    0.085886
      9          1           0       -3.255149    1.888909   -0.237741
     10          1           0       -3.212175   -2.389416    0.101896
     11          1           0       -5.697048   -2.395619    0.426631
     12          7           0       -1.664955   -0.250743   -0.272573
     13          8           0       -1.092787   -1.338442   -0.259459
     14          8           0       -1.114635    0.836606   -0.432126
     15          6           0        4.608573   -0.355721   -0.143308
     16          6           0        6.034222   -0.584526    0.359839
     17          6           0        6.599332   -1.941224   -0.061844
     18          1           0        3.960058   -1.158063    0.234344
     19          1           0        4.596954   -0.434195   -1.239256
     20          1           0        6.043402   -0.504274    1.454412
     21          1           0        6.679380    0.218559   -0.018899
     22          1           0        6.619196   -2.027950   -1.153028
     23          1           0        5.979606   -2.754890    0.328654
     24          1           0        7.619325   -2.083904    0.308452
     25          6           0        4.029870    0.996259    0.270191
     26          6           0        2.604220    1.225063   -0.232957
     27          6           0        2.039111    2.581761    0.188725
     28          1           0        4.041489    1.074731    1.366139
     29          1           0        4.678384    1.798600   -0.107463
     30          1           0        1.959063    0.421978    0.145781
     31          1           0        2.595040    1.144811   -1.327530
     32          1           0        2.658837    3.395427   -0.201771
     33          1           0        2.019246    2.668487    1.279910
     34          1           0        1.019119    2.724441   -0.181569
 ---------------------------------------------------------------------

 SCF Done:  E(RHF) =  -669.536361383     A.U. after   15 cycles
 E2 =    -0.2091408522D+01 EUMP2 =    -0.67162776990487D+03

 The electronic state is 1-A.
 Alpha  occ. eigenvalues --  -20.61028 -20.61021 -15.86047 -11.31343 -11.27901
 Alpha  occ. eigenvalues --  -11.27898 -11.27633 -11.26902 -11.26892 -11.20702
 Alpha  occ. eigenvalues --  -11.20311 -11.20228 -11.20036 -11.19751 -11.19348
 Alpha  occ. eigenvalues --   -1.60074  -1.39632  -1.19507  -1.08916  -1.07166
 Alpha  occ. eigenvalues --   -1.04899  -1.02213  -0.95764  -0.94707  -0.86301
 Alpha  occ. eigenvalues --   -0.85748  -0.82598  -0.78327  -0.77653  -0.76893
 Alpha  occ. eigenvalues --   -0.72272  -0.71385  -0.70616  -0.65164  -0.64902
 Alpha  occ. eigenvalues --   -0.63814  -0.62246  -0.59630  -0.58111  -0.56256
 Alpha  occ. eigenvalues --   -0.55399  -0.54040  -0.53232  -0.52990  -0.51402
 Alpha  occ. eigenvalues --   -0.51138  -0.49015  -0.48986  -0.48712  -0.46622
 Alpha  occ. eigenvalues --   -0.45377  -0.45048  -0.44460  -0.44316  -0.42472
 Alpha  occ. eigenvalues --   -0.37484  -0.36498
 Alpha virt. eigenvalues --    0.04872   0.11157   0.16375   0.21275   0.24029
 Alpha virt. eigenvalues --    0.25614   0.27212   0.27860   0.28080   0.28787
 Alpha virt. eigenvalues --    0.29261   0.30842   0.32262   0.32593   0.32905

 Mulliken charges:
               1
     1  C   -0.170500
     2  C   -0.218547
     3  C   -0.170545
     4  C    0.157643
     5  C   -0.170489
     6  C   -0.218604
     7  H    0.226175
     8  H    0.224037
     9  H    0.275697
    10  H    0.275933
    11  H    0.223974
    12  N    0.493342
    13  O   -0.459239
    14  O   -0.463546
    15  C   -0.297521
    16  C   -0.298534
    17  C   -0.474951
    18  H    0.152500
    19  H    0.148278
    20  H    0.149881
    21  H    0.149554
    22  H    0.154204
    23  H    0.154917
    24  H    0.156916
    25  C   -0.298218
    26  C   -0.297388
    27  C   -0.479003
    28  H    0.145111
    29  H    0.143960
    30  H    0.169135
    31  H    0.148790
    32  H    0.144124
    33  H    0.146780
    34  H    0.176130
 Sum of Mulliken charges =  -0.00000

 Dipole moment (field-independent basis, Debye):
    X=             -5.6453    Y=             -0.1101    Z=              0.6244  Tot=              5.6808
 Quadrupole moment (field-independent basis, Debye-Ang):
   XX=            -64.8114   YY=            -90.9981   ZZ=            -95.1997
   XY=              1.5268   XZ=             -2.1148   YZ=             -1.3333

 Normal termination of Gaussian 16 at Thu May  6 01:24:56 2021.
