 Gaussian 16, Revision A.03,
 Gaussian 16:  EM64L-G16RevA.03 25-Dec-2016

 -------------
 #p 6-31g* mp2
 -------------

 ------------------------------------------------------
 Input file generated by CHIRIPA (05-May-2021 14:55:24)
 ------------------------------------------------------
 Symbolic Z-matrix:
 Charge =  0 Multiplicity = 1

                         Standard orientation:
 ---------------------------------------------------------------------
 Center     Atomic      Atomic             Coordinates (Angstroms)
 Number     Number       Type             X           Y           Z
 ---------------------------------------------------------------------
      1          6           0       -2.293702    2.312202    0.432956
      2          6           0       -1.357367    1.725213   -0.424505
      3          6           0       -1.414601    0.357615   -0.709016
      4          6           0       -2.426004   -0.396553   -0.116070
      5          6           0       -3.373432    0.159115    0.742361
      6          6           0       -3.296977    1.528661    1.012631
      7          1           0       -2.241776    3.375342    0.648440
      8          1           0       -0.577117    2.331271   -0.876113
      9          1           0       -0.702546   -0.122546   -1.369198
     10          1           0       -4.139709   -0.470854    1.177536
     11          1           0       -4.025492    1.981827    1.678929
     12          7           0       -2.496769   -1.845399   -0.409731
     13          8           0       -3.397538   -2.488023    0.125328
     14          8           0       -1.650126   -2.310947   -1.169400
     15          6           0        3.028472    0.809833   -0.371713
     16          6           0        2.341981    2.003306    0.293371
     17          6           0        2.225607    3.211721   -0.636137
     18          1           0        4.029200    1.112079   -0.709552
     19          1           0        2.466352    0.527742   -1.272735
     20          1           0        2.904450    2.282188    1.193632
     21          1           0        1.342844    1.698131    0.629837
     22          1           0        1.646098    2.956395   -1.529211
     23          1           0        3.216576    3.543771   -0.962211
     24          1           0        1.731865    4.053391   -0.140487
     25          6           0        3.152242   -0.405954    0.544951
     26          6           0        3.838732   -1.599427   -0.120133
     27          6           0        3.955107   -2.807841    0.809375
     28          1           0        3.714362   -0.123862    1.445973
     29          1           0        2.151513   -0.708200    0.882790
     30          1           0        4.837869   -1.294251   -0.456599
     31          1           0        3.276264   -1.878309   -1.020394
     32          1           0        2.964138   -3.139892    1.135450
     33          1           0        4.534616   -2.552515    1.702448
     34          1           0        4.448849   -3.649511    0.313725
 ---------------------------------------------------------------------

 SCF Done:  E(RHF) =  -669.534808442     A.U. after   15 cycles
 E2 =    -0.2093291066D+01 EUMP2 =    -0.67162809950801D+03

 The electronic state is 1-A.
 Alpha  occ. eigenvalues --  -20.60815 -20.60809 -15.85867 -11.31235 -11.27793
 Alpha  occ. eigenvalues --  -11.27789 -11.27517 -11.26811 -11.26737 -11.22207
 Alpha  occ. eigenvalues --  -11.22076 -11.21862 -11.21606 -11.21543 -11.20918
 Alpha  occ. eigenvalues --   -1.59890  -1.39443  -1.19404  -1.08833  -1.08761
 Alpha  occ. eigenvalues --   -1.04815  -1.03898  -0.96381  -0.95629  -0.87391
 Alpha  occ. eigenvalues --   -0.86197  -0.82466  -0.79987  -0.78531  -0.77521
 Alpha  occ. eigenvalues --   -0.72084  -0.71213  -0.70502  -0.65610  -0.65043
 Alpha  occ. eigenvalues --   -0.64756  -0.62277  -0.61121  -0.59796  -0.57942
 Alpha  occ. eigenvalues --   -0.55741  -0.55257  -0.53157  -0.53063  -0.52868
 Alpha  occ. eigenvalues --   -0.52722  -0.50319  -0.48841  -0.48839  -0.48275
 Alpha  occ. eigenvalues --   -0.47038  -0.46080  -0.45967  -0.44848  -0.44133
 Alpha  occ. eigenvalues --   -0.37370  -0.36355
 Alpha virt. eigenvalues --    0.04999   0.11176   0.16402   0.19399   0.23014
 Alpha virt. eigenvalues --    0.23989   0.25485   0.26579   0.27072   0.28698
 Alpha virt. eigenvalues --    0.29723   0.30288   0.31115   0.31933   0.32267

 Mulliken charges:
               1
     1  C   -0.174501
     2  C   -0.222654
     3  C   -0.175527
     4  C    0.158962
     5  C   -0.171030
     6  C   -0.218205
     7  H    0.226458
     8  H    0.237169
     9  H    0.276085
    10  H    0.275712
    11  H    0.223649
    12  N    0.488066
    13  O   -0.460149
    14  O   -0.460751
    15  C   -0.297807
    16  C   -0.309139
    17  C   -0.482001
    18  H    0.151930
    19  H    0.144971
    20  H    0.155847
    21  H    0.156292
    22  H    0.147163
    23  H    0.163815
    24  H    0.157801
    25  C   -0.299446
    26  C   -0.300340
    27  C   -0.476535
    28  H    0.149816
    29  H    0.152652
    30  H    0.150772
    31  H    0.155668
    32  H    0.159987
    33  H    0.153466
    34  H    0.161805
 Sum of Mulliken charges =  -0.00000

 Dipole moment (field-independent basis, Debye):
    X=              0.3166    Y=              5.0305    Z=              1.0950  Tot=              5.1581
 Quadrupole moment (field-independent basis, Debye-Ang):
   XX=            -91.8244   YY=           -100.1005   ZZ=            -94.0632
   XY=            -11.8957   XZ=             -5.1135   YZ=             -0.5453

 Normal termination of Gaussian 16 at Thu May  6 01:34:32 2021.
