 Gaussian 16, Revision A.03,
 Gaussian 16:  EM64L-G16RevA.03 25-Dec-2016

 -------------
 #p 6-31g* mp2
 -------------

 ------------------------------------------------------
 Input file generated by CHIRIPA (05-May-2021 14:55:24)
 ------------------------------------------------------
 Symbolic Z-matrix:
 Charge =  0 Multiplicity = 1

                         Standard orientation:
 ---------------------------------------------------------------------
 Center     Atomic      Atomic             Coordinates (Angstroms)
 Number     Number       Type             X           Y           Z
 ---------------------------------------------------------------------
      1          6           0        1.119121   -1.972104   -0.238224
      2          6           0        2.420273   -2.485408   -0.231513
      3          6           0        3.519957   -1.631033   -0.107879
      4          6           0        3.280885   -0.262527    0.007567
      5          6           0        1.996479    0.279302    0.004159
      6          6           0        0.911742   -0.593817   -0.120574
      7          1           0        0.270666   -2.643083   -0.334692
      8          1           0        2.584327   -3.555367   -0.322717
      9          1           0        4.537821   -2.001581   -0.099791
     10          1           0        1.864571    1.350486    0.096803
     11          1           0       -0.097642   -0.192366   -0.125482
     12          7           0        4.437159    0.651883    0.139034
     13          8           0        4.199832    1.853658    0.239285
     14          8           0        5.558880    0.149509    0.139339
     15          6           0       -4.617144    0.193640   -0.164635
     16          6           0       -4.790731   -1.188605    0.465645
     17          6           0       -6.119018   -1.846624    0.090864
     18          1           0       -5.449036    0.839389    0.148271
     19          1           0       -4.686540    0.101991   -1.257420
     20          1           0       -4.719647   -1.094580    1.556847
     21          1           0       -3.958227   -1.831082    0.151356
     22          1           0       -6.195389   -1.969512   -0.994340
     23          1           0       -6.961135   -1.228825    0.419137
     24          1           0       -6.222299   -2.833734    0.552173
     25          6           0       -3.294068    0.864237    0.200732
     26          6           0       -3.120481    2.246482   -0.429547
     27          6           0       -1.792195    2.904501   -0.054767
     28          1           0       -3.224672    0.955886    1.293518
     29          1           0       -2.462176    0.218488   -0.112174
     30          1           0       -3.952984    2.888959   -0.115259
     31          1           0       -3.191564    2.152457   -1.520749
     32          1           0       -0.950077    2.286703   -0.383040
     33          1           0       -1.715822    3.027389    1.030438
     34          1           0       -1.688913    3.891611   -0.516076
 ---------------------------------------------------------------------

 SCF Done:  E(RHF) =  -669.535285892     A.U. after   15 cycles
 E2 =    -0.2091834544D+01 EUMP2 =    -0.67162712043543D+03

 The electronic state is 1-A.
 Alpha  occ. eigenvalues --  -20.60708 -20.60702 -15.85760 -11.31121 -11.27693
 Alpha  occ. eigenvalues --  -11.27673 -11.27433 -11.26712 -11.26658 -11.22463
 Alpha  occ. eigenvalues --  -11.22405 -11.22399 -11.22193 -11.21967 -11.21721
 Alpha  occ. eigenvalues --   -1.59783  -1.39336  -1.19292  -1.09311  -1.08690
 Alpha  occ. eigenvalues --   -1.04697  -1.04347  -0.96802  -0.95525  -0.87815
 Alpha  occ. eigenvalues --   -0.86097  -0.82363  -0.80413  -0.79150  -0.77402
 Alpha  occ. eigenvalues --   -0.71979  -0.71106  -0.70406  -0.65986  -0.64946
 Alpha  occ. eigenvalues --   -0.64689  -0.62140  -0.61653  -0.60154  -0.58413
 Alpha  occ. eigenvalues --   -0.56104  -0.55203  -0.53458  -0.53243  -0.53025
 Alpha  occ. eigenvalues --   -0.52798  -0.50752  -0.48778  -0.48734  -0.48685
 Alpha  occ. eigenvalues --   -0.47438  -0.46662  -0.46572  -0.44743  -0.44615
 Alpha  occ. eigenvalues --   -0.37277  -0.36296
 Alpha virt. eigenvalues --    0.05126   0.11355   0.16606   0.18868   0.22509
 Alpha virt. eigenvalues --    0.23431   0.25039   0.25474   0.26391   0.28410
 Alpha virt. eigenvalues --    0.29426   0.29857   0.31088   0.31223   0.31386

 Mulliken charges:
               1
     1  C   -0.173599
     2  C   -0.218581
     3  C   -0.171250
     4  C    0.159444
     5  C   -0.175512
     6  C   -0.229220
     7  H    0.225186
     8  H    0.223126
     9  H    0.275350
    10  H    0.277387
    11  H    0.238662
    12  N    0.488028
    13  O   -0.460261
    14  O   -0.460846
    15  C   -0.298216
    16  C   -0.299089
    17  C   -0.476218
    18  H    0.153651
    19  H    0.151104
    20  H    0.153836
    21  H    0.146117
    22  H    0.156075
    23  H    0.157567
    24  H    0.161534
    25  C   -0.303567
    26  C   -0.300801
    27  C   -0.478891
    28  H    0.153084
    29  H    0.141186
    30  H    0.156826
    31  H    0.154280
    32  H    0.146758
    33  H    0.159055
    34  H    0.167797
 Sum of Mulliken charges =  -0.00000

 Dipole moment (field-independent basis, Debye):
    X=             -4.3438    Y=             -3.0976    Z=             -0.4395  Tot=              5.3532
 Quadrupole moment (field-independent basis, Debye-Ang):
   XX=           -119.5115   YY=            -89.9112   ZZ=            -94.9868
   XY=            -13.4453   XZ=             -2.2999   YZ=              0.5577

 Normal termination of Gaussian 16 at Wed May  5 22:24:40 2021.
