 Gaussian 16, Revision A.03,
 Gaussian 16:  EM64L-G16RevA.03 25-Dec-2016

 -------------
 #p 6-31g* mp2
 -------------

 ------------------------------------------------------
 Input file generated by CHIRIPA (05-May-2021 14:55:19)
 ------------------------------------------------------
 Symbolic Z-matrix:
 Charge =  0 Multiplicity = 1

                         Standard orientation:
 ---------------------------------------------------------------------
 Center     Atomic      Atomic             Coordinates (Angstroms)
 Number     Number       Type             X           Y           Z
 ---------------------------------------------------------------------
      1          6           0        0.631105   -0.097169    2.290867
      2          6           0        1.622561    0.873364    2.113096
      3          6           0        2.492990    0.807428    1.021055
      4          6           0        2.342956   -0.247453    0.122164
      5          6           0        1.365145   -1.229664    0.271963
      6          6           0        0.505783   -1.143740    1.371354
      7          1           0       -0.040767   -0.038184    3.142046
      8          1           0        1.722216    1.687270    2.825607
      9          1           0        3.269367    1.545331    0.859325
     10          1           0        1.290336   -2.029158   -0.455107
     11          1           0       -0.263270   -1.898879    1.506887
     12          7           0        3.258582   -0.327837   -1.037822
     13          8           0        3.105690   -1.267191   -1.815558
     14          8           0        4.111805    0.550035   -1.147317
     15          6           0       -2.928919    1.028594   -0.208435
     16          6           0       -1.977949    2.007107   -0.898474
     17          6           0       -2.236673    3.461212   -0.502958
     18          1           0       -3.964916    1.298407   -0.455127
     19          1           0       -2.828559    1.136802    0.880424
     20          1           0       -2.079070    1.896112   -1.985704
     21          1           0       -0.944088    1.734817   -0.650265
     22          1           0       -2.116244    3.593943    0.577080
     23          1           0       -3.257675    3.756156   -0.765948
     24          1           0       -1.545738    4.143593   -1.007760
     25          6           0       -2.682727   -0.429029   -0.593725
     26          6           0       -3.633698   -1.407541    0.096314
     27          6           0       -3.374973   -2.861647   -0.299202
     28          1           0       -2.783088   -0.537237   -1.682583
     29          1           0       -1.646730   -0.698843   -0.347032
     30          1           0       -4.667558   -1.135252   -0.151896
     31          1           0       -3.532576   -1.296547    1.183544
     32          1           0       -2.353972   -3.156590   -0.036212
     33          1           0       -3.495402   -2.994379   -1.379239
     34          1           0       -4.065909   -3.544027    0.205601
 ---------------------------------------------------------------------

 SCF Done:  E(RHF) =  -669.534918643     A.U. after   15 cycles
 E2 =    -0.2094012284D+01 EUMP2 =    -0.67162893092680D+03

 The electronic state is 1-A.
 Alpha  occ. eigenvalues --  -20.60844 -20.60839 -15.85900 -11.31320 -11.27883
 Alpha  occ. eigenvalues --  -11.27878 -11.27634 -11.26917 -11.26903 -11.22213
 Alpha  occ. eigenvalues --  -11.21814 -11.21784 -11.21753 -11.21687 -11.21323
 Alpha  occ. eigenvalues --   -1.59918  -1.39470  -1.19502  -1.08914  -1.08812
 Alpha  occ. eigenvalues --   -1.04915  -1.03967  -0.96416  -0.95704  -0.87437
 Alpha  occ. eigenvalues --   -0.86299  -0.82544  -0.80024  -0.78643  -0.77572
 Alpha  occ. eigenvalues --   -0.72116  -0.71242  -0.70588  -0.65603  -0.65147
 Alpha  occ. eigenvalues --   -0.64836  -0.62269  -0.61344  -0.59784  -0.58017
 Alpha  occ. eigenvalues --   -0.55754  -0.55394  -0.53297  -0.53084  -0.52990
 Alpha  occ. eigenvalues --   -0.52826  -0.50390  -0.48881  -0.48868  -0.48342
 Alpha  occ. eigenvalues --   -0.47078  -0.46169  -0.46078  -0.44862  -0.44192
 Alpha  occ. eigenvalues --   -0.37464  -0.36416
 Alpha virt. eigenvalues --    0.04933   0.11090   0.16305   0.19300   0.22987
 Alpha virt. eigenvalues --    0.23451   0.25771   0.26304   0.27518   0.28424
 Alpha virt. eigenvalues --    0.28613   0.30094   0.31223   0.31464   0.32104

 Mulliken charges:
               1
     1  C   -0.171988
     2  C   -0.218442
     3  C   -0.171246
     4  C    0.159056
     5  C   -0.170702
     6  C   -0.221247
     7  H    0.226498
     8  H    0.224317
     9  H    0.276330
    10  H    0.276795
    11  H    0.228919
    12  N    0.488115
    13  O   -0.459694
    14  O   -0.460049
    15  C   -0.295887
    16  C   -0.302077
    17  C   -0.475513
    18  H    0.150464
    19  H    0.143230
    20  H    0.154457
    21  H    0.155724
    22  H    0.151344
    23  H    0.155643
    24  H    0.162332
    25  C   -0.306511
    26  C   -0.300458
    27  C   -0.475242
    28  H    0.152522
    29  H    0.154227
    30  H    0.155597
    31  H    0.144920
    32  H    0.145376
    33  H    0.160731
    34  H    0.162458
 Sum of Mulliken charges =  -0.00000

 Dipole moment (field-independent basis, Debye):
    X=             -3.1624    Y=              0.3103    Z=              4.0188  Tot=              5.1233
 Quadrupole moment (field-independent basis, Debye-Ang):
   XX=           -108.9076   YY=            -92.9265   ZZ=            -93.2109
   XY=              3.7923   XZ=             10.8879   YZ=              0.2671

 Normal termination of Gaussian 16 at Thu May  6 09:15:02 2021.
