 Gaussian 16, Revision A.03,
 Gaussian 16:  EM64L-G16RevA.03 25-Dec-2016

 -------------
 #p 6-31g* mp2
 -------------

 ------------------------------------------------------
 Input file generated by CHIRIPA (05-May-2021 14:53:15)
 ------------------------------------------------------
 Symbolic Z-matrix:
 Charge =  0 Multiplicity = 1

                         Standard orientation:
 ---------------------------------------------------------------------
 Center     Atomic      Atomic             Coordinates (Angstroms)
 Number     Number       Type             X           Y           Z
 ---------------------------------------------------------------------
      1          6           0        3.801296    0.491931   -0.010795
      2          6           0        2.445998   -0.080573   -0.427201
      3          6           0        1.293394    0.895174   -0.188000
      4          1           0        3.765461    0.765718    1.052549
      5          1           0        3.985283    1.421603   -0.566899
      6          1           0        2.265245   -1.009621    0.128509
      7          1           0        2.485124   -0.353206   -1.489630
      8          1           0        1.446859    1.819097   -0.754935
      9          1           0        1.225730    1.158953    0.872398
     10          1           0        0.333954    0.465602   -0.492633
     11          6           0        4.963469   -0.471802   -0.243822
     12          6           0        6.318766    0.100701    0.172583
     13          6           0        7.471370   -0.875046   -0.066617
     14          1           0        4.779482   -1.401475    0.312282
     15          1           0        4.999303   -0.745590   -1.307167
     16          1           0        6.279640    0.373335    1.235013
     17          1           0        6.499520    1.029749   -0.383126
     18          1           0        7.539035   -1.138825   -1.127015
     19          1           0        7.317906   -1.798969    0.500318
     20          1           0        8.430811   -0.445474    0.238016
     21          6           0       -2.659122    2.391542    0.254849
     22          6           0       -2.072507    1.415893    1.067570
     23          6           0       -2.488254    0.083347    0.989951
     24          6           0       -3.497656   -0.239828    0.084437
     25          6           0       -4.101580    0.709412   -0.738673
     26          6           0       -3.670004    2.035815   -0.644093
     27          1           0       -2.330011    3.424310    0.321734
     28          1           0       -1.287237    1.689266    1.766614
     29          1           0       -2.051293   -0.692107    1.607329
     30          1           0       -4.882198    0.406451   -1.425890
     31          1           0       -4.127376    2.791406   -1.276499
     32          7           0       -3.946167   -1.647283   -0.006712
     33          8           0       -4.837292   -1.906293   -0.812596
     34          8           0       -3.398095   -2.464786    0.729455
 ---------------------------------------------------------------------

 SCF Done:  E(RHF) =  -669.534955786     A.U. after   15 cycles
 E2 =    -0.2091858299D+01 EUMP2 =    -0.67162681408527D+03

 The electronic state is 1-A.
 Alpha  occ. eigenvalues --  -20.60765 -20.60760 -15.85818 -11.31188 -11.27727
 Alpha  occ. eigenvalues --  -11.27720 -11.27458 -11.26762 -11.26730 -11.21907
 Alpha  occ. eigenvalues --  -11.21789 -11.21681 -11.21570 -11.21531 -11.21208
 Alpha  occ. eigenvalues --   -1.59841  -1.39394  -1.19351  -1.08746  -1.08687
 Alpha  occ. eigenvalues --   -1.04756  -1.03803  -0.96271  -0.95577  -0.87302
 Alpha  occ. eigenvalues --   -0.86137  -0.82410  -0.79875  -0.78495  -0.77457
 Alpha  occ. eigenvalues --   -0.72035  -0.71165  -0.70444  -0.65328  -0.64997
 Alpha  occ. eigenvalues --   -0.64750  -0.62112  -0.61199  -0.59644  -0.57874
 Alpha  occ. eigenvalues --   -0.55589  -0.55231  -0.53445  -0.52912  -0.52645
 Alpha  occ. eigenvalues --   -0.52559  -0.50218  -0.48795  -0.48791  -0.48185
 Alpha  occ. eigenvalues --   -0.46903  -0.46042  -0.45958  -0.44799  -0.44056
 Alpha  occ. eigenvalues --   -0.37318  -0.36279
 Alpha virt. eigenvalues --    0.05063   0.11257   0.16552   0.20863   0.22672
 Alpha virt. eigenvalues --    0.24024   0.25786   0.26621   0.27354   0.28327
 Alpha virt. eigenvalues --    0.28561   0.29879   0.31355   0.31767   0.32056

 Mulliken charges:
               1
     1  C   -0.298323
     2  C   -0.300131
     3  C   -0.479236
     4  H    0.147855
     5  H    0.148836
     6  H    0.153957
     7  H    0.154562
     8  H    0.153506
     9  H    0.144337
    10  H    0.168798
    11  C   -0.298611
    12  C   -0.299711
    13  C   -0.475879
    14  H    0.150823
    15  H    0.150725
    16  H    0.151475
    17  H    0.151553
    18  H    0.155752
    19  H    0.155957
    20  H    0.160484
    21  C   -0.172094
    22  C   -0.212465
    23  C   -0.173779
    24  C    0.158611
    25  C   -0.171683
    26  C   -0.218236
    27  H    0.225823
    28  H    0.225427
    29  H    0.275601
    30  H    0.275432
    31  H    0.223383
    32  N    0.488100
    33  O   -0.460373
    34  O   -0.460478
 Sum of Mulliken charges =  -0.00000

 Dipole moment (field-independent basis, Debye):
    X=              1.6039    Y=              4.9431    Z=              0.2841  Tot=              5.2046
 Quadrupole moment (field-independent basis, Debye-Ang):
   XX=           -104.9036   YY=            -97.6532   ZZ=            -91.7542
   XY=            -18.4781   XZ=              1.5853   YZ=             -1.1452

 Normal termination of Gaussian 16 at Wed May  5 15:39:54 2021.
