 Gaussian 16, Revision A.03,
 Gaussian 16:  EM64L-G16RevA.03 25-Dec-2016

 -------------
 #p 6-31g* mp2
 -------------

 ------------------------------------------------------
 Input file generated by CHIRIPA (05-May-2021 14:51:12)
 ------------------------------------------------------
 Symbolic Z-matrix:
 Charge =  0 Multiplicity = 1

                         Standard orientation:
 ---------------------------------------------------------------------
 Center     Atomic      Atomic             Coordinates (Angstroms)
 Number     Number       Type             X           Y           Z
 ---------------------------------------------------------------------
      1          6           0        4.024019    0.541157   -0.159469
      2          6           0        3.564675    1.960629    0.175326
      3          6           0        4.731455    2.912017    0.442306
      4          1           0        4.632142    0.154248    0.669647
      5          1           0        4.680576    0.573800   -1.039959
      6          1           0        2.908069    1.925154    1.054090
      7          1           0        2.957415    2.344132   -0.654601
      8          1           0        5.383852    2.977079   -0.434475
      9          1           0        5.334226    2.555720    1.283924
     10          1           0        4.380416    3.921136    0.679608
     11          6           0        2.868971   -0.421647   -0.428910
     12          6           0        3.328315   -1.841119   -0.763705
     13          6           0        2.161535   -2.792508   -1.030686
     14          1           0        2.212414   -0.454291    0.451580
     15          1           0        2.260848   -0.034739   -1.258026
     16          1           0        3.935575   -2.224622    0.066221
     17          1           0        3.984921   -1.805644   -1.642469
     18          1           0        1.558764   -2.436211   -1.872303
     19          1           0        1.509137   -2.857569   -0.153905
     20          1           0        2.512574   -3.801626   -1.267988
     21          6           0       -3.874495    0.570652    0.240933
     22          6           0       -4.924556    0.498734   -0.868203
     23          6           0       -5.772899    1.767301   -0.962257
     24          1           0       -4.376678    0.749692    1.201507
     25          1           0       -3.222128    1.436778    0.063065
     26          1           0       -5.573891   -0.367803   -0.689053
     27          1           0       -4.419830    0.319653   -1.826220
     28          1           0       -5.141766    2.638675   -1.164694
     29          1           0       -6.302384    1.947314   -0.021065
     30          1           0       -6.516999    1.694311   -1.761536
     31          6           0       -3.018495   -0.690161    0.347446
     32          6           0       -1.968434   -0.618244    1.456582
     33          6           0       -1.120091   -1.886811    1.550636
     34          1           0       -3.670861   -1.556289    0.525314
     35          1           0       -2.516311   -0.869201   -0.613127
     36          1           0       -2.473160   -0.439163    2.414601
     37          1           0       -1.319099    0.248293    1.277434
     38          1           0       -0.590606   -2.066823    0.609445
     39          1           0       -1.751223   -2.758186    1.753073
     40          1           0       -0.375990   -1.813821    2.349916
 ---------------------------------------------------------------------

 SCF Done:  E(RHF) =  -470.733252199     A.U. after   11 cycles
 E2 =    -0.1582672096D+01 EUMP2 =    -0.47231592429507D+03

 The electronic state is 1-A.
 Alpha  occ. eigenvalues --  -11.21616 -11.21597 -11.21593 -11.21591 -11.21412
 Alpha  occ. eigenvalues --  -11.21392 -11.21352 -11.21332 -11.21082 -11.21065
 Alpha  occ. eigenvalues --  -11.21048 -11.21037  -1.08439  -1.08415  -1.03550
 Alpha  occ. eigenvalues --   -1.03505  -0.96009  -0.95949  -0.87044  -0.86952
 Alpha  occ. eigenvalues --   -0.79654  -0.79533  -0.78259  -0.78220  -0.65102
 Alpha  occ. eigenvalues --   -0.65016  -0.61033  -0.60832  -0.59353  -0.59338
 Alpha  occ. eigenvalues --   -0.57678  -0.57517  -0.55399  -0.55148  -0.52684
 Alpha  occ. eigenvalues --   -0.52673  -0.52539  -0.52272  -0.50078  -0.49776
 Alpha  occ. eigenvalues --   -0.48027  -0.47783  -0.46731  -0.46489  -0.45844
 Alpha  occ. eigenvalues --   -0.45747  -0.45706  -0.45607  -0.43789  -0.43775
 Alpha virt. eigenvalues --    0.21480   0.23162   0.23557   0.24777   0.26179
 Alpha virt. eigenvalues --    0.26650   0.26858   0.27385   0.28097   0.29139
 Alpha virt. eigenvalues --    0.30791   0.31480   0.31641   0.31780   0.32297

 Mulliken charges:
               1
     1  C   -0.298246
     2  C   -0.299656
     3  C   -0.475699
     4  H    0.149755
     5  H    0.149598
     6  H    0.151878
     7  H    0.151687
     8  H    0.155215
     9  H    0.155262
    10  H    0.160251
    11  C   -0.299938
    12  C   -0.299206
    13  C   -0.482180
    14  H    0.151464
    15  H    0.148904
    16  H    0.151989
    17  H    0.151799
    18  H    0.153979
    19  H    0.162844
    20  H    0.160421
    21  C   -0.298358
    22  C   -0.299643
    23  C   -0.475700
    24  H    0.149582
    25  H    0.149626
    26  H    0.151931
    27  H    0.151916
    28  H    0.155164
    29  H    0.155164
    30  H    0.160219
    31  C   -0.298516
    32  C   -0.299657
    33  C   -0.482364
    34  H    0.149499
    35  H    0.150121
    36  H    0.151717
    37  H    0.152396
    38  H    0.162622
    39  H    0.155264
    40  H    0.158898
 Sum of Mulliken charges =  -0.00000

 Dipole moment (field-independent basis, Debye):
    X=              0.0009    Y=             -0.0110    Z=              0.0013  Tot=              0.0111
 Quadrupole moment (field-independent basis, Debye-Ang):
   XX=            -85.3816   YY=            -85.9316   ZZ=            -83.4944
   XY=              0.2772   XZ=             -0.7236   YZ=             -0.5422

 Normal termination of Gaussian 16 at Thu May  6 02:18:25 2021.
