 Gaussian 16, Revision A.03,
 Gaussian 16:  EM64L-G16RevA.03 25-Dec-2016

 -------------
 #p 6-31g* mp2
 -------------

 ------------------------------------------------------
 Input file generated by CHIRIPA (05-May-2021 14:55:19)
 ------------------------------------------------------
 Symbolic Z-matrix:
 Charge =  0 Multiplicity = 1

                         Standard orientation:
 ---------------------------------------------------------------------
 Center     Atomic      Atomic             Coordinates (Angstroms)
 Number     Number       Type             X           Y           Z
 ---------------------------------------------------------------------
      1          6           0        2.801856    2.765964    0.393241
      2          6           0        1.740811    1.987818    0.867788
      3          6           0        1.729112    0.604451    0.666032
      4          6           0        2.799498    0.029610   -0.017430
      5          6           0        3.871025    0.777950   -0.502310
      6          6           0        3.861708    2.159615   -0.289090
      7          1           0        2.802781    3.839936    0.554422
      8          1           0        0.916381    2.456009    1.398032
      9          1           0        0.920376   -0.021739    1.022754
     10          1           0        4.678794    0.282700   -1.027337
     11          1           0        4.687059    2.761441   -0.658746
     12          7           0        2.798237   -1.433998   -0.237088
     13          8           0        3.753122   -1.916343   -0.842213
     14          8           0        1.842388   -2.071116    0.200028
     15          6           0       -3.473499   -1.097195    0.065447
     16          6           0       -2.005514   -1.474977    0.266161
     17          6           0       -1.801320   -2.979825    0.443731
     18          1           0       -4.057110   -1.448680    0.927306
     19          1           0       -3.864417   -1.627494   -0.813963
     20          1           0       -1.617096   -0.943054    1.144116
     21          1           0       -1.425299   -1.122383   -0.596187
     22          1           0       -2.162386   -3.523924   -0.435012
     23          1           0       -2.355273   -3.343577    1.315179
     24          1           0       -0.744766   -3.227612    0.585705
     25          6           0       -3.693749    0.403869   -0.113503
     26          6           0       -5.161733    0.781652   -0.314216
     27          6           0       -5.365928    2.286499   -0.491787
     28          1           0       -3.302831    0.934169    0.765906
     29          1           0       -3.110138    0.755355   -0.975363
     30          1           0       -5.741949    0.429057    0.548132
     31          1           0       -5.550151    0.249728   -1.192172
     32          1           0       -4.811975    2.650251   -1.363235
     33          1           0       -5.004861    2.830598    0.386956
     34          1           0       -6.422481    2.534286   -0.633762
 ---------------------------------------------------------------------

 SCF Done:  E(RHF) =  -669.536137970     A.U. after   15 cycles
 E2 =    -0.2091795776D+01 EUMP2 =    -0.67162793374614D+03

 The electronic state is 1-A.
 Alpha  occ. eigenvalues --  -20.60873 -20.60864 -15.85914 -11.31204 -11.27779
 Alpha  occ. eigenvalues --  -11.27737 -11.27515 -11.26783 -11.26762 -11.21662
 Alpha  occ. eigenvalues --  -11.21439 -11.21324 -11.21210 -11.21198 -11.20191
 Alpha  occ. eigenvalues --   -1.59936  -1.39492  -1.19377  -1.08788  -1.08332
 Alpha  occ. eigenvalues --   -1.04769  -1.03325  -0.95756  -0.95615  -0.86757
 Alpha  occ. eigenvalues --   -0.86171  -0.82469  -0.79434  -0.78172  -0.77508
 Alpha  occ. eigenvalues --   -0.72149  -0.71251  -0.70487  -0.65037  -0.64971
 Alpha  occ. eigenvalues --   -0.64773  -0.62122  -0.60735  -0.59125  -0.57318
 Alpha  occ. eigenvalues --   -0.55280  -0.55050  -0.53106  -0.52865  -0.52369
 Alpha  occ. eigenvalues --   -0.52150  -0.49710  -0.48895  -0.48881  -0.47706
 Alpha  occ. eigenvalues --   -0.46497  -0.45685  -0.45620  -0.44898  -0.43560
 Alpha  occ. eigenvalues --   -0.37362  -0.36367
 Alpha virt. eigenvalues --    0.04993   0.11264   0.16496   0.20733   0.22973
 Alpha virt. eigenvalues --    0.24116   0.25817   0.26911   0.27592   0.28239
 Alpha virt. eigenvalues --    0.29119   0.30517   0.31485   0.31658   0.32329

 Mulliken charges:
               1
     1  C   -0.170403
     2  C   -0.220510
     3  C   -0.174662
     4  C    0.155936
     5  C   -0.170313
     6  C   -0.219002
     7  H    0.225709
     8  H    0.223980
     9  H    0.284710
    10  H    0.275482
    11  H    0.223438
    12  N    0.494149
    13  O   -0.459330
    14  O   -0.467450
    15  C   -0.297510
    16  C   -0.298764
    17  C   -0.485170
    18  H    0.149389
    19  H    0.151255
    20  H    0.139926
    21  H    0.153993
    22  H    0.153346
    23  H    0.149339
    24  H    0.188808
    25  C   -0.297482
    26  C   -0.299320
    27  C   -0.475499
    28  H    0.143278
    29  H    0.148746
    30  H    0.152406
    31  H    0.153373
    32  H    0.154548
    33  H    0.152769
    34  H    0.160835
 Sum of Mulliken charges =  -0.00000

 Dipole moment (field-independent basis, Debye):
    X=              0.1341    Y=              5.0213    Z=              0.7185  Tot=              5.0742
 Quadrupole moment (field-independent basis, Debye-Ang):
   XX=            -91.4823   YY=            -95.7970   ZZ=            -93.4120
   XY=             15.3369   XZ=             -0.2532   YZ=              0.0581

 Normal termination of Gaussian 16 at Thu May  6 20:39:17 2021.
