 Gaussian 16, Revision A.03,
 Gaussian 16:  EM64L-G16RevA.03 25-Dec-2016

 -------------
 #p 6-31g* mp2
 -------------

 ------------------------------------------------------
 Input file generated by CHIRIPA (05-May-2021 14:57:27)
 ------------------------------------------------------
 Symbolic Z-matrix:
 Charge =  0 Multiplicity = 1

                         Standard orientation:
 ---------------------------------------------------------------------
 Center     Atomic      Atomic             Coordinates (Angstroms)
 Number     Number       Type             X           Y           Z
 ---------------------------------------------------------------------
      1          6           0       -1.938523    2.129464    0.425486
      2          6           0       -2.901081    2.148838   -0.589220
      3          6           0       -3.748193    1.054074   -0.785284
      4          6           0       -3.604563   -0.048540    0.055491
      5          6           0       -2.655309   -0.097967    1.075179
      6          6           0       -1.818920    1.008100    1.252988
      7          1           0       -1.284630    2.984293    0.570702
      8          1           0       -2.996229    3.018351   -1.233378
      9          1           0       -4.501991    1.042492   -1.563148
     10          1           0       -2.584305   -0.978997    1.701408
     11          1           0       -1.072288    0.990268    2.041827
     12          7           0       -4.495687   -1.213501   -0.142410
     13          8           0       -4.349018   -2.172870    0.611736
     14          8           0       -5.323946   -1.145170   -1.047924
     15          6           0        3.074867    2.350164   -0.053341
     16          6           0        4.377383    1.842527   -0.101100
     17          6           0        4.601356    0.462672   -0.120740
     18          6           0        3.494705   -0.384533   -0.091469
     19          6           0        2.185040    0.090640   -0.043759
     20          6           0        1.984776    1.474145   -0.024874
     21          1           0        2.910089    3.423486   -0.038377
     22          1           0        5.225864    2.520487   -0.123292
     23          1           0        5.599185    0.042678   -0.157602
     24          1           0        1.359272   -0.610127   -0.022523
     25          1           0        0.972122    1.865553    0.012228
     26          7           0        3.719266   -1.847256   -0.111862
     27          8           0        2.727386   -2.572588   -0.085324
     28          8           0        4.882906   -2.240710   -0.153997
 ---------------------------------------------------------------------

 SCF Done:  E(RHF) =  -868.336603701     A.U. after   16 cycles
 E2 =    -0.2601147921D+01 EUMP2 =    -0.87093775162170D+03

 The electronic state is 1-A.
 Alpha  occ. eigenvalues --  -20.61180 -20.61169 -20.61085 -20.61079 -15.86238
 Alpha  occ. eigenvalues --  -15.86143 -11.31867 -11.31635 -11.28437 -11.28432
 Alpha  occ. eigenvalues --  -11.28357 -11.28230 -11.28210 -11.28035 -11.27588
 Alpha  occ. eigenvalues --  -11.27548 -11.27288 -11.27252  -1.60246  -1.60158
 Alpha  occ. eigenvalues --   -1.39791  -1.39708  -1.20078  -1.19830  -1.09461
 Alpha  occ. eigenvalues --   -1.09210  -1.05501  -1.05249  -0.96239  -0.96019
 Alpha  occ. eigenvalues --   -0.86907  -0.86650  -0.83046  -0.82845  -0.78029
 Alpha  occ. eigenvalues --   -0.77859  -0.72453  -0.72357  -0.71570  -0.71486
 Alpha  occ. eigenvalues --   -0.71257  -0.70953  -0.65757  -0.65557  -0.65479
 Alpha  occ. eigenvalues --   -0.65207  -0.62838  -0.62570  -0.56113  -0.55768
 Alpha  occ. eigenvalues --   -0.53888  -0.53616  -0.53542  -0.53268  -0.49233
 Alpha  occ. eigenvalues --   -0.49189  -0.49127  -0.49105  -0.45138  -0.45085
 Alpha  occ. eigenvalues --   -0.38113  -0.37837  -0.37111  -0.36843
 Alpha virt. eigenvalues --    0.04430   0.04668   0.10429   0.10785   0.15711
 Alpha virt. eigenvalues --    0.16103   0.19446   0.21859   0.25752   0.26460
 Alpha virt. eigenvalues --    0.27870   0.28680   0.30013   0.31142   0.31975

 Mulliken charges:
               1
     1  C   -0.178507
     2  C   -0.218043
     3  C   -0.169705
     4  C    0.160525
     5  C   -0.170476
     6  C   -0.223404
     7  H    0.220106
     8  H    0.225377
     9  H    0.278744
    10  H    0.281051
    11  H    0.226733
    12  N    0.487931
    13  O   -0.456214
    14  O   -0.458304
    15  C   -0.172365
    16  C   -0.218152
    17  C   -0.170312
    18  C    0.159613
    19  C   -0.174844
    20  C   -0.224381
    21  H    0.223340
    22  H    0.224652
    23  H    0.277307
    24  H    0.277487
    25  H    0.221552
    26  N    0.487893
    27  O   -0.458478
    28  O   -0.459130
 Sum of Mulliken charges =  -0.00000

 Dipole moment (field-independent basis, Debye):
    X=              2.1417    Y=              9.0291    Z=              0.7316  Tot=              9.3084
 Quadrupole moment (field-independent basis, Debye-Ang):
   XX=           -126.0792   YY=           -109.2616   ZZ=           -102.9767
   XY=              3.1341   XZ=             -0.2493   YZ=             -2.5731

 Normal termination of Gaussian 16 at Thu May  6 14:49:48 2021.
