 Gaussian 16, Revision A.03,
 Gaussian 16:  EM64L-G16RevA.03 25-Dec-2016

 -------------
 #p 6-31g* mp2
 -------------

 ------------------------------------------------------
 Input file generated by CHIRIPA (05-May-2021 14:57:26)
 ------------------------------------------------------
 Symbolic Z-matrix:
 Charge =  0 Multiplicity = 1

                         Standard orientation:
 ---------------------------------------------------------------------
 Center     Atomic      Atomic             Coordinates (Angstroms)
 Number     Number       Type             X           Y           Z
 ---------------------------------------------------------------------
      1          6           0        1.309314    2.117833   -0.397204
      2          6           0        2.193899    2.033735    0.683055
      3          6           0        3.026315    0.920716    0.834117
      4          6           0        2.947659   -0.094443   -0.118015
      5          6           0        2.076772   -0.039842   -1.205150
      6          6           0        1.253672    1.082602   -1.336203
      7          1           0        0.666292    2.986114   -0.506780
      8          1           0        2.239259    2.836205    1.413828
      9          1           0        3.720348    0.829854    1.660846
     10          1           0        2.054182   -0.855638   -1.917460
     11          1           0        0.567658    1.145214   -2.176149
     12          7           0        3.823970   -1.277735    0.031316
     13          8           0        3.735570   -2.158707   -0.821158
     14          8           0        4.582628   -1.301823    0.998008
     15          6           0       -2.144985    2.335043    0.123019
     16          6           0       -2.065288    1.597917    1.309111
     17          6           0       -2.427413    0.247767    1.331675
     18          6           0       -2.866870   -0.336044    0.144522
     19          6           0       -2.957255    0.371764   -1.053028
     20          6           0       -2.589931    1.720697   -1.052193
     21          1           0       -1.861658    3.383400    0.114579
     22          1           0       -1.720094    2.072411    2.223300
     23          1           0       -2.375402   -0.346369    2.235950
     24          1           0       -3.305116   -0.128791   -1.948491
     25          1           0       -2.652841    2.290698   -1.974791
     26          7           0       -3.252988   -1.764743    0.156024
     27          8           0       -3.636980   -2.255817   -0.903237
     28          8           0       -3.164325   -2.366431    1.224082
 ---------------------------------------------------------------------

 SCF Done:  E(RHF) =  -868.335154041     A.U. after   16 cycles
 E2 =    -0.2603120215D+01 EUMP2 =    -0.87093827425579D+03

 The electronic state is 1-A.
 Alpha  occ. eigenvalues --  -20.61253 -20.61239 -20.60883 -20.60869 -15.86311
 Alpha  occ. eigenvalues --  -15.85939 -11.31901 -11.31413 -11.28536 -11.28461
 Alpha  occ. eigenvalues --  -11.28384 -11.28044 -11.27989 -11.27872 -11.27638
 Alpha  occ. eigenvalues --  -11.27556 -11.27116 -11.27038  -1.60319  -1.59952
 Alpha  occ. eigenvalues --   -1.39867  -1.39503  -1.20117  -1.19622  -1.09515
 Alpha  occ. eigenvalues --   -1.09002  -1.05547  -1.05046  -0.96308  -0.95813
 Alpha  occ. eigenvalues --   -0.86955  -0.86449  -0.83123  -0.82646  -0.78087
 Alpha  occ. eigenvalues --   -0.77662  -0.72527  -0.72157  -0.71645  -0.71450
 Alpha  occ. eigenvalues --   -0.71277  -0.70679  -0.65780  -0.65574  -0.65288
 Alpha  occ. eigenvalues --   -0.65074  -0.62880  -0.62396  -0.56284  -0.55525
 Alpha  occ. eigenvalues --   -0.54117  -0.53651  -0.53184  -0.53058  -0.49303
 Alpha  occ. eigenvalues --   -0.49266  -0.48926  -0.48902  -0.45223  -0.44884
 Alpha  occ. eigenvalues --   -0.38561  -0.37315  -0.37031  -0.36577
 Alpha virt. eigenvalues --    0.04260   0.05027   0.10280   0.11133   0.15583
 Alpha virt. eigenvalues --    0.16537   0.19137   0.22001   0.25554   0.25944
 Alpha virt. eigenvalues --    0.27489   0.29416   0.29490   0.31628   0.32504

 Mulliken charges:
               1
     1  C   -0.162519
     2  C   -0.222122
     3  C   -0.170439
     4  C    0.158772
     5  C   -0.170624
     6  C   -0.214567
     7  H    0.213370
     8  H    0.219523
     9  H    0.276060
    10  H    0.278028
    11  H    0.220342
    12  N    0.488147
    13  O   -0.458022
    14  O   -0.460362
    15  C   -0.175780
    16  C   -0.212936
    17  C   -0.167921
    18  C    0.160764
    19  C   -0.171493
    20  C   -0.223398
    21  H    0.220309
    22  H    0.223685
    23  H    0.279356
    24  H    0.277402
    25  H    0.222071
    26  N    0.487928
    27  O   -0.459020
    28  O   -0.456556
 Sum of Mulliken charges =  -0.00000

 Dipole moment (field-independent basis, Debye):
    X=             -1.8366    Y=              8.8918    Z=             -0.4759  Tot=              9.0920
 Quadrupole moment (field-independent basis, Debye-Ang):
   XX=           -130.9666   YY=           -109.9950   ZZ=            -96.6384
   XY=             -1.4122   XZ=              1.9382   YZ=              2.0166

 Normal termination of Gaussian 16 at Fri May  7 00:30:01 2021.
