 Gaussian 16, Revision A.03,
 Gaussian 16:  EM64L-G16RevA.03 25-Dec-2016

 -------------
 #p 6-31g* mp2
 -------------

 ------------------------------------------------------
 Input file generated by CHIRIPA (05-May-2021 14:53:11)
 ------------------------------------------------------
 Symbolic Z-matrix:
 Charge =  0 Multiplicity = 1

                         Standard orientation:
 ---------------------------------------------------------------------
 Center     Atomic      Atomic             Coordinates (Angstroms)
 Number     Number       Type             X           Y           Z
 ---------------------------------------------------------------------
      1          6           0        3.972813    0.421302   -0.058756
      2          6           0        3.538576    1.595283    0.819418
      3          6           0        2.143263    2.112202    0.467723
      4          1           0        3.950016    0.731689   -1.112361
      5          1           0        3.242546   -0.393413    0.042954
      6          1           0        4.270182    2.407016    0.717148
      7          1           0        3.562594    1.282123    1.871069
      8          1           0        1.397335    1.319872    0.587752
      9          1           0        2.108943    2.451157   -0.572725
     10          1           0        1.852895    2.951280    1.107639
     11          6           0        5.365601   -0.106529    0.280753
     12          6           0        5.799837   -1.280511   -0.597422
     13          6           0        7.195151   -1.797429   -0.245726
     14          1           0        6.095868    0.708185    0.179043
     15          1           0        5.388398   -0.416917    1.334358
     16          1           0        5.775820   -0.967350   -1.649072
     17          1           0        5.068232   -2.092244   -0.495151
     18          1           0        7.229470   -2.136385    0.794722
     19          1           0        7.941079   -1.005100   -0.365755
     20          1           0        7.485519   -2.636508   -0.885642
     21          6           0       -2.467822    2.062992   -0.528481
     22          6           0       -3.856384    2.038291   -0.361740
     23          6           0       -4.520719    0.832854   -0.116527
     24          6           0       -3.761896   -0.334288   -0.044009
     25          6           0       -2.377315   -0.342210   -0.205761
     26          6           0       -1.734012    0.874757   -0.450098
     27          1           0       -1.959919    3.003882   -0.718628
     28          1           0       -4.428834    2.959543   -0.422097
     29          1           0       -5.594709    0.785027    0.016422
     30          1           0       -1.833675   -1.276859   -0.140159
     31          1           0       -0.655532    0.890932   -0.579187
     32          7           0       -4.454064   -1.616533    0.215122
     33          8           0       -3.762740   -2.631024    0.274422
     34          8           0       -5.674803   -1.582786    0.354025
 ---------------------------------------------------------------------

 SCF Done:  E(RHF) =  -669.535595071     A.U. after   15 cycles
 E2 =    -0.2090800566D+01 EUMP2 =    -0.67162639563671D+03

 The electronic state is 1-A.
 Alpha  occ. eigenvalues --  -20.60720 -20.60715 -15.85772 -11.31123 -11.27694
 Alpha  occ. eigenvalues --  -11.27682 -11.27417 -11.26705 -11.26645 -11.22378
 Alpha  occ. eigenvalues --  -11.22177 -11.22042 -11.21981 -11.21849 -11.21363
 Alpha  occ. eigenvalues --   -1.59796  -1.39350  -1.19292  -1.09024  -1.08686
 Alpha  occ. eigenvalues --   -1.04694  -1.04150  -0.96628  -0.95525  -0.87657
 Alpha  occ. eigenvalues --   -0.86087  -0.82360  -0.80232  -0.78805  -0.77410
 Alpha  occ. eigenvalues --   -0.71991  -0.71119  -0.70396  -0.65655  -0.64941
 Alpha  occ. eigenvalues --   -0.64710  -0.62081  -0.61521  -0.60002  -0.58214
 Alpha  occ. eigenvalues --   -0.55934  -0.55183  -0.53340  -0.53176  -0.53016
 Alpha  occ. eigenvalues --   -0.52653  -0.50559  -0.48763  -0.48748  -0.48513
 Alpha  occ. eigenvalues --   -0.47239  -0.46354  -0.46250  -0.44759  -0.44388
 Alpha  occ. eigenvalues --   -0.37268  -0.36294
 Alpha virt. eigenvalues --    0.05121   0.11314   0.16594   0.20510   0.22425
 Alpha virt. eigenvalues --    0.23774   0.25535   0.26200   0.27125   0.28146
 Alpha virt. eigenvalues --    0.28924   0.30176   0.31001   0.31389   0.32071

 Mulliken charges:
               1
     1  C   -0.298968
     2  C   -0.299115
     3  C   -0.482221
     4  H    0.149518
     5  H    0.148141
     6  H    0.154845
     7  H    0.155599
     8  H    0.151381
     9  H    0.153361
    10  H    0.163530
    11  C   -0.298815
    12  C   -0.300242
    13  C   -0.476100
    14  H    0.150515
    15  H    0.151314
    16  H    0.152071
    17  H    0.152888
    18  H    0.156144
    19  H    0.155484
    20  H    0.161764
    21  C   -0.172321
    22  C   -0.218592
    23  C   -0.171209
    24  C    0.158755
    25  C   -0.172548
    26  C   -0.223784
    27  H    0.226121
    28  H    0.223088
    29  H    0.275331
    30  H    0.275100
    31  H    0.232242
    32  N    0.488084
    33  O   -0.460710
    34  O   -0.460650
 Sum of Mulliken charges =  -0.00000

 Dipole moment (field-independent basis, Debye):
    X=              2.6569    Y=              4.5421    Z=             -0.8778  Tot=              5.3348
 Quadrupole moment (field-independent basis, Debye-Ang):
   XX=           -109.4440   YY=            -96.8384   ZZ=            -95.1019
   XY=            -19.6765   XZ=              2.8949   YZ=             -0.1329

 Normal termination of Gaussian 16 at Wed May  5 18:27:36 2021.
