 Gaussian 16, Revision A.03,
 Gaussian 16:  EM64L-G16RevA.03 25-Dec-2016

 -------------
 #p 6-31g* mp2
 -------------

 ------------------------------------------------------
 Input file generated by CHIRIPA (05-May-2021 14:51:11)
 ------------------------------------------------------
 Symbolic Z-matrix:
 Charge =  0 Multiplicity = 1

                         Standard orientation:
 ---------------------------------------------------------------------
 Center     Atomic      Atomic             Coordinates (Angstroms)
 Number     Number       Type             X           Y           Z
 ---------------------------------------------------------------------
      1          6           0       -2.916605    1.125075    0.332906
      2          6           0       -3.267057    2.344923   -0.519817
      3          6           0       -2.704709    3.646883    0.051550
      4          1           0       -3.299336    1.275589    1.351635
      5          1           0       -1.823827    1.047491    0.417842
      6          1           0       -4.358817    2.419388   -0.604268
      7          1           0       -2.883614    2.191404   -1.536685
      8          1           0       -1.613152    3.597764    0.120045
      9          1           0       -3.096736    3.827042    1.057760
     10          1           0       -2.967087    4.506044   -0.573637
     11          6           0       -3.471789   -0.184055   -0.225374
     12          6           0       -3.121336   -1.403904    0.627349
     13          6           0       -3.683684   -2.705863    0.055982
     14          1           0       -4.564566   -0.106472   -0.310310
     15          1           0       -3.089058   -0.334569   -1.244102
     16          1           0       -3.504779   -1.250385    1.644217
     17          1           0       -2.029577   -1.478368    0.711800
     18          1           0       -3.291657   -2.886023   -0.950228
     19          1           0       -4.775241   -2.656744   -0.012513
     20          1           0       -3.421306   -3.565025    0.681169
     21          6           0        3.895964   -0.217664    0.110625
     22          6           0        4.059591    1.289494   -0.088588
     23          6           0        5.468893    1.780233    0.244339
     24          1           0        4.137906   -0.471890    1.151671
     25          1           0        4.626887   -0.745040   -0.517883
     26          1           0        3.327649    1.813831    0.539065
     27          1           0        3.817045    1.540188   -1.129232
     28          1           0        6.209764    1.283563   -0.390507
     29          1           0        5.717588    1.558761    1.287269
     30          1           0        5.563638    2.860313    0.094971
     31          6           0        2.492429   -0.723355   -0.218157
     32          6           0        2.328803   -2.230514   -0.018945
     33          6           0        0.919501   -2.721252   -0.351871
     34          1           0        1.761507   -0.195980    0.410351
     35          1           0        2.250487   -0.469128   -1.259203
     36          1           0        2.571349   -2.481208    1.021699
     37          1           0        3.060744   -2.754851   -0.646596
     38          1           0        0.670806   -2.499781   -1.394801
     39          1           0        0.178629   -2.224583    0.282975
     40          1           0        0.824756   -3.801333   -0.202503
 ---------------------------------------------------------------------

 SCF Done:  E(RHF) =  -470.733345511     A.U. after   11 cycles
 E2 =    -0.1582726703D+01 EUMP2 =    -0.47231607221394D+03

 The electronic state is 1-A.
 Alpha  occ. eigenvalues --  -11.21646 -11.21633 -11.21584 -11.21545 -11.21452
 Alpha  occ. eigenvalues --  -11.21390 -11.21379 -11.21317 -11.21111 -11.21092
 Alpha  occ. eigenvalues --  -11.21058 -11.21013  -1.08473  -1.08400  -1.03573
 Alpha  occ. eigenvalues --   -1.03492  -0.96023  -0.95941  -0.87039  -0.86959
 Alpha  occ. eigenvalues --   -0.79659  -0.79539  -0.78298  -0.78205  -0.65134
 Alpha  occ. eigenvalues --   -0.65008  -0.61051  -0.60828  -0.59385  -0.59316
 Alpha  occ. eigenvalues --   -0.57644  -0.57543  -0.55349  -0.55194  -0.52708
 Alpha  occ. eigenvalues --   -0.52639  -0.52463  -0.52358  -0.50042  -0.49829
 Alpha  occ. eigenvalues --   -0.48048  -0.47808  -0.46794  -0.46467  -0.45918
 Alpha  occ. eigenvalues --   -0.45782  -0.45734  -0.45493  -0.43823  -0.43752
 Alpha virt. eigenvalues --    0.21114   0.23097   0.23757   0.24621   0.25534
 Alpha virt. eigenvalues --    0.26780   0.27263   0.27521   0.28199   0.29026
 Alpha virt. eigenvalues --    0.30406   0.31411   0.31787   0.31937   0.32071

 Mulliken charges:
               1
     1  C   -0.298468
     2  C   -0.299583
     3  C   -0.475755
     4  H    0.149447
     5  H    0.149194
     6  H    0.151904
     7  H    0.152077
     8  H    0.155253
     9  H    0.155030
    10  H    0.160213
    11  C   -0.297712
    12  C   -0.306973
    13  C   -0.475144
    14  H    0.149385
    15  H    0.149920
    16  H    0.151512
    17  H    0.158483
    18  H    0.155845
    19  H    0.154791
    20  H    0.160141
    21  C   -0.298304
    22  C   -0.299722
    23  C   -0.475739
    24  H    0.149871
    25  H    0.149720
    26  H    0.151907
    27  H    0.151897
    28  H    0.155234
    29  H    0.155292
    30  H    0.160394
    31  C   -0.298461
    32  C   -0.299291
    33  C   -0.482339
    34  H    0.148915
    35  H    0.149538
    36  H    0.152186
    37  H    0.152177
    38  H    0.154842
    39  H    0.161303
    40  H    0.161017
 Sum of Mulliken charges =  -0.00000

 Dipole moment (field-independent basis, Debye):
    X=              0.0220    Y=             -0.0157    Z=             -0.0060  Tot=              0.0277
 Quadrupole moment (field-independent basis, Debye-Ang):
   XX=            -85.0373   YY=            -86.0278   ZZ=            -83.6596
   XY=             -0.9990   XZ=             -1.0088   YZ=             -0.1669

 Normal termination of Gaussian 16 at Wed May  5 18:16:56 2021.
