 Gaussian 16, Revision A.03,
 Gaussian 16:  EM64L-G16RevA.03 25-Dec-2016

 -------------
 #p 6-31g* mp2
 -------------

 ------------------------------------------------------
 Input file generated by CHIRIPA (05-May-2021 14:55:19)
 ------------------------------------------------------
 Symbolic Z-matrix:
 Charge =  0 Multiplicity = 1

                         Standard orientation:
 ---------------------------------------------------------------------
 Center     Atomic      Atomic             Coordinates (Angstroms)
 Number     Number       Type             X           Y           Z
 ---------------------------------------------------------------------
      1          6           0        5.580999   -0.364349   -0.254915
      2          6           0        5.064241    0.408114    0.790449
      3          6           0        3.684968    0.476008    1.008493
      4          6           0        2.847637   -0.244524    0.158199
      5          6           0        3.332040   -1.022998   -0.891859
      6          6           0        4.714776   -1.076184   -1.091258
      7          1           0        6.653797   -0.411378   -0.417055
      8          1           0        5.734583    0.961980    1.441538
      9          1           0        3.258038    1.066213    1.810246
     10          1           0        2.638755   -1.564095   -1.524306
     11          1           0        5.113280   -1.676907   -1.903890
     12          7           0        1.385629   -0.180433    0.379163
     13          8           0        0.669092   -0.824530   -0.383955
     14          8           0        0.983928    0.512686    1.311290
     15          6           0       -3.766258    1.066349   -0.188281
     16          6           0       -2.321573    1.307724   -0.627150
     17          6           0       -1.962227    2.792670   -0.687146
     18          1           0       -4.444506    1.581447   -0.882253
     19          1           0       -3.923369    1.522743    0.798845
     20          1           0       -2.166849    0.849815   -1.612542
     21          1           0       -1.646692    0.791832    0.067838
     22          1           0       -2.088572    3.259587    0.295009
     23          1           0       -2.611684    3.317899   -1.394918
     24          1           0       -0.925074    2.942296   -1.003031
     25          6           0       -4.140541   -0.413327   -0.123480
     26          6           0       -5.585227   -0.654702    0.315390
     27          6           0       -5.944572   -2.139647    0.375385
     28          1           0       -3.983431   -0.869720   -1.110605
     29          1           0       -3.462293   -0.928425    0.570493
     30          1           0       -6.260108   -0.138810   -0.379598
     31          1           0       -5.739950   -0.196793    1.300781
     32          1           0       -5.295115   -2.664876    1.083157
     33          1           0       -5.818227   -2.606564   -0.606770
     34          1           0       -6.981726   -2.289274    0.691271
 ---------------------------------------------------------------------

 SCF Done:  E(RHF) =  -669.536665520     A.U. after   15 cycles
 E2 =    -0.2092008862D+01 EUMP2 =    -0.67162867438207D+03

 The electronic state is 1-A.
 Alpha  occ. eigenvalues --  -20.61110 -20.61103 -15.86096 -11.31380 -11.27929
 Alpha  occ. eigenvalues --  -11.27926 -11.27658 -11.26924 -11.26914 -11.20568
 Alpha  occ. eigenvalues --  -11.20206 -11.20045 -11.19912 -11.19639 -11.19554
 Alpha  occ. eigenvalues --   -1.60141  -1.39697  -1.19537  -1.08951  -1.07036
 Alpha  occ. eigenvalues --   -1.04924  -1.02166  -0.95799  -0.94696  -0.86326
 Alpha  occ. eigenvalues --   -0.85722  -0.82635  -0.78246  -0.77698  -0.76766
 Alpha  occ. eigenvalues --   -0.72299  -0.71441  -0.70645  -0.65190  -0.64928
 Alpha  occ. eigenvalues --   -0.63674  -0.62270  -0.59566  -0.58086  -0.56282
 Alpha  occ. eigenvalues --   -0.55428  -0.54005  -0.53258  -0.53014  -0.51436
 Alpha  occ. eigenvalues --   -0.51110  -0.49219  -0.49075  -0.48627  -0.46523
 Alpha  occ. eigenvalues --   -0.45241  -0.45117  -0.44321  -0.44083  -0.42430
 Alpha  occ. eigenvalues --   -0.37511  -0.36521
 Alpha virt. eigenvalues --    0.04824   0.11135   0.16334   0.21276   0.24180
 Alpha virt. eigenvalues --    0.25600   0.27200   0.28035   0.28163   0.28963
 Alpha virt. eigenvalues --    0.29244   0.30852   0.32394   0.32667   0.33098

 Mulliken charges:
               1
     1  C   -0.170378
     2  C   -0.218612
     3  C   -0.170676
     4  C    0.160309
     5  C   -0.170729
     6  C   -0.218617
     7  H    0.226317
     8  H    0.224143
     9  H    0.276049
    10  H    0.276114
    11  H    0.224148
    12  N    0.487975
    13  O   -0.457392
    14  O   -0.459858
    15  C   -0.297884
    16  C   -0.309700
    17  C   -0.472255
    18  H    0.142067
    19  H    0.146212
    20  H    0.146833
    21  H    0.185198
    22  H    0.152754
    23  H    0.146537
    24  H    0.154587
    25  C   -0.297402
    26  C   -0.298680
    27  C   -0.474768
    28  H    0.147612
    29  H    0.156266
    30  H    0.148625
    31  H    0.150046
    32  H    0.155213
    33  H    0.153579
    34  H    0.156367
 Sum of Mulliken charges =  -0.00000

 Dipole moment (field-independent basis, Debye):
    X=              5.6284    Y=             -0.3983    Z=             -0.6725  Tot=              5.6824
 Quadrupole moment (field-independent basis, Debye-Ang):
   XX=            -67.4898   YY=            -95.1472   ZZ=            -91.5304
   XY=             -1.5607   XZ=             -0.7384   YZ=              3.3617

 Normal termination of Gaussian 16 at Wed May  5 23:43:45 2021.
