 Gaussian 16, Revision A.03,
 Gaussian 16:  EM64L-G16RevA.03 25-Dec-2016

 -------------
 #p 6-31g* mp2
 -------------

 ------------------------------------------------------
 Input file generated by CHIRIPA (05-May-2021 14:51:09)
 ------------------------------------------------------
 Symbolic Z-matrix:
 Charge =  0 Multiplicity = 1

                         Standard orientation:
 ---------------------------------------------------------------------
 Center     Atomic      Atomic             Coordinates (Angstroms)
 Number     Number       Type             X           Y           Z
 ---------------------------------------------------------------------
      1          6           0       -3.407797   -0.155896    0.049657
      2          6           0       -3.987339   -0.219928   -1.363855
      3          6           0       -5.172903    0.725446   -1.560068
      4          1           0       -4.196921   -0.399845    0.774031
      5          1           0       -3.094914    0.875438    0.263781
      6          1           0       -4.297764   -1.251117   -1.575756
      7          1           0       -3.196695    0.024014   -2.084959
      8          1           0       -4.873560    1.762220   -1.375425
      9          1           0       -5.980885    0.479844   -0.863328
     10          1           0       -5.571670    0.663515   -2.577422
     11          6           0       -2.221916   -1.095369    0.261332
     12          6           0       -1.642375   -1.031337    1.674844
     13          6           0       -0.456810   -1.976711    1.871057
     14          1           0       -2.534799   -2.126703    0.047209
     15          1           0       -1.432792   -0.851420   -0.463041
     16          1           0       -2.433018   -1.275279    2.395948
     17          1           0       -1.331949   -0.000148    1.886745
     18          1           0        0.351172   -1.731109    1.174318
     19          1           0       -0.756153   -3.013485    1.686414
     20          1           0       -0.058044   -1.914780    2.888411
     21          6           0        3.520714    0.435572   -0.377023
     22          6           0        3.631939   -1.004984   -0.877438
     23          6           0        5.050081   -1.370248   -1.317037
     24          1           0        3.847194    1.119525   -1.172363
     25          1           0        4.214400    0.579161    0.462963
     26          1           0        2.937246   -1.146199   -1.715337
     27          1           0        3.304974   -1.685577   -0.080881
     28          1           0        5.752455   -1.257413   -0.484848
     29          1           0        5.382637   -0.714970   -2.128590
     30          1           0        5.106843   -2.404322   -1.671058
     31          6           0        2.108999    0.815693    0.066034
     32          6           0        1.997775    2.256249    0.566448
     33          6           0        0.579633    2.621513    1.006048
     34          1           0        1.415313    0.672105   -0.773952
     35          1           0        1.782519    0.131740    0.861373
     36          1           0        2.324739    2.936842   -0.230109
     37          1           0        2.692467    2.397464    1.404347
     38          1           0        0.247077    1.966235    1.817601
     39          1           0       -0.122741    2.508678    0.173858
     40          1           0        0.522870    3.655587    1.360068
 ---------------------------------------------------------------------

 SCF Done:  E(RHF) =  -470.732930663     A.U. after   11 cycles
 E2 =    -0.1584245003D+01 EUMP2 =    -0.47231717566541D+03

 The electronic state is 1-A.
 Alpha  occ. eigenvalues --  -11.21673 -11.21641 -11.21576 -11.21522 -11.21454
 Alpha  occ. eigenvalues --  -11.21394 -11.21350 -11.21289 -11.21162 -11.21096
 Alpha  occ. eigenvalues --  -11.21050 -11.21001  -1.08499  -1.08372  -1.03595
 Alpha  occ. eigenvalues --   -1.03480  -0.96045  -0.95937  -0.87070  -0.86946
 Alpha  occ. eigenvalues --   -0.79659  -0.79551  -0.78325  -0.78185  -0.65175
 Alpha  occ. eigenvalues --   -0.64974  -0.61070  -0.60819  -0.59395  -0.59307
 Alpha  occ. eigenvalues --   -0.57694  -0.57522  -0.55374  -0.55208  -0.52732
 Alpha  occ. eigenvalues --   -0.52641  -0.52489  -0.52363  -0.50121  -0.49759
 Alpha  occ. eigenvalues --   -0.48071  -0.47821  -0.46733  -0.46531  -0.45983
 Alpha  occ. eigenvalues --   -0.45747  -0.45613  -0.45463  -0.43839  -0.43740
 Alpha virt. eigenvalues --    0.20235   0.22837   0.23625   0.24380   0.25357
 Alpha virt. eigenvalues --    0.25893   0.26064   0.28280   0.29124   0.29499
 Alpha virt. eigenvalues --    0.30108   0.31492   0.31696   0.31958   0.32294

 Mulliken charges:
               1
     1  C   -0.299372
     2  C   -0.299495
     3  C   -0.475674
     4  H    0.149521
     5  H    0.150686
     6  H    0.151877
     7  H    0.151347
     8  H    0.155181
     9  H    0.155212
    10  H    0.160066
    11  C   -0.298770
    12  C   -0.304842
    13  C   -0.481699
    14  H    0.149177
    15  H    0.150794
    16  H    0.151597
    17  H    0.157480
    18  H    0.161101
    19  H    0.155175
    20  H    0.158602
    21  C   -0.297822
    22  C   -0.301189
    23  C   -0.475691
    24  H    0.149775
    25  H    0.149732
    26  H    0.151835
    27  H    0.153145
    28  H    0.155339
    29  H    0.155275
    30  H    0.160562
    31  C   -0.306105
    32  C   -0.299201
    33  C   -0.480428
    34  H    0.149077
    35  H    0.157895
    36  H    0.152212
    37  H    0.152293
    38  H    0.159315
    39  H    0.155084
    40  H    0.160932
 Sum of Mulliken charges =  -0.00000

 Dipole moment (field-independent basis, Debye):
    X=              0.0471    Y=              0.0246    Z=              0.0039  Tot=              0.0532
 Quadrupole moment (field-independent basis, Debye-Ang):
   XX=            -85.9837   YY=            -84.7330   ZZ=            -84.0529
   XY=              1.3339   XZ=              0.1192   YZ=             -0.4013

 Normal termination of Gaussian 16 at Wed May  5 16:38:18 2021.
