 Gaussian 16, Revision A.03,
 Gaussian 16:  EM64L-G16RevA.03 25-Dec-2016

 -------------
 #p 6-31g* mp2
 -------------

 ------------------------------------------------------
 Input file generated by CHIRIPA (05-May-2021 14:53:15)
 ------------------------------------------------------
 Symbolic Z-matrix:
 Charge =  0 Multiplicity = 1

                         Standard orientation:
 ---------------------------------------------------------------------
 Center     Atomic      Atomic             Coordinates (Angstroms)
 Number     Number       Type             X           Y           Z
 ---------------------------------------------------------------------
      1          6           0       -2.988010    0.900304   -0.785896
      2          6           0       -2.385231    2.091788   -0.040907
      3          6           0       -1.866592    3.177745   -0.984043
      4          1           0       -2.229775    0.473776   -1.456789
      5          1           0       -3.808293    1.253805   -1.425870
      6          1           0       -1.567231    1.735944    0.598521
      7          1           0       -3.144931    2.515410    0.628433
      8          1           0       -2.676639    3.560582   -1.613217
      9          1           0       -1.089975    2.776687   -1.643299
     10          1           0       -1.439973    4.020012   -0.430471
     11          6           0       -3.510872   -0.193669    0.143387
     12          6           0       -4.113651   -1.385153   -0.601602
     13          6           0       -4.632289   -2.471110    0.341534
     14          1           0       -2.690588   -0.547170    0.783362
     15          1           0       -4.269107    0.232858    0.814281
     16          1           0       -3.353951   -1.808775   -1.270941
     17          1           0       -4.931651   -1.029309   -1.241029
     18          1           0       -5.408907   -2.070052    1.000790
     19          1           0       -3.822242   -2.853947    0.970709
     20          1           0       -5.058909   -3.313377   -0.212038
     21          6           0        4.628383   -0.563646   -1.133258
     22          6           0        3.506709   -1.360460   -1.385162
     23          6           0        2.343436   -1.209782   -0.624478
     24          6           0        2.336596   -0.248224    0.384803
     25          6           0        3.437963    0.560810    0.660016
     26          6           0        4.590498    0.392759   -0.113270
     27          1           0        5.527870   -0.687446   -1.729070
     28          1           0        3.533273   -2.104020   -2.176653
     29          1           0        1.460793   -1.813281   -0.798109
     30          1           0        3.381363    1.293580    1.455794
     31          1           0        5.460108    1.012976    0.084603
     32          7           0        1.110775   -0.079511    1.196776
     33          8           0        1.130179    0.774755    2.080229
     34          8           0        0.153785   -0.804735    0.934372
 ---------------------------------------------------------------------

 SCF Done:  E(RHF) =  -669.536813812     A.U. after   15 cycles
 E2 =    -0.2092249512D+01 EUMP2 =    -0.67162906332422D+03

 The electronic state is 1-A.
 Alpha  occ. eigenvalues --  -20.61158 -20.61153 -15.86163 -11.31410 -11.27962
 Alpha  occ. eigenvalues --  -11.27956 -11.27684 -11.26948 -11.26938 -11.20552
 Alpha  occ. eigenvalues --  -11.20317 -11.20211 -11.20188 -11.20140 -11.19874
 Alpha  occ. eigenvalues --   -1.60200  -1.39757  -1.19567  -1.08987  -1.07198
 Alpha  occ. eigenvalues --   -1.04951  -1.02449  -0.95840  -0.94912  -0.86355
 Alpha  occ. eigenvalues --   -0.85940  -0.82678  -0.78495  -0.77740  -0.76991
 Alpha  occ. eigenvalues --   -0.72383  -0.71512  -0.70675  -0.65226  -0.64954
 Alpha  occ. eigenvalues --   -0.63797  -0.62298  -0.59851  -0.58287  -0.56523
 Alpha  occ. eigenvalues --   -0.55458  -0.54205  -0.53286  -0.53041  -0.51665
 Alpha  occ. eigenvalues --   -0.51351  -0.49182  -0.49140  -0.48853  -0.46826
 Alpha  occ. eigenvalues --   -0.45506  -0.45191  -0.44587  -0.44278  -0.42650
 Alpha  occ. eigenvalues --   -0.37539  -0.36547
 Alpha virt. eigenvalues --    0.04740   0.11110   0.16242   0.21216   0.24051
 Alpha virt. eigenvalues --    0.25255   0.27144   0.27608   0.28302   0.28760
 Alpha virt. eigenvalues --    0.29238   0.30924   0.32292   0.32425   0.32771

 Mulliken charges:
               1
     1  C   -0.293302
     2  C   -0.307148
     3  C   -0.474585
     4  H    0.144648
     5  H    0.142321
     6  H    0.170675
     7  H    0.149049
     8  H    0.151364
     9  H    0.148856
    10  H    0.158318
    11  C   -0.309588
    12  C   -0.297268
    13  C   -0.475696
    14  H    0.179708
    15  H    0.144040
    16  H    0.147804
    17  H    0.146418
    18  H    0.153445
    19  H    0.158928
    20  H    0.154685
    21  C   -0.170213
    22  C   -0.218570
    23  C   -0.170729
    24  C    0.158496
    25  C   -0.170128
    26  C   -0.218628
    27  H    0.226521
    28  H    0.224321
    29  H    0.275755
    30  H    0.276242
    31  H    0.224316
    32  N    0.490784
    33  O   -0.458292
    34  O   -0.462547
 Sum of Mulliken charges =  -0.00000

 Dipole moment (field-independent basis, Debye):
    X=              4.7174    Y=             -0.6847    Z=             -2.6282  Tot=              5.4434
 Quadrupole moment (field-independent basis, Debye-Ang):
   XX=            -74.4128   YY=            -93.4594   ZZ=            -96.6011
   XY=             -1.3720   XZ=             -4.2736   YZ=              3.4848

 Normal termination of Gaussian 16 at Wed May  5 20:19:13 2021.
