 Gaussian 16, Revision A.03,
 Gaussian 16:  EM64L-G16RevA.03 25-Dec-2016

 -------------
 #p 6-31g* mp2
 -------------

 ------------------------------------------------------
 Input file generated by CHIRIPA (05-May-2021 14:53:14)
 ------------------------------------------------------
 Symbolic Z-matrix:
 Charge =  0 Multiplicity = 1

                         Standard orientation:
 ---------------------------------------------------------------------
 Center     Atomic      Atomic             Coordinates (Angstroms)
 Number     Number       Type             X           Y           Z
 ---------------------------------------------------------------------
      1          6           0       -2.766900    0.715296   -0.386421
      2          6           0       -3.092423    2.203210   -0.521066
      3          6           0       -2.076842    2.954982   -1.382013
      4          1           0       -1.763292    0.603733    0.046326
      5          1           0       -2.727672    0.263634   -1.387350
      6          1           0       -3.132389    2.651639    0.479899
      7          1           0       -4.095449    2.311243   -0.953365
      8          1           0       -2.042073    2.534546   -2.392274
      9          1           0       -1.073541    2.876876   -0.950866
     10          1           0       -2.328746    4.016833   -1.464937
     11          6           0       -3.773138   -0.049780    0.471409
     12          6           0       -3.447615   -1.537695    0.606054
     13          6           0       -4.463196   -2.289466    1.467001
     14          1           0       -3.812366    0.401881    1.472337
     15          1           0       -4.776746    0.061782    0.038662
     16          1           0       -2.444588   -1.645727    1.038353
     17          1           0       -3.407648   -1.986123   -0.394911
     18          1           0       -5.466496   -2.211360    1.035854
     19          1           0       -4.497965   -1.869030    2.477261
     20          1           0       -4.211292   -3.351317    1.549925
     21          6           0        3.680274    1.428149    1.466559
     22          6           0        4.415915    0.364010    0.934621
     23          6           0        3.802637   -0.577254    0.102479
     24          6           0        2.445886   -0.423167   -0.178190
     25          6           0        1.686031    0.626135    0.336471
     26          6           0        2.320078    1.555591    1.166316
     27          1           0        4.164750    2.154760    2.112095
     28          1           0        5.472405    0.262529    1.166085
     29          1           0        4.348395   -1.410718   -0.322851
     30          1           0        0.634384    0.700872    0.087733
     31          1           0        1.746280    2.381006    1.578009
     32          7           0        1.785642   -1.413393   -1.057925
     33          8           0        0.589066   -1.255333   -1.289996
     34          8           0        2.477222   -2.328839   -1.498732
 ---------------------------------------------------------------------

 SCF Done:  E(RHF) =  -669.535414588     A.U. after   15 cycles
 E2 =    -0.2092095591D+01 EUMP2 =    -0.67162751017822D+03

 The electronic state is 1-A.
 Alpha  occ. eigenvalues --  -20.60777 -20.60770 -15.85823 -11.31196 -11.27769
 Alpha  occ. eigenvalues --  -11.27753 -11.27516 -11.26791 -11.26782 -11.21579
 Alpha  occ. eigenvalues --  -11.21200 -11.21160 -11.21093 -11.21034 -11.20662
 Alpha  occ. eigenvalues --   -1.59849  -1.39401  -1.19373  -1.08767  -1.08186
 Alpha  occ. eigenvalues --   -1.04780  -1.03310  -0.95781  -0.95600  -0.86800
 Alpha  occ. eigenvalues --   -0.86178  -0.82431  -0.79363  -0.77985  -0.77435
 Alpha  occ. eigenvalues --   -0.72041  -0.71170  -0.70490  -0.65026  -0.64943
 Alpha  occ. eigenvalues --   -0.64694  -0.62138  -0.60710  -0.59152  -0.57360
 Alpha  occ. eigenvalues --   -0.55288  -0.55090  -0.53106  -0.52889  -0.52479
 Alpha  occ. eigenvalues --   -0.52190  -0.49749  -0.48808  -0.48801  -0.47667
 Alpha  occ. eigenvalues --   -0.46400  -0.45488  -0.45396  -0.44793  -0.43553
 Alpha  occ. eigenvalues --   -0.37355  -0.36381
 Alpha virt. eigenvalues --    0.05038   0.11254   0.16531   0.19739   0.23117
 Alpha virt. eigenvalues --    0.24100   0.25589   0.27423   0.27521   0.28183
 Alpha virt. eigenvalues --    0.29519   0.31056   0.31554   0.32096   0.32158

 Mulliken charges:
               1
     1  C   -0.301743
     2  C   -0.300700
     3  C   -0.473931
     4  H    0.146868
     5  H    0.161166
     6  H    0.147492
     7  H    0.153793
     8  H    0.161751
     9  H    0.144309
    10  H    0.159676
    11  C   -0.298546
    12  C   -0.298677
    13  C   -0.476062
    14  H    0.144969
    15  H    0.149236
    16  H    0.154118
    17  H    0.159401
    18  H    0.153863
    19  H    0.151873
    20  H    0.161447
    21  C   -0.170351
    22  C   -0.219137
    23  C   -0.169499
    24  C    0.155458
    25  C   -0.180820
    26  C   -0.223539
    27  H    0.225718
    28  H    0.223534
    29  H    0.275707
    30  H    0.294084
    31  H    0.223705
    32  N    0.486555
    33  O   -0.461391
    34  O   -0.460323
 Sum of Mulliken charges =  -0.00000

 Dipole moment (field-independent basis, Debye):
    X=              2.3025    Y=              3.3601    Z=              2.9529  Tot=              5.0311
 Quadrupole moment (field-independent basis, Debye-Ang):
   XX=            -79.8050   YY=            -97.7165   ZZ=            -96.2201
   XY=              5.0805   XZ=              8.2672   YZ=             -1.0038

 Normal termination of Gaussian 16 at Wed May  5 20:14:16 2021.
