 Gaussian 16, Revision A.03,
 Gaussian 16:  EM64L-G16RevA.03 25-Dec-2016

 -------------
 #p 6-31g* mp2
 -------------

 ------------------------------------------------------
 Input file generated by CHIRIPA (05-May-2021 14:57:23)
 ------------------------------------------------------
 Symbolic Z-matrix:
 Charge =  0 Multiplicity = 1

                         Standard orientation:
 ---------------------------------------------------------------------
 Center     Atomic      Atomic             Coordinates (Angstroms)
 Number     Number       Type             X           Y           Z
 ---------------------------------------------------------------------
      1          6           0        1.944838   -1.672751    1.499901
      2          6           0        1.393845   -0.785248    0.569704
      3          6           0        2.219466    0.039918   -0.199710
      4          6           0        3.597963   -0.048885   -0.012226
      5          6           0        4.177081   -0.922919    0.906456
      6          6           0        3.332252   -1.738638    1.665017
      7          1           0        1.296015   -2.310090    2.093385
      8          1           0        0.316714   -0.731937    0.439348
      9          1           0        1.819509    0.736000   -0.926980
     10          1           0        5.254539   -0.953492    1.014012
     11          1           0        3.762949   -2.426940    2.386671
     12          7           0        4.482179    0.819680   -0.821025
     13          8           0        5.693495    0.722390   -0.636948
     14          8           0        3.947168    1.581307   -1.623724
     15          6           0       -3.022872    2.382380    1.055344
     16          6           0       -2.048677    1.837994    0.212071
     17          6           0       -2.275746    0.624984   -0.444887
     18          6           0       -3.493742   -0.019720   -0.234806
     19          6           0       -4.484045    0.497128    0.599135
     20          6           0       -4.235309    1.711394    1.245849
     21          1           0       -2.838062    3.325163    1.561706
     22          1           0       -1.106156    2.356888    0.062246
     23          1           0       -1.538932    0.181004   -1.103221
     24          1           0       -5.413838   -0.043345    0.728727
     25          1           0       -4.993702    2.131809    1.900170
     26          7           0       -3.745600   -1.304543   -0.924875
     27          8           0       -4.826896   -1.852929   -0.723110
     28          8           0       -2.856942   -1.738874   -1.654450
 ---------------------------------------------------------------------

 SCF Done:  E(RHF) =  -868.337499654     A.U. after   16 cycles
 E2 =    -0.2600345879D+01 EUMP2 =    -0.87093784553328D+03

 The electronic state is 1-A.
 Alpha  occ. eigenvalues --  -20.61479 -20.61463 -20.61002 -20.60989 -15.86529
 Alpha  occ. eigenvalues --  -15.86052 -11.31984 -11.31421 -11.28592 -11.28475
 Alpha  occ. eigenvalues --  -11.28194 -11.28043 -11.27946 -11.27657 -11.27570
 Alpha  occ. eigenvalues --  -11.27496 -11.26971 -11.26946  -1.60550  -1.60073
 Alpha  occ. eigenvalues --   -1.40101  -1.39628  -1.20135  -1.19575  -1.09491
 Alpha  occ. eigenvalues --   -1.08954  -1.05557  -1.04989  -0.96325  -0.95800
 Alpha  occ. eigenvalues --   -0.86929  -0.86373  -0.83161  -0.82643  -0.78228
 Alpha  occ. eigenvalues --   -0.77694  -0.72736  -0.72269  -0.71882  -0.71396
 Alpha  occ. eigenvalues --   -0.71211  -0.70668  -0.65776  -0.65548  -0.65228
 Alpha  occ. eigenvalues --   -0.64975  -0.62973  -0.62266  -0.55983  -0.55443
 Alpha  occ. eigenvalues --   -0.53896  -0.53647  -0.53292  -0.53012  -0.49505
 Alpha  occ. eigenvalues --   -0.49493  -0.49032  -0.49021  -0.45488  -0.45034
 Alpha  occ. eigenvalues --   -0.38075  -0.37522  -0.37159  -0.36581
 Alpha virt. eigenvalues --    0.04267   0.04839   0.10407   0.11072   0.15754
 Alpha virt. eigenvalues --    0.16352   0.19063   0.21951   0.24822   0.27173
 Alpha virt. eigenvalues --    0.28004   0.29595   0.29948   0.31009   0.32483

 Mulliken charges:
               1
     1  C   -0.171364
     2  C   -0.219757
     3  C   -0.174617
     4  C    0.159345
     5  C   -0.170919
     6  C   -0.218045
     7  H    0.229044
     8  H    0.226110
     9  H    0.268483
    10  H    0.276323
    11  H    0.224799
    12  N    0.488235
    13  O   -0.459059
    14  O   -0.462174
    15  C   -0.170723
    16  C   -0.218108
    17  C   -0.181112
    18  C    0.159179
    19  C   -0.170990
    20  C   -0.217307
    21  H    0.229714
    22  H    0.226723
    23  H    0.272357
    24  H    0.277815
    25  H    0.226683
    26  N    0.487874
    27  O   -0.457327
    28  O   -0.461181
 Sum of Mulliken charges =  -0.00000

 Dipole moment (field-independent basis, Debye):
    X=             -2.4136    Y=              1.4709    Z=              5.4257  Tot=              6.1178
 Quadrupole moment (field-independent basis, Debye-Ang):
   XX=           -125.2270   YY=           -104.6977   ZZ=           -105.2342
   XY=            -28.9754   XZ=              1.3628   YZ=             -2.3230

 Normal termination of Gaussian 16 at Thu May  6 14:34:46 2021.
