 Gaussian 16, Revision A.03,
 Gaussian 16:  EM64L-G16RevA.03 25-Dec-2016

 -------------
 #p 6-31g* mp2
 -------------

 ------------------------------------------------------
 Input file generated by CHIRIPA (05-May-2021 14:53:16)
 ------------------------------------------------------
 Symbolic Z-matrix:
 Charge =  0 Multiplicity = 1

                         Standard orientation:
 ---------------------------------------------------------------------
 Center     Atomic      Atomic             Coordinates (Angstroms)
 Number     Number       Type             X           Y           Z
 ---------------------------------------------------------------------
      1          6           0        4.259487   -0.261486   -0.506315
      2          6           0        5.501195   -0.820222    0.189358
      3          6           0        6.057571   -2.064391   -0.503668
      4          1           0        3.485340   -1.040185   -0.541938
      5          1           0        4.508986   -0.020845   -1.549022
      6          1           0        5.249792   -1.058445    1.230829
      7          1           0        6.272408   -0.040042    0.223500
      8          1           0        6.335813   -1.837307   -1.537890
      9          1           0        5.307387   -2.861496   -0.524837
     10          1           0        6.944895   -2.447162    0.010143
     11          6           0        3.691622    0.982436    0.174798
     12          6           0        2.449914    1.541172   -0.520875
     13          6           0        1.893538    2.785341    0.172151
     14          1           0        3.442123    0.741795    1.217505
     15          1           0        4.465769    1.761135    0.210421
     16          1           0        1.678701    0.760992   -0.555017
     17          1           0        2.701317    1.779395   -1.562346
     18          1           0        2.643722    3.582446    0.193320
     19          1           0        1.615296    2.558257    1.206373
     20          1           0        1.006213    3.168112   -0.341659
     21          6           0       -0.721224   -0.380523    0.947702
     22          6           0       -1.458821   -1.559325    0.796380
     23          6           0       -2.780888   -1.516478    0.343776
     24          6           0       -3.336444   -0.272060    0.050398
     25          6           0       -2.627394    0.919910    0.190916
     26          6           0       -1.306832    0.853158    0.645021
     27          1           0        0.305204   -0.423093    1.299878
     28          1           0       -1.006610   -2.518830    1.030688
     29          1           0       -3.374706   -2.413625    0.217586
     30          1           0       -3.105371    1.861510   -0.050636
     31          1           0       -0.736395    1.770249    0.761591
     32          7           0       -4.735260   -0.214045   -0.429548
     33          8           0       -5.201749    0.894854   -0.681275
     34          8           0       -5.338676   -1.278572   -0.544914
 ---------------------------------------------------------------------

 SCF Done:  E(RHF) =  -669.534713317     A.U. after   15 cycles
 E2 =    -0.2092905235D+01 EUMP2 =    -0.67162761855201D+03

 The electronic state is 1-A.
 Alpha  occ. eigenvalues --  -20.60744 -20.60739 -15.85796 -11.31165 -11.27728
 Alpha  occ. eigenvalues --  -11.27701 -11.27457 -11.26755 -11.26650 -11.22664
 Alpha  occ. eigenvalues --  -11.22395 -11.22368 -11.22332 -11.22225 -11.21684
 Alpha  occ. eigenvalues --   -1.59819  -1.39373  -1.19330  -1.09383  -1.08727
 Alpha  occ. eigenvalues --   -1.04743  -1.04462  -0.96946  -0.95565  -0.87965
 Alpha  occ. eigenvalues --   -0.86123  -0.82396  -0.80531  -0.79148  -0.77441
 Alpha  occ. eigenvalues --   -0.72016  -0.71142  -0.70477  -0.66084  -0.64977
 Alpha  occ. eigenvalues --   -0.64756  -0.62262  -0.61682  -0.60285  -0.58514
 Alpha  occ. eigenvalues --   -0.56243  -0.55252  -0.53669  -0.53351  -0.53067
 Alpha  occ. eigenvalues --   -0.52738  -0.50845  -0.48837  -0.48769  -0.48764
 Alpha  occ. eigenvalues --   -0.47569  -0.46687  -0.46618  -0.44778  -0.44718
 Alpha  occ. eigenvalues --   -0.37290  -0.36320
 Alpha virt. eigenvalues --    0.05054   0.11230   0.16462   0.18911   0.22599
 Alpha virt. eigenvalues --    0.24022   0.25068   0.25954   0.26710   0.28457
 Alpha virt. eigenvalues --    0.29425   0.30292   0.30994   0.31220   0.32087

 Mulliken charges:
               1
     1  C   -0.298190
     2  C   -0.300148
     3  C   -0.476016
     4  H    0.146546
     5  H    0.153239
     6  H    0.150792
     7  H    0.154139
     8  H    0.157096
     9  H    0.154660
    10  H    0.162389
    11  C   -0.299776
    12  C   -0.306352
    13  C   -0.484162
    14  H    0.144849
    15  H    0.154016
    16  H    0.152469
    17  H    0.158835
    18  H    0.164669
    19  H    0.148969
    20  H    0.160856
    21  C   -0.174805
    22  C   -0.219307
    23  C   -0.171378
    24  C    0.159055
    25  C   -0.172933
    26  C   -0.222895
    27  H    0.226760
    28  H    0.223135
    29  H    0.275458
    30  H    0.275644
    31  H    0.235292
    32  N    0.487982
    33  O   -0.460370
    34  O   -0.460520
 Sum of Mulliken charges =  -0.00000

 Dipole moment (field-independent basis, Debye):
    X=              5.1472    Y=             -0.1505    Z=              1.5986  Tot=              5.3918
 Quadrupole moment (field-independent basis, Debye-Ang):
   XX=           -127.3378   YY=            -89.8650   ZZ=            -95.2417
   XY=              0.6719   XZ=             -5.8893   YZ=             -1.6558

 Normal termination of Gaussian 16 at Thu May  6 18:54:32 2021.
