 Gaussian 16, Revision A.03,
 Gaussian 16:  EM64L-G16RevA.03 25-Dec-2016

 -------------
 #p 6-31g* mp2
 -------------

 ------------------------------------------------------
 Input file generated by CHIRIPA (05-May-2021 14:55:19)
 ------------------------------------------------------
 Symbolic Z-matrix:
 Charge =  0 Multiplicity = 1

                         Standard orientation:
 ---------------------------------------------------------------------
 Center     Atomic      Atomic             Coordinates (Angstroms)
 Number     Number       Type             X           Y           Z
 ---------------------------------------------------------------------
      1          6           0        1.159171    0.423682    0.386994
      2          6           0        1.623634   -0.699349   -0.305536
      3          6           0        2.987232   -0.855787   -0.571383
      4          6           0        3.862385    0.134643   -0.128159
      5          6           0        3.430381    1.264839    0.564170
      6          6           0        2.062435    1.400470    0.818875
      7          1           0        0.098206    0.537125    0.589183
      8          1           0        0.924440   -1.459529   -0.642136
      9          1           0        3.373939   -1.715235   -1.105447
     10          1           0        4.151533    2.005831    0.887109
     11          1           0        1.704571    2.273675    1.356920
     12          7           0        5.308267   -0.019957   -0.403701
     13          8           0        6.058879    0.866791   -0.002582
     14          8           0        5.663559   -1.024953   -1.015574
     15          6           0       -5.067991    0.039648   -0.476683
     16          6           0       -6.493687    0.409561   -0.066146
     17          6           0       -7.339948    0.897103   -1.242555
     18          1           0       -4.587841    0.913249   -0.938443
     19          1           0       -5.107147   -0.740427   -1.249563
     20          1           0       -6.451822    1.187724    0.706723
     21          1           0       -6.970434   -0.464967    0.394864
     22          1           0       -7.411448    0.122432   -2.012862
     23          1           0       -6.889889    1.784513   -1.699231
     24          1           0       -8.355306    1.156100   -0.926597
     25          6           0       -4.209668   -0.449563    0.688514
     26          6           0       -2.783973   -0.819476    0.277976
     27          6           0       -1.937712   -1.307018    1.454385
     28          1           0       -4.170512    0.330513    1.461393
     29          1           0       -4.689819   -1.323165    1.150273
     30          1           0       -2.307226    0.055051   -0.183034
     31          1           0       -2.825837   -1.597638   -0.494893
     32          1           0       -2.387770   -2.194427    1.911061
     33          1           0       -1.866211   -0.532347    2.224693
     34          1           0       -0.922354   -1.566015    1.138427
 ---------------------------------------------------------------------

 SCF Done:  E(RHF) =  -669.534449677     A.U. after   15 cycles
 E2 =    -0.2092377001D+01 EUMP2 =    -0.67162682667840D+03

 The electronic state is 1-A.
 Alpha  occ. eigenvalues --  -20.60718 -20.60713 -15.85773 -11.31125 -11.27710
 Alpha  occ. eigenvalues --  -11.27705 -11.27361 -11.26698 -11.26685 -11.22899
 Alpha  occ. eigenvalues --  -11.22385 -11.22364 -11.22244 -11.22150 -11.21600
 Alpha  occ. eigenvalues --   -1.59795  -1.39348  -1.19302  -1.09372  -1.08692
 Alpha  occ. eigenvalues --   -1.04712  -1.04489  -0.96939  -0.95521  -0.87940
 Alpha  occ. eigenvalues --   -0.86104  -0.82366  -0.80570  -0.79120  -0.77421
 Alpha  occ. eigenvalues --   -0.71992  -0.71118  -0.70464  -0.65997  -0.64964
 Alpha  occ. eigenvalues --   -0.64760  -0.62093  -0.61892  -0.60299  -0.58515
 Alpha  occ. eigenvalues --   -0.56296  -0.55029  -0.53648  -0.53357  -0.52969
 Alpha  occ. eigenvalues --   -0.52773  -0.50849  -0.48879  -0.48746  -0.48741
 Alpha  occ. eigenvalues --   -0.47615  -0.46666  -0.46558  -0.44757  -0.44717
 Alpha  occ. eigenvalues --   -0.37245  -0.36315
 Alpha virt. eigenvalues --    0.05115   0.11237   0.16592   0.19526   0.22465
 Alpha virt. eigenvalues --    0.24060   0.25282   0.25980   0.26663   0.27084
 Alpha virt. eigenvalues --    0.29294   0.29862   0.30693   0.31304   0.31717

 Mulliken charges:
               1
     1  C   -0.174623
     2  C   -0.224347
     3  C   -0.170800
     4  C    0.157827
     5  C   -0.170410
     6  C   -0.221088
     7  H    0.239415
     8  H    0.224127
     9  H    0.275469
    10  H    0.275323
    11  H    0.223265
    12  N    0.488106
    13  O   -0.460624
    14  O   -0.460643
    15  C   -0.299063
    16  C   -0.300372
    17  C   -0.476206
    18  H    0.149692
    19  H    0.151140
    20  H    0.152487
    21  H    0.153331
    22  H    0.156188
    23  H    0.155702
    24  H    0.162242
    25  C   -0.297832
    26  C   -0.306624
    27  C   -0.487465
    28  H    0.150277
    29  H    0.153425
    30  H    0.147128
    31  H    0.155598
    32  H    0.165043
    33  H    0.155729
    34  H    0.158585
 Sum of Mulliken charges =  -0.00000

 Dipole moment (field-independent basis, Debye):
    X=             -5.3746    Y=              0.5076    Z=              0.9973  Tot=              5.4899
 Quadrupole moment (field-independent basis, Debye-Ang):
   XX=           -133.9946   YY=            -90.1382   ZZ=            -95.0613
   XY=              3.0562   XZ=              4.3659   YZ=              2.8183

 Normal termination of Gaussian 16 at Thu May  6 15:44:15 2021.
