 Gaussian 16, Revision A.03,
 Gaussian 16:  EM64L-G16RevA.03 25-Dec-2016

 -------------
 #p 6-31g* mp2
 -------------

 ------------------------------------------------------
 Input file generated by CHIRIPA (05-May-2021 14:51:08)
 ------------------------------------------------------
 Symbolic Z-matrix:
 Charge =  0 Multiplicity = 1

                         Standard orientation:
 ---------------------------------------------------------------------
 Center     Atomic      Atomic             Coordinates (Angstroms)
 Number     Number       Type             X           Y           Z
 ---------------------------------------------------------------------
      1          6           0       -2.874183    1.066292   -0.415772
      2          6           0       -3.265356    2.109288    0.631666
      3          6           0       -3.055930    3.543460    0.144750
      4          1           0       -1.820878    1.210963   -0.692473
      5          1           0       -3.462969    1.234393   -1.328169
      6          1           0       -2.676998    1.938411    1.542299
      7          1           0       -4.317799    1.961995    0.906047
      8          1           0       -3.655226    3.737682   -0.750640
      9          1           0       -2.005103    3.713963   -0.110772
     10          1           0       -3.341850    4.272731    0.909128
     11          6           0       -3.077892   -0.372261    0.056240
     12          6           0       -2.686719   -1.415257   -0.991199
     13          6           0       -2.896145   -2.849429   -0.504283
     14          1           0       -2.489106   -0.540363    0.968637
     15          1           0       -4.131197   -0.516933    0.332941
     16          1           0       -1.634276   -1.267965   -1.265579
     17          1           0       -3.275077   -1.244380   -1.901832
     18          1           0       -3.946972   -3.019933   -0.248761
     19          1           0       -2.296849   -3.043651    0.391107
     20          1           0       -2.610225   -3.578700   -1.268660
     21          6           0        3.585663   -0.180514   -0.249263
     22          6           0        4.245017    1.147731    0.123566
     23          6           0        5.463197    1.466937   -0.743578
     24          1           0        4.324801   -0.988071   -0.157211
     25          1           0        3.286590   -0.149499   -1.306139
     26          1           0        4.541511    1.114734    1.179794
     27          1           0        3.504171    1.952193    0.030800
     28          1           0        5.179493    1.527011   -1.799279
     29          1           0        6.222727    0.684793   -0.643756
     30          1           0        5.919049    2.420683   -0.459983
     31          6           0        2.366412   -0.513516    0.608795
     32          6           0        1.707058   -1.841762    0.235966
     33          6           0        0.488879   -2.160968    1.103111
     34          1           0        2.665485   -0.544531    1.665671
     35          1           0        1.627274    0.294040    0.516743
     36          1           0        2.447903   -2.646223    0.328732
     37          1           0        1.410563   -1.808764   -0.820262
     38          1           0       -0.270652   -1.378823    1.003290
     39          1           0        0.772581   -2.221042    2.158812
     40          1           0        0.033026   -3.114714    0.819515
 ---------------------------------------------------------------------

 SCF Done:  E(RHF) =  -470.731878125     A.U. after   11 cycles
 E2 =    -0.1584456870D+01 EUMP2 =    -0.47231633499497D+03

 The electronic state is 1-A.
 Alpha  occ. eigenvalues --  -11.21661 -11.21637 -11.21620 -11.21566 -11.21459
 Alpha  occ. eigenvalues --  -11.21421 -11.21397 -11.21349 -11.21096 -11.21090
 Alpha  occ. eigenvalues --  -11.21076 -11.20942  -1.08502  -1.08420  -1.03633
 Alpha  occ. eigenvalues --   -1.03466  -0.96070  -0.95930  -0.87071  -0.86973
 Alpha  occ. eigenvalues --   -0.79690  -0.79549  -0.78312  -0.78231  -0.65349
 Alpha  occ. eigenvalues --   -0.64915  -0.61313  -0.60633  -0.59400  -0.59337
 Alpha  occ. eigenvalues --   -0.57683  -0.57560  -0.55367  -0.55183  -0.52763
 Alpha  occ. eigenvalues --   -0.52655  -0.52487  -0.52308  -0.50021  -0.49837
 Alpha  occ. eigenvalues --   -0.47953  -0.47869  -0.46783  -0.46556  -0.45918
 Alpha  occ. eigenvalues --   -0.45789  -0.45737  -0.45560  -0.43791  -0.43774
 Alpha virt. eigenvalues --    0.20095   0.23231   0.23616   0.25062   0.25799
 Alpha virt. eigenvalues --    0.26388   0.26852   0.27887   0.28127   0.29351
 Alpha virt. eigenvalues --    0.30613   0.30981   0.31584   0.31893   0.32423

 Mulliken charges:
               1
     1  C   -0.298553
     2  C   -0.299659
     3  C   -0.475644
     4  H    0.148464
     5  H    0.149955
     6  H    0.152012
     7  H    0.152217
     8  H    0.155243
     9  H    0.154884
    10  H    0.160421
    11  C   -0.303226
    12  C   -0.301676
    13  C   -0.479472
    14  H    0.152659
    15  H    0.150604
    16  H    0.153250
    17  H    0.152388
    18  H    0.154310
    19  H    0.161610
    20  H    0.158880
    21  C   -0.298366
    22  C   -0.299658
    23  C   -0.475745
    24  H    0.149902
    25  H    0.149614
    26  H    0.152015
    27  H    0.151827
    28  H    0.155278
    29  H    0.155261
    30  H    0.160392
    31  C   -0.298613
    32  C   -0.300681
    33  C   -0.484558
    34  H    0.149843
    35  H    0.148858
    36  H    0.152398
    37  H    0.152531
    38  H    0.161876
    39  H    0.154996
    40  H    0.164162
 Sum of Mulliken charges =  -0.00000

 Dipole moment (field-independent basis, Debye):
    X=              0.0174    Y=             -0.0152    Z=              0.0218  Tot=              0.0317
 Quadrupole moment (field-independent basis, Debye-Ang):
   XX=            -84.3325   YY=            -85.8552   ZZ=            -84.5706
   XY=             -0.8088   XZ=              1.2015   YZ=              0.0368

 Normal termination of Gaussian 16 at Thu May  6 13:13:24 2021.
