 Gaussian 16, Revision A.03,
 Gaussian 16:  EM64L-G16RevA.03 25-Dec-2016

 -------------
 #p 6-31g* mp2
 -------------

 ------------------------------------------------------
 Input file generated by CHIRIPA (05-May-2021 14:53:16)
 ------------------------------------------------------
 Symbolic Z-matrix:
 Charge =  0 Multiplicity = 1

                         Standard orientation:
 ---------------------------------------------------------------------
 Center     Atomic      Atomic             Coordinates (Angstroms)
 Number     Number       Type             X           Y           Z
 ---------------------------------------------------------------------
      1          6           0        3.811731   -0.278422    0.573824
      2          6           0        4.532721   -0.503945   -0.755573
      3          6           0        5.643802   -1.549548   -0.655538
      4          1           0        4.543130    0.033067    1.332095
      5          1           0        3.389206   -1.231798    0.920150
      6          1           0        4.952576    0.449850   -1.099977
      7          1           0        3.799491   -0.814748   -1.510816
      8          1           0        5.237156   -2.514384   -0.335642
      9          1           0        6.396792   -1.242601    0.077531
     10          1           0        6.145937   -1.695024   -1.617077
     11          6           0        2.698274    0.764121    0.489881
     12          6           0        1.977283    0.989644    1.819279
     13          6           0        0.866203    2.035247    1.719243
     14          1           0        3.120798    1.717497    0.143555
     15          1           0        1.966875    0.452632   -0.268390
     16          1           0        2.710514    1.300447    2.574521
     17          1           0        1.557429    0.035849    2.163682
     18          1           0        0.113213    1.728300    0.986175
     19          1           0        1.272849    3.000083    1.399347
     20          1           0        0.364068    2.180722    2.680782
     21          6           0       -0.925486    1.023454   -1.924770
     22          6           0       -2.157838    1.604507   -1.608211
     23          6           0       -3.061826    0.941395   -0.772964
     24          6           0       -2.699343   -0.307012   -0.269600
     25          6           0       -1.479100   -0.912064   -0.566603
     26          6           0       -0.590642   -0.230766   -1.403874
     27          1           0       -0.229278    1.545638   -2.574395
     28          1           0       -2.420553    2.578439   -2.011301
     29          1           0       -4.022559    1.368167   -0.511667
     30          1           0       -1.245348   -1.884101   -0.149563
     31          1           0        0.365717   -0.684437   -1.648016
     32          7           0       -3.648135   -1.018645    0.615709
     33          8           0       -3.305034   -2.117503    1.046325
     34          8           0       -4.716934   -0.464090    0.862235
 ---------------------------------------------------------------------

 SCF Done:  E(RHF) =  -669.534732853     A.U. after   15 cycles
 E2 =    -0.2093890538D+01 EUMP2 =    -0.67162862339139D+03

 The electronic state is 1-A.
 Alpha  occ. eigenvalues --  -20.60835 -20.60830 -15.85890 -11.31297 -11.27868
 Alpha  occ. eigenvalues --  -11.27863 -11.27605 -11.26882 -11.26871 -11.22260
 Alpha  occ. eigenvalues --  -11.21959 -11.21921 -11.21874 -11.21579 -11.21206
 Alpha  occ. eigenvalues --   -1.59909  -1.39462  -1.19482  -1.08968  -1.08846
 Alpha  occ. eigenvalues --   -1.04889  -1.03965  -0.96406  -0.95686  -0.87424
 Alpha  occ. eigenvalues --   -0.86282  -0.82517  -0.80047  -0.78791  -0.77557
 Alpha  occ. eigenvalues --   -0.72107  -0.71232  -0.70565  -0.65690  -0.65124
 Alpha  occ. eigenvalues --   -0.64830  -0.62234  -0.61380  -0.59783  -0.58025
 Alpha  occ. eigenvalues --   -0.55729  -0.55360  -0.53294  -0.53075  -0.53015
 Alpha  occ. eigenvalues --   -0.52739  -0.50334  -0.48872  -0.48860  -0.48338
 Alpha  occ. eigenvalues --   -0.47079  -0.46291  -0.46226  -0.44859  -0.44241
 Alpha  occ. eigenvalues --   -0.37402  -0.36452
 Alpha virt. eigenvalues --    0.04971   0.11033   0.16412   0.19866   0.22828
 Alpha virt. eigenvalues --    0.23834   0.25143   0.26545   0.27382   0.28215
 Alpha virt. eigenvalues --    0.29146   0.30618   0.31354   0.31477   0.31788

 Mulliken charges:
               1
     1  C   -0.298702
     2  C   -0.298614
     3  C   -0.475854
     4  H    0.152941
     5  H    0.149571
     6  H    0.152858
     7  H    0.143481
     8  H    0.156189
     9  H    0.157612
    10  H    0.160985
    11  C   -0.302116
    12  C   -0.298464
    13  C   -0.482834
    14  H    0.148749
    15  H    0.143544
    16  H    0.153383
    17  H    0.153081
    18  H    0.163063
    19  H    0.151482
    20  H    0.162671
    21  C   -0.170866
    22  C   -0.217975
    23  C   -0.170486
    24  C    0.159140
    25  C   -0.172682
    26  C   -0.217401
    27  H    0.227423
    28  H    0.224460
    29  H    0.276319
    30  H    0.276033
    31  H    0.224987
    32  N    0.488151
    33  O   -0.460171
    34  O   -0.459957
 Sum of Mulliken charges =  -0.00000

 Dipole moment (field-independent basis, Debye):
    X=              3.2902    Y=              2.5111    Z=             -3.1010  Tot=              5.1718
 Quadrupole moment (field-independent basis, Debye-Ang):
   XX=           -110.9979   YY=            -93.7766   ZZ=            -93.6423
   XY=             -9.7494   XZ=              8.3151   YZ=             -0.1441

 Normal termination of Gaussian 16 at Thu May  6 01:11:34 2021.
