 Gaussian 16, Revision A.03,
 Gaussian 16:  EM64L-G16RevA.03 25-Dec-2016

 -------------
 #p 6-31g* mp2
 -------------

 ------------------------------------------------------
 Input file generated by CHIRIPA (05-May-2021 14:55:21)
 ------------------------------------------------------
 Symbolic Z-matrix:
 Charge =  0 Multiplicity = 1

                         Standard orientation:
 ---------------------------------------------------------------------
 Center     Atomic      Atomic             Coordinates (Angstroms)
 Number     Number       Type             X           Y           Z
 ---------------------------------------------------------------------
      1          6           0       -0.602767    0.949056    1.796295
      2          6           0       -1.842149    1.554769    1.564856
      3          6           0       -2.813247    0.911846    0.791444
      4          6           0       -2.509973   -0.341738    0.262442
      5          6           0       -1.284458   -0.971150    0.475145
      6          6           0       -0.328360   -0.309751    1.251661
      7          1           0        0.145779    1.455670    2.398306
      8          1           0       -2.058020    2.532320    1.986566
      9          1           0       -3.780952    1.357893    0.596490
     10          1           0       -1.098383   -1.946204    0.041480
     11          1           0        0.633299   -0.782554    1.429745
     12          7           0       -3.530091   -1.032152   -0.557978
     13          8           0       -3.238324   -2.136069   -1.012813
     14          8           0       -4.602109   -0.456307   -0.730653
     15          6           0        2.613235    0.950191   -0.461950
     16          6           0        1.539236    1.103722   -1.539419
     17          6           0        0.778999    2.425964   -1.432130
     18          1           0        2.143511    1.025408    0.528326
     19          1           0        3.320349    1.787903   -0.536932
     20          1           0        0.835142    0.265227   -1.463313
     21          1           0        2.011543    1.027939   -2.527244
     22          1           0        1.464818    3.273702   -1.530091
     23          1           0        0.281733    2.506655   -0.460114
     24          1           0        0.016152    2.514866   -2.211887
     25          6           0        3.381889   -0.366640   -0.556053
     26          6           0        4.455888   -0.520172    0.521416
     27          6           0        5.216124   -1.842414    0.414127
     28          1           0        2.674775   -1.204353   -0.481070
     29          1           0        3.851613   -0.441858   -1.546328
     30          1           0        3.983580   -0.444389    1.509241
     31          1           0        5.159982    0.318325    0.445310
     32          1           0        5.713391   -1.923105   -0.557889
     33          1           0        4.530306   -2.690151    0.512088
     34          1           0        5.978971   -1.931316    1.193884
 ---------------------------------------------------------------------

 SCF Done:  E(RHF) =  -669.533067284     A.U. after   15 cycles
 E2 =    -0.2096571924D+01 EUMP2 =    -0.67162963920732D+03

 The electronic state is 1-A.
 Alpha  occ. eigenvalues --  -20.60848 -20.60843 -15.85903 -11.31317 -11.27876
 Alpha  occ. eigenvalues --  -11.27867 -11.27608 -11.26898 -11.26878 -11.22355
 Alpha  occ. eigenvalues --  -11.22120 -11.22018 -11.21881 -11.21678 -11.21248
 Alpha  occ. eigenvalues --   -1.59923  -1.39475  -1.19503  -1.09119  -1.08842
 Alpha  occ. eigenvalues --   -1.04911  -1.04033  -0.96503  -0.95716  -0.87523
 Alpha  occ. eigenvalues --   -0.86301  -0.82543  -0.80125  -0.78883  -0.77581
 Alpha  occ. eigenvalues --   -0.72122  -0.71247  -0.70612  -0.65958  -0.65148
 Alpha  occ. eigenvalues --   -0.64747  -0.62226  -0.61516  -0.59870  -0.58112
 Alpha  occ. eigenvalues --   -0.55870  -0.55398  -0.53192  -0.53148  -0.52979
 Alpha  occ. eigenvalues --   -0.52833  -0.50478  -0.48884  -0.48873  -0.48410
 Alpha  occ. eigenvalues --   -0.47204  -0.46417  -0.46363  -0.44870  -0.44329
 Alpha  occ. eigenvalues --   -0.37365  -0.36419
 Alpha virt. eigenvalues --    0.04904   0.11003   0.16286   0.19139   0.22934
 Alpha virt. eigenvalues --    0.24026   0.25478   0.25725   0.27091   0.28704
 Alpha virt. eigenvalues --    0.29539   0.30648   0.31227   0.31448   0.31734

 Mulliken charges:
               1
     1  C   -0.173175
     2  C   -0.217895
     3  C   -0.170049
     4  C    0.159559
     5  C   -0.174235
     6  C   -0.214414
     7  H    0.227192
     8  H    0.224702
     9  H    0.276313
    10  H    0.276111
    11  H    0.228288
    12  N    0.488064
    13  O   -0.460074
    14  O   -0.459894
    15  C   -0.299120
    16  C   -0.300100
    17  C   -0.480187
    18  H    0.138195
    19  H    0.151881
    20  H    0.155013
    21  H    0.153756
    22  H    0.152603
    23  H    0.156798
    24  H    0.162834
    25  C   -0.299935
    26  C   -0.299551
    27  C   -0.475634
    28  H    0.143270
    29  H    0.155480
    30  H    0.144571
    31  H    0.155001
    32  H    0.158290
    33  H    0.154372
    34  H    0.161970
 Sum of Mulliken charges =  -0.00000

 Dipole moment (field-independent basis, Debye):
    X=              3.5443    Y=              2.4094    Z=              2.8587  Tot=              5.1516
 Quadrupole moment (field-independent basis, Debye-Ang):
   XX=           -110.7779   YY=            -94.5194   ZZ=            -93.4556
   XY=             -9.4871   XZ=             -7.5271   YZ=              0.1400

 Normal termination of Gaussian 16 at Thu May  6 14:11:56 2021.
