 Gaussian 16, Revision A.03,
 Gaussian 16:  EM64L-G16RevA.03 25-Dec-2016

 -------------
 #p 6-31g* mp2
 -------------

 ------------------------------------------------------
 Input file generated by CHIRIPA (05-May-2021 14:53:13)
 ------------------------------------------------------
 Symbolic Z-matrix:
 Charge =  0 Multiplicity = 1

                         Standard orientation:
 ---------------------------------------------------------------------
 Center     Atomic      Atomic             Coordinates (Angstroms)
 Number     Number       Type             X           Y           Z
 ---------------------------------------------------------------------
      1          6           0       -3.607745    1.040533    0.079792
      2          6           0       -2.219077    0.914602    0.707268
      3          6           0       -1.575257    2.271205    0.995224
      4          1           0       -3.531036    1.616853   -0.852365
      5          1           0       -4.255419    1.619364    0.752747
      6          1           0       -1.574610    0.334999    0.033964
      7          1           0       -2.299072    0.338352    1.637941
      8          1           0       -2.194945    2.853028    1.685203
      9          1           0       -1.466367    2.849657    0.072112
     10          1           0       -0.583274    2.157752    1.443506
     11          6           0       -4.264297   -0.307203   -0.213934
     12          6           0       -5.652965   -0.181272   -0.841411
     13          6           0       -6.296785   -1.537874   -1.129367
     14          1           0       -3.616624   -0.886034   -0.886889
     15          1           0       -4.341006   -0.883522    0.718223
     16          1           0       -5.572971    0.394979   -1.772084
     17          1           0       -6.297432    0.398331   -0.168106
     18          1           0       -6.405676   -2.116327   -0.206254
     19          1           0       -5.677098   -2.119698   -1.819345
     20          1           0       -7.288769   -1.424422   -1.577649
     21          6           0        4.800572    0.684558   -1.511413
     22          6           0        4.824570   -0.679448   -1.202493
     23          6           0        3.873448   -1.228320   -0.337246
     24          6           0        2.908196   -0.380331    0.203583
     25          6           0        2.858015    0.982591   -0.084885
     26          6           0        3.819101    1.509769   -0.952610
     27          1           0        5.543296    1.102509   -2.184521
     28          1           0        5.585626   -1.322705   -1.634996
     29          1           0        3.868846   -2.280820   -0.081046
     30          1           0        2.087065    1.598668    0.361771
     31          1           0        3.798034    2.569439   -1.190735
     32          7           0        1.896011   -0.949915    1.120893
     33          8           0        1.056001   -0.181599    1.584263
     34          8           0        1.961837   -2.153884    1.359140
 ---------------------------------------------------------------------

 SCF Done:  E(RHF) =  -669.535941920     A.U. after   15 cycles
 E2 =    -0.2091695998D+01 EUMP2 =    -0.67162763791809D+03

 The electronic state is 1-A.
 Alpha  occ. eigenvalues --  -20.60929 -20.60920 -15.85955 -11.31274 -11.27839
 Alpha  occ. eigenvalues --  -11.27832 -11.27577 -11.26847 -11.26836 -11.21073
 Alpha  occ. eigenvalues --  -11.20701 -11.20610 -11.20594 -11.20476 -11.20192
 Alpha  occ. eigenvalues --   -1.59986  -1.39543  -1.19444  -1.08850  -1.07684
 Alpha  occ. eigenvalues --   -1.04840  -1.02770  -0.95700  -0.95260  -0.86302
 Alpha  occ. eigenvalues --   -0.86239  -0.82528  -0.78842  -0.77600  -0.77438
 Alpha  occ. eigenvalues --   -0.72189  -0.71297  -0.70554  -0.65103  -0.64844
 Alpha  occ. eigenvalues --   -0.64328  -0.62192  -0.60186  -0.58613  -0.56811
 Alpha  occ. eigenvalues --   -0.55345  -0.54593  -0.53173  -0.52936  -0.51960
 Alpha  occ. eigenvalues --   -0.51686  -0.49249  -0.48949  -0.48919  -0.47146
 Alpha  occ. eigenvalues --   -0.45898  -0.45160  -0.44954  -0.44738  -0.43031
 Alpha  occ. eigenvalues --   -0.37424  -0.36441
 Alpha virt. eigenvalues --    0.04934   0.11209   0.16418   0.20930   0.23445
 Alpha virt. eigenvalues --    0.24368   0.26826   0.27363   0.27633   0.28275
 Alpha virt. eigenvalues --    0.29230   0.30536   0.31618   0.32066   0.32504

 Mulliken charges:
               1
     1  C   -0.299216
     2  C   -0.291512
     3  C   -0.484354
     4  H    0.144371
     5  H    0.146790
     6  H    0.152528
     7  H    0.160782
     8  H    0.151520
     9  H    0.144109
    10  H    0.173246
    11  C   -0.297456
    12  C   -0.298920
    13  C   -0.475250
    14  H    0.148930
    15  H    0.151786
    16  H    0.149633
    17  H    0.150886
    18  H    0.155733
    19  H    0.154512
    20  H    0.158106
    21  C   -0.170432
    22  C   -0.218736
    23  C   -0.170653
    24  C    0.157034
    25  C   -0.171426
    26  C   -0.219658
    27  H    0.225940
    28  H    0.223729
    29  H    0.275744
    30  H    0.279060
    31  H    0.224220
    32  N    0.492376
    33  O   -0.464303
    34  O   -0.459118
 Sum of Mulliken charges =  -0.00000

 Dipole moment (field-independent basis, Debye):
    X=              3.7996    Y=              1.8673    Z=             -3.1096  Tot=              5.2530
 Quadrupole moment (field-independent basis, Debye-Ang):
   XX=            -74.6465   YY=            -93.5796   ZZ=            -95.9286
   XY=              2.1851   XZ=            -10.1172   YZ=              1.8815

 Normal termination of Gaussian 16 at Wed May  5 21:46:23 2021.
