 Gaussian 16, Revision A.03,
 Gaussian 16:  EM64L-G16RevA.03 25-Dec-2016

 -------------
 #p 6-31g* mp2
 -------------

 ------------------------------------------------------
 Input file generated by CHIRIPA (05-May-2021 14:55:21)
 ------------------------------------------------------
 Symbolic Z-matrix:
 Charge =  0 Multiplicity = 1

                         Standard orientation:
 ---------------------------------------------------------------------
 Center     Atomic      Atomic             Coordinates (Angstroms)
 Number     Number       Type             X           Y           Z
 ---------------------------------------------------------------------
      1          6           0        0.533659   -1.397285    0.066962
      2          6           0        1.448574   -1.709924   -0.943835
      3          6           0        2.720736   -1.130232   -0.954169
      4          6           0        3.046117   -0.238042    0.066328
      5          6           0        2.156583    0.093588    1.087132
      6          6           0        0.889956   -0.498112    1.077438
      7          1           0       -0.452437   -1.852268    0.067211
      8          1           0        1.174607   -2.407893   -1.729854
      9          1           0        3.448461   -1.354495   -1.724586
     10          1           0        2.458540    0.792944    1.857289
     11          1           0        0.181458   -0.253449    1.863705
     12          7           0        4.389969    0.382008    0.065989
     13          8           0        4.652270    1.165001    0.976350
     14          8           0        5.155533    0.073270   -0.844631
     15          6           0       -3.225819    0.968027   -0.469641
     16          6           0       -3.353234    2.367071    0.134035
     17          6           0       -2.568039    3.421510   -0.646620
     18          1           0       -2.164635    0.685844   -0.504370
     19          1           0       -3.577097    0.992016   -1.510518
     20          1           0       -3.003115    2.340145    1.173895
     21          1           0       -4.414253    2.645878    0.167507
     22          1           0       -2.921858    3.477675   -1.681153
     23          1           0       -1.502702    3.170205   -0.669047
     24          1           0       -2.673075    4.414167   -0.197779
     25          6           0       -4.005244   -0.097028    0.299699
     26          6           0       -3.877830   -1.496073   -0.303978
     27          6           0       -4.663024   -2.550511    0.476677
     28          1           0       -3.653968   -0.121017    1.340575
     29          1           0       -5.066429    0.185154    0.334427
     30          1           0       -2.816811   -1.774879   -0.337449
     31          1           0       -4.227948   -1.469146   -1.343838
     32          1           0       -5.728362   -2.299207    0.499104
     33          1           0       -4.309206   -2.606677    1.511210
     34          1           0       -4.557988   -3.543169    0.027837
 ---------------------------------------------------------------------

 SCF Done:  E(RHF) =  -669.535583619     A.U. after   15 cycles
 E2 =    -0.2091871432D+01 EUMP2 =    -0.67162745505059D+03

 The electronic state is 1-A.
 Alpha  occ. eigenvalues --  -20.60788 -20.60783 -15.85843 -11.31227 -11.27796
 Alpha  occ. eigenvalues --  -11.27788 -11.27527 -11.26827 -11.26801 -11.22715
 Alpha  occ. eigenvalues --  -11.22296 -11.22219 -11.22111 -11.21995 -11.21509
 Alpha  occ. eigenvalues --   -1.59864  -1.39416  -1.19400  -1.09274  -1.08790
 Alpha  occ. eigenvalues --   -1.04804  -1.04318  -0.96732  -0.95624  -0.87747
 Alpha  occ. eigenvalues --   -0.86199  -0.82457  -0.80409  -0.79063  -0.77498
 Alpha  occ. eigenvalues --   -0.72060  -0.71187  -0.70530  -0.65928  -0.65050
 Alpha  occ. eigenvalues --   -0.64793  -0.62148  -0.61732  -0.60120  -0.58344
 Alpha  occ. eigenvalues --   -0.56020  -0.55328  -0.53420  -0.53170  -0.53101
 Alpha  occ. eigenvalues --   -0.52893  -0.50678  -0.48828  -0.48814  -0.48692
 Alpha  occ. eigenvalues --   -0.47463  -0.46586  -0.46517  -0.44818  -0.44570
 Alpha  occ. eigenvalues --   -0.37363  -0.36406
 Alpha virt. eigenvalues --    0.05008   0.11188   0.16407   0.18966   0.22866
 Alpha virt. eigenvalues --    0.23491   0.25233   0.25859   0.27054   0.27798
 Alpha virt. eigenvalues --    0.29200   0.30347   0.31017   0.31121   0.32328

 Mulliken charges:
               1
     1  C   -0.176294
     2  C   -0.221174
     3  C   -0.170636
     4  C    0.158574
     5  C   -0.170840
     6  C   -0.222070
     7  H    0.236952
     8  H    0.224261
     9  H    0.275840
    10  H    0.275800
    11  H    0.223858
    12  N    0.487977
    13  O   -0.460297
    14  O   -0.460212
    15  C   -0.301964
    16  C   -0.299493
    17  C   -0.476618
    18  H    0.148448
    19  H    0.152027
    20  H    0.149549
    21  H    0.153840
    22  H    0.156501
    23  H    0.157190
    24  H    0.162513
    25  C   -0.298443
    26  C   -0.303841
    27  C   -0.475786
    28  H    0.145996
    29  H    0.154230
    30  H    0.141562
    31  H    0.156775
    32  H    0.159752
    33  H    0.154609
    34  H    0.161417
 Sum of Mulliken charges =  -0.00000

 Dipole moment (field-independent basis, Debye):
    X=             -4.8682    Y=             -2.1235    Z=             -0.0482  Tot=              5.3114
 Quadrupole moment (field-independent basis, Debye-Ang):
   XX=           -122.7567   YY=            -93.5380   ZZ=            -91.3719
   XY=             -6.8742   XZ=             -0.5923   YZ=              2.5674

 Normal termination of Gaussian 16 at Wed May  5 23:48:48 2021.
