 Gaussian 16, Revision A.03,
 Gaussian 16:  EM64L-G16RevA.03 25-Dec-2016

 -------------
 #p 6-31g* mp2
 -------------

 ------------------------------------------------------
 Input file generated by CHIRIPA (05-May-2021 14:55:24)
 ------------------------------------------------------
 Symbolic Z-matrix:
 Charge =  0 Multiplicity = 1

                         Standard orientation:
 ---------------------------------------------------------------------
 Center     Atomic      Atomic             Coordinates (Angstroms)
 Number     Number       Type             X           Y           Z
 ---------------------------------------------------------------------
      1          6           0        0.243988   -2.368465    0.849697
      2          6           0        0.500045   -1.226311    1.615489
      3          6           0        1.476710   -0.308689    1.217188
      4          6           0        2.181650   -0.565714    0.042331
      5          6           0        1.949621   -1.694470   -0.742119
      6          6           0        0.968316   -2.598494   -0.324593
      7          1           0       -0.516512   -3.076015    1.166574
      8          1           0       -0.060931   -1.045092    2.527909
      9          1           0        1.695313    0.583647    1.791092
     10          1           0        2.525131   -1.847984   -1.646906
     11          1           0        0.771594   -3.484656   -0.921304
     12          7           0        3.218058    0.398534   -0.389509
     13          8           0        3.825349    0.149188   -1.428576
     14          8           0        3.403479    1.385399    0.319260
     15          6           0       -2.096685    1.325166    0.299248
     16          6           0       -1.257064    2.344277   -0.471748
     17          6           0       -0.307331    3.131922    0.431256
     18          1           0       -2.674093    1.846911    1.074701
     19          1           0       -1.426486    0.629778    0.823332
     20          1           0       -1.928651    3.036694   -0.995338
     21          1           0       -0.681732    1.820069   -1.245581
     22          1           0        0.385864    2.456779    0.943372
     23          1           0       -0.868138    3.680316    1.195036
     24          1           0        0.283138    3.854683   -0.140428
     25          6           0       -3.051060    0.529895   -0.589817
     26          6           0       -3.890681   -0.489216    0.181180
     27          6           0       -4.840413   -1.276861   -0.721825
     28          1           0       -3.721258    1.225283   -1.113902
     29          1           0       -2.473651    0.008150   -1.365270
     30          1           0       -4.466013    0.034991    0.955012
     31          1           0       -3.219094   -1.181633    0.704769
     32          1           0       -4.279606   -1.825254   -1.485606
     33          1           0       -5.533608   -0.601718   -1.233942
     34          1           0       -5.430882   -1.999622   -0.150141
 ---------------------------------------------------------------------

 SCF Done:  E(RHF) =  -669.534272005     A.U. after   15 cycles
 E2 =    -0.2095306420D+01 EUMP2 =    -0.67162957842491D+03

 The electronic state is 1-A.
 Alpha  occ. eigenvalues --  -20.60894 -20.60882 -15.85936 -11.31355 -11.27906
 Alpha  occ. eigenvalues --  -11.27902 -11.27653 -11.26934 -11.26922 -11.22080
 Alpha  occ. eigenvalues --  -11.21632 -11.21568 -11.21531 -11.21423 -11.20903
 Alpha  occ. eigenvalues --   -1.59958  -1.39510  -1.19533  -1.08914  -1.08631
 Alpha  occ. eigenvalues --   -1.04948  -1.03719  -0.96152  -0.95734  -0.87176
 Alpha  occ. eigenvalues --   -0.86326  -0.82569  -0.79806  -0.78469  -0.77594
 Alpha  occ. eigenvalues --   -0.72153  -0.71281  -0.70629  -0.65304  -0.65176
 Alpha  occ. eigenvalues --   -0.64941  -0.62314  -0.61115  -0.59536  -0.57762
 Alpha  occ. eigenvalues --   -0.55520  -0.55366  -0.53293  -0.53064  -0.52823
 Alpha  occ. eigenvalues --   -0.52529  -0.50102  -0.48918  -0.48907  -0.48114
 Alpha  occ. eigenvalues --   -0.46860  -0.45990  -0.45920  -0.44872  -0.43943
 Alpha  occ. eigenvalues --   -0.37480  -0.36409
 Alpha virt. eigenvalues --    0.04872   0.10943   0.16298   0.20450   0.22889
 Alpha virt. eigenvalues --    0.23886   0.25893   0.26606   0.26800   0.28230
 Alpha virt. eigenvalues --    0.29044   0.30278   0.31215   0.31499   0.31860

 Mulliken charges:
               1
     1  C   -0.170597
     2  C   -0.221238
     3  C   -0.169765
     4  C    0.159768
     5  C   -0.171338
     6  C   -0.218451
     7  H    0.227046
     8  H    0.226247
     9  H    0.277838
    10  H    0.276248
    11  H    0.224356
    12  N    0.488305
    13  O   -0.459714
    14  O   -0.459846
    15  C   -0.305720
    16  C   -0.299849
    17  C   -0.477471
    18  H    0.146948
    19  H    0.152967
    20  H    0.152271
    21  H    0.152734
    22  H    0.152938
    23  H    0.152164
    24  H    0.168428
    25  C   -0.297091
    26  C   -0.298327
    27  C   -0.475703
    28  H    0.150931
    29  H    0.150079
    30  H    0.152677
    31  H    0.142243
    32  H    0.153921
    33  H    0.158011
    34  H    0.158987
 Sum of Mulliken charges =  -0.00000

 Dipole moment (field-independent basis, Debye):
    X=             -3.5015    Y=             -3.3914    Z=              1.4670  Tot=              5.0906
 Quadrupole moment (field-independent basis, Debye-Ang):
   XX=           -111.4418   YY=            -89.4787   ZZ=            -91.9293
   XY=             -6.9714   XZ=              1.9358   YZ=              1.2270

 Normal termination of Gaussian 16 at Wed May  5 19:09:24 2021.
