 Gaussian 16, Revision A.03,
 Gaussian 16:  EM64L-G16RevA.03 25-Dec-2016

 -------------
 #p 6-31g* mp2
 -------------

 ------------------------------------------------------
 Input file generated by CHIRIPA (05-May-2021 14:51:11)
 ------------------------------------------------------
 Symbolic Z-matrix:
 Charge =  0 Multiplicity = 1

                         Standard orientation:
 ---------------------------------------------------------------------
 Center     Atomic      Atomic             Coordinates (Angstroms)
 Number     Number       Type             X           Y           Z
 ---------------------------------------------------------------------
      1          6           0        4.763241   -0.211334   -0.328764
      2          6           0        5.583087   -1.197279    0.504153
      3          6           0        6.889441   -1.604238   -0.178210
      4          1           0        4.543144   -0.661479   -1.306451
      5          1           0        5.369254    0.683768   -0.526083
      6          1           0        4.975221   -2.089669    0.701013
      7          1           0        5.801095   -0.744810    1.480042
      8          1           0        7.518539   -0.726918   -0.360267
      9          1           0        6.687973   -2.079418   -1.143723
     10          1           0        7.459712   -2.309372    0.434519
     11          6           0        3.454418    0.204938    0.340138
     12          6           0        2.634572    1.190883   -0.492778
     13          6           0        1.328218    1.597843    0.189584
     14          1           0        2.848405   -0.690164    0.537457
     15          1           0        3.674515    0.655083    1.317825
     16          1           0        2.416564    0.738414   -1.468668
     17          1           0        3.242438    2.083273   -0.689639
     18          1           0        1.529686    2.073022    1.155097
     19          1           0        0.699120    0.720522    0.371641
     20          1           0        0.757947    2.302977   -0.423145
     21          6           0       -4.183838   -0.750026   -0.107954
     22          6           0       -5.610250   -1.253266    0.115845
     23          6           0       -5.744316   -2.762052   -0.092440
     24          1           0       -3.865431   -1.010716   -1.126582
     25          1           0       -3.504829   -1.277341    0.576356
     26          1           0       -6.286565   -0.724165   -0.567721
     27          1           0       -5.925368   -0.991180    1.133995
     28          1           0       -5.092810   -3.305825    0.599262
     29          1           0       -5.456060   -3.037293   -1.112123
     30          1           0       -6.772016   -3.100359    0.072610
     31          6           0       -4.033821    0.756422    0.096580
     32          6           0       -2.607409    1.259661   -0.127220
     33          6           0       -2.473344    2.768448    0.081066
     34          1           0       -4.712830    1.283737   -0.587730
     35          1           0       -4.352228    1.017111    1.115208
     36          1           0       -2.292291    0.997575   -1.145369
     37          1           0       -1.931094    0.730560    0.556348
     38          1           0       -2.761599    3.043688    1.100749
     39          1           0       -3.124849    3.312221   -0.610636
     40          1           0       -1.445643    3.106754   -0.083984
 ---------------------------------------------------------------------

 SCF Done:  E(RHF) =  -470.732767294     A.U. after   11 cycles
 E2 =    -0.1582893473D+01 EUMP2 =    -0.47231566076763D+03

 The electronic state is 1-A.
 Alpha  occ. eigenvalues --  -11.21603 -11.21595 -11.21584 -11.21516 -11.21406
 Alpha  occ. eigenvalues --  -11.21370 -11.21347 -11.21305 -11.21072 -11.21061
 Alpha  occ. eigenvalues --  -11.21046 -11.20956  -1.08434  -1.08385  -1.03555
 Alpha  occ. eigenvalues --   -1.03457  -0.96034  -0.95882  -0.87037  -0.86917
 Alpha  occ. eigenvalues --   -0.79619  -0.79528  -0.78257  -0.78187  -0.65067
 Alpha  occ. eigenvalues --   -0.65014  -0.60959  -0.60852  -0.59652  -0.59091
 Alpha  occ. eigenvalues --   -0.57680  -0.57450  -0.55276  -0.55204  -0.52970
 Alpha  occ. eigenvalues --   -0.52492  -0.52424  -0.52135  -0.49963  -0.49844
 Alpha  occ. eigenvalues --   -0.48019  -0.47761  -0.46691  -0.46512  -0.45820
 Alpha  occ. eigenvalues --   -0.45746  -0.45703  -0.45595  -0.43886  -0.43608
 Alpha virt. eigenvalues --    0.22004   0.23002   0.23438   0.24934   0.25960
 Alpha virt. eigenvalues --    0.26757   0.26854   0.27226   0.27747   0.29063
 Alpha virt. eigenvalues --    0.29692   0.30736   0.31591   0.31725   0.32402

 Mulliken charges:
               1
     1  C   -0.298228
     2  C   -0.299620
     3  C   -0.475699
     4  H    0.149670
     5  H    0.149537
     6  H    0.151912
     7  H    0.151916
     8  H    0.155186
     9  H    0.155190
    10  H    0.160249
    11  C   -0.298733
    12  C   -0.299737
    13  C   -0.480073
    14  H    0.149476
    15  H    0.149579
    16  H    0.151985
    17  H    0.151726
    18  H    0.154892
    19  H    0.158514
    20  H    0.163018
    21  C   -0.298163
    22  C   -0.299579
    23  C   -0.475680
    24  H    0.149415
    25  H    0.149096
    26  H    0.151933
    27  H    0.151947
    28  H    0.155069
    29  H    0.155075
    30  H    0.160212
    31  C   -0.298286
    32  C   -0.300381
    33  C   -0.480252
    34  H    0.149282
    35  H    0.149516
    36  H    0.151155
    37  H    0.154574
    38  H    0.154779
    39  H    0.154221
    40  H    0.165305
 Sum of Mulliken charges =  -0.00000

 Dipole moment (field-independent basis, Debye):
    X=              0.0246    Y=              0.0024    Z=              0.0059  Tot=              0.0254
 Quadrupole moment (field-independent basis, Debye-Ang):
   XX=            -85.7384   YY=            -85.5052   ZZ=            -83.7360
   XY=              0.4806   XZ=              0.7442   YZ=             -0.0511

 Normal termination of Gaussian 16 at Wed May  5 18:16:32 2021.
