 Gaussian 16, Revision A.03,
 Gaussian 16:  EM64L-G16RevA.03 25-Dec-2016

 -------------
 #p 6-31g* mp2
 -------------

 ------------------------------------------------------
 Input file generated by CHIRIPA (05-May-2021 14:51:10)
 ------------------------------------------------------
 Symbolic Z-matrix:
 Charge =  0 Multiplicity = 1

                         Standard orientation:
 ---------------------------------------------------------------------
 Center     Atomic      Atomic             Coordinates (Angstroms)
 Number     Number       Type             X           Y           Z
 ---------------------------------------------------------------------
      1          6           0        1.739869    1.585398    0.429207
      2          6           0        1.153780    2.733072   -0.393794
      3          6           0        0.282308    3.673216    0.439547
      4          1           0        0.920208    1.016566    0.889133
      5          1           0        2.333450    2.001453    1.255012
      6          1           0        0.562616    2.314969   -1.218616
      7          1           0        1.974924    3.299123   -0.851970
      8          1           0        0.864188    4.117635    1.253494
      9          1           0       -0.556144    3.127890    0.884764
     10          1           0       -0.126401    4.486272   -0.168529
     11          6           0        2.613446    0.636955   -0.389967
     12          6           0        3.199534   -0.510719    0.433033
     13          6           0        4.071007   -1.450864   -0.400308
     14          1           0        2.019865    0.220899   -1.215773
     15          1           0        3.433106    1.205787   -0.849894
     16          1           0        2.378390   -1.076770    0.891209
     17          1           0        3.790698   -0.092617    1.257855
     18          1           0        4.909459   -0.905537   -0.845525
     19          1           0        3.489127   -1.895282   -1.214255
     20          1           0        4.479716   -2.263920    0.207768
     21          6           0       -2.391734   -0.422053   -0.269185
     22          6           0       -3.800757   -0.028627    0.175623
     23          6           0       -4.216699    1.352546   -0.331473
     24          1           0       -1.677255    0.331934    0.088542
     25          1           0       -2.342616   -0.403299   -1.366742
     26          1           0       -3.847589   -0.049462    1.271976
     27          1           0       -4.511941   -0.783740   -0.183040
     28          1           0       -4.198207    1.382832   -1.425704
     29          1           0       -3.530080    2.121282    0.037579
     30          1           0       -5.227164    1.613681   -0.001884
     31          6           0       -1.961580   -1.800301    0.229946
     32          6           0       -0.552557   -2.193725   -0.214862
     33          6           0       -0.136615   -3.574898    0.292234
     34          1           0       -2.010698   -1.819054    1.327503
     35          1           0       -2.676059   -2.554287   -0.127781
     36          1           0        0.158627   -1.438613    0.143800
     37          1           0       -0.505726   -2.172892   -1.311215
     38          1           0       -0.823234   -4.343636   -0.076818
     39          1           0       -0.155108   -3.605185    1.386465
     40          1           0        0.873850   -3.836034   -0.037355
 ---------------------------------------------------------------------

 SCF Done:  E(RHF) =  -470.732969855     A.U. after   11 cycles
 E2 =    -0.1585048498D+01 EUMP2 =    -0.47231801835299D+03

 The electronic state is 1-A.
 Alpha  occ. eigenvalues --  -11.21649 -11.21645 -11.21610 -11.21585 -11.21473
 Alpha  occ. eigenvalues --  -11.21420 -11.21412 -11.21347 -11.21124 -11.21111
 Alpha  occ. eigenvalues --  -11.21100 -11.21073  -1.08531  -1.08411  -1.03614
 Alpha  occ. eigenvalues --   -1.03512  -0.96036  -0.95989  -0.87059  -0.86998
 Alpha  occ. eigenvalues --   -0.79675  -0.79585  -0.78366  -0.78215  -0.65454
 Alpha  occ. eigenvalues --   -0.64793  -0.61223  -0.60752  -0.59396  -0.59329
 Alpha  occ. eigenvalues --   -0.57649  -0.57585  -0.55360  -0.55247  -0.52725
 Alpha  occ. eigenvalues --   -0.52681  -0.52454  -0.52419  -0.50058  -0.49856
 Alpha  occ. eigenvalues --   -0.48054  -0.47840  -0.46861  -0.46511  -0.46242
 Alpha  occ. eigenvalues --   -0.45873  -0.45674  -0.45228  -0.43836  -0.43793
 Alpha virt. eigenvalues --    0.19074   0.21182   0.23712   0.24957   0.25815
 Alpha virt. eigenvalues --    0.26162   0.26377   0.27813   0.28520   0.30019
 Alpha virt. eigenvalues --    0.31012   0.31280   0.31691   0.32234   0.32451

 Mulliken charges:
               1
     1  C   -0.302604
     2  C   -0.300028
     3  C   -0.477495
     4  H    0.151509
     5  H    0.149763
     6  H    0.153597
     7  H    0.152200
     8  H    0.155376
     9  H    0.155277
    10  H    0.160871
    11  C   -0.300080
    12  C   -0.303884
    13  C   -0.476041
    14  H    0.151729
    15  H    0.150235
    16  H    0.155728
    17  H    0.151969
    18  H    0.155266
    19  H    0.155558
    20  H    0.160211
    21  C   -0.303611
    22  C   -0.299544
    23  C   -0.476907
    24  H    0.153533
    25  H    0.149621
    26  H    0.152020
    27  H    0.152310
    28  H    0.155265
    29  H    0.156349
    30  H    0.160550
    31  C   -0.297338
    32  C   -0.310405
    33  C   -0.476419
    34  H    0.149407
    35  H    0.150103
    36  H    0.162116
    37  H    0.151567
    38  H    0.155611
    39  H    0.155119
    40  H    0.161497
 Sum of Mulliken charges =  -0.00000

 Dipole moment (field-independent basis, Debye):
    X=             -0.0028    Y=             -0.0053    Z=             -0.0123  Tot=              0.0137
 Quadrupole moment (field-independent basis, Debye-Ang):
   XX=            -84.5603   YY=            -85.7735   ZZ=            -84.3188
   XY=              1.5917   XZ=              0.6690   YZ=              0.3843

 Normal termination of Gaussian 16 at Wed May  5 21:25:05 2021.
