 Gaussian 16, Revision A.03,
 Gaussian 16:  EM64L-G16RevA.03 25-Dec-2016

 -------------
 #p 6-31g* mp2
 -------------

 ------------------------------------------------------
 Input file generated by CHIRIPA (05-May-2021 14:53:17)
 ------------------------------------------------------
 Symbolic Z-matrix:
 Charge =  0 Multiplicity = 1

                         Standard orientation:
 ---------------------------------------------------------------------
 Center     Atomic      Atomic             Coordinates (Angstroms)
 Number     Number       Type             X           Y           Z
 ---------------------------------------------------------------------
      1          6           0       -5.539398   -0.465778   -0.095340
      2          6           0       -6.513052    0.679566   -0.374927
      3          6           0       -7.973806    0.227928   -0.371032
      4          1           0       -5.683318   -1.252920   -0.848095
      5          1           0       -5.782583   -0.915294    0.877384
      6          1           0       -6.267232    1.127681   -1.346205
      7          1           0       -6.366666    1.464158    0.378468
      8          1           0       -8.242040   -0.200321    0.600181
      9          1           0       -8.142041   -0.538710   -1.134291
     10          1           0       -8.652569    1.062411   -0.572969
     11          6           0       -4.075218   -0.029996   -0.095944
     12          6           0       -3.101564   -1.175340    0.183643
     13          6           0       -1.640810   -0.723702    0.179748
     14          1           0       -3.832034    0.419519   -1.068668
     15          1           0       -3.931299    0.757146    0.656811
     16          1           0       -3.247951   -1.959932   -0.569752
     17          1           0       -3.347384   -1.623455    1.154921
     18          1           0       -1.472575    0.042936    0.943007
     19          1           0       -1.372576   -0.295453   -0.791465
     20          1           0       -0.962047   -1.558185    0.381685
     21          6           0        5.891739   -0.884107   -0.726350
     22          6           0        4.930067   -1.648497   -0.057460
     23          6           0        3.742867   -1.061859    0.390827
     24          6           0        3.549206    0.297857    0.152165
     25          6           0        4.488292    1.086026   -0.511308
     26          6           0        5.668177    0.478313   -0.950744
     27          1           0        6.811144   -1.348007   -1.071151
     28          1           0        5.100999   -2.706783    0.118204
     29          1           0        2.981560   -1.630162    0.911270
     30          1           0        4.289557    2.138734   -0.671709
     31          1           0        6.413262    1.074408   -1.469939
     32          7           0        2.296242    0.930059    0.622061
     33          8           0        2.149553    2.129865    0.399381
     34          8           0        1.484584    0.213804    1.204147
 ---------------------------------------------------------------------

 SCF Done:  E(RHF) =  -669.535697742     A.U. after   15 cycles
 E2 =    -0.2091018526D+01 EUMP2 =    -0.67162671626791D+03

 The electronic state is 1-A.
 Alpha  occ. eigenvalues --  -20.60862 -20.60830 -15.85875 -11.31236 -11.27804
 Alpha  occ. eigenvalues --  -11.27801 -11.27548 -11.26820 -11.26810 -11.21017
 Alpha  occ. eigenvalues --  -11.20696 -11.20596 -11.20548 -11.20474 -11.19542
 Alpha  occ. eigenvalues --   -1.59907  -1.39462  -1.19408  -1.08806  -1.07624
 Alpha  occ. eigenvalues --   -1.04810  -1.02653  -0.95647  -0.95065  -0.86211
 Alpha  occ. eigenvalues --   -0.86072  -0.82474  -0.78735  -0.77528  -0.77405
 Alpha  occ. eigenvalues --   -0.72097  -0.71217  -0.70517  -0.65063  -0.64814
 Alpha  occ. eigenvalues --   -0.64264  -0.62158  -0.60055  -0.58499  -0.56689
 Alpha  occ. eigenvalues --   -0.55314  -0.54356  -0.53141  -0.52903  -0.51754
 Alpha  occ. eigenvalues --   -0.51494  -0.49105  -0.48855  -0.48763  -0.47019
 Alpha  occ. eigenvalues --   -0.45784  -0.45018  -0.44885  -0.44758  -0.42886
 Alpha  occ. eigenvalues --   -0.37388  -0.36413
 Alpha virt. eigenvalues --    0.04994   0.11241   0.16475   0.21345   0.23615
 Alpha virt. eigenvalues --    0.25154   0.27229   0.27429   0.28026   0.28268
 Alpha virt. eigenvalues --    0.29044   0.30841   0.32036   0.32313   0.32557

 Mulliken charges:
               1
     1  C   -0.297410
     2  C   -0.299127
     3  C   -0.475243
     4  H    0.147320
     5  H    0.148229
     6  H    0.151199
     7  H    0.152319
     8  H    0.154438
     9  H    0.153889
    10  H    0.158789
    11  C   -0.297563
    12  C   -0.301949
    13  C   -0.469113
    14  H    0.148274
    15  H    0.151697
    16  H    0.145284
    17  H    0.148658
    18  H    0.172428
    19  H    0.148700
    20  H    0.155385
    21  C   -0.170737
    22  C   -0.218543
    23  C   -0.170737
    24  C    0.158261
    25  C   -0.170835
    26  C   -0.218567
    27  H    0.225751
    28  H    0.223602
    29  H    0.275617
    30  H    0.275728
    31  H    0.223590
    32  N    0.489284
    33  O   -0.460054
    34  O   -0.458563
 Sum of Mulliken charges =  -0.00000

 Dipole moment (field-independent basis, Debye):
    X=              4.7012    Y=             -2.1282    Z=             -1.5662  Tot=              5.3929
 Quadrupole moment (field-independent basis, Debye-Ang):
   XX=            -65.9692   YY=            -92.5686   ZZ=            -94.3537
   XY=             -5.7134   XZ=             -6.3356   YZ=             -2.5332

 Normal termination of Gaussian 16 at Wed May  5 17:13:59 2021.
