 Gaussian 16, Revision A.03,
 Gaussian 16:  EM64L-G16RevA.03 25-Dec-2016

 -------------
 #p 6-31g* mp2
 -------------

 ------------------------------------------------------
 Input file generated by CHIRIPA (05-May-2021 14:55:20)
 ------------------------------------------------------
 Symbolic Z-matrix:
 Charge =  0 Multiplicity = 1

                         Standard orientation:
 ---------------------------------------------------------------------
 Center     Atomic      Atomic             Coordinates (Angstroms)
 Number     Number       Type             X           Y           Z
 ---------------------------------------------------------------------
      1          6           0        1.748820    1.557680    0.286016
      2          6           0        1.943654    0.520563    1.204139
      3          6           0        3.018068   -0.362356    1.060485
      4          6           0        3.882124   -0.178115   -0.017825
      5          6           0        3.714607    0.845481   -0.949211
      6          6           0        2.633359    1.716549   -0.785839
      7          1           0        0.911535    2.238950    0.405269
      8          1           0        1.258304    0.394783    2.037517
      9          1           0        3.192375   -1.173825    1.756584
     10          1           0        4.414593    0.945569   -1.769833
     11          1           0        2.484509    2.521090   -1.500403
     12          7           0        5.023176   -1.106549   -0.180342
     13          8           0        5.770231   -0.922875   -1.138887
     14          8           0        5.148871   -2.000349    0.653900
     15          6           0       -3.983188    0.045139    0.155614
     16          6           0       -3.379467    1.449632    0.125562
     17          6           0       -1.887968    1.459286    0.461913
     18          1           0       -3.827502   -0.392768    1.151077
     19          1           0       -3.441896   -0.594371   -0.555319
     20          1           0       -3.922634    2.086665    0.835333
     21          1           0       -3.536777    1.884319   -0.869886
     22          1           0       -1.328059    0.846715   -0.252133
     23          1           0       -1.716108    1.050212    1.462775
     24          1           0       -1.476823    2.473226    0.434629
     25          6           0       -5.473619    0.019112   -0.178552
     26          6           0       -6.077340   -1.385382   -0.148500
     27          6           0       -7.568838   -1.395036   -0.484850
     28          1           0       -6.014910    0.658621    0.532381
     29          1           0       -5.629305    0.457017   -1.174015
     30          1           0       -5.920029   -1.820068    0.846948
     31          1           0       -5.534172   -2.022416   -0.858271
     32          1           0       -7.740698   -0.985962   -1.485712
     33          1           0       -8.128747   -0.782465    0.229195
     34          1           0       -7.979984   -2.408976   -0.457567
 ---------------------------------------------------------------------

 SCF Done:  E(RHF) =  -669.535059048     A.U. after   15 cycles
 E2 =    -0.2091569994D+01 EUMP2 =    -0.67162662904181D+03

 The electronic state is 1-A.
 Alpha  occ. eigenvalues --  -20.60691 -20.60685 -15.85745 -11.31081 -11.27661
 Alpha  occ. eigenvalues --  -11.27653 -11.27304 -11.26647 -11.26631 -11.22504
 Alpha  occ. eigenvalues --  -11.22347 -11.22081 -11.22036 -11.21912 -11.21427
 Alpha  occ. eigenvalues --   -1.59768  -1.39322  -1.19254  -1.09098  -1.08643
 Alpha  occ. eigenvalues --   -1.04656  -1.04250  -0.96745  -0.95478  -0.87777
 Alpha  occ. eigenvalues --   -0.86046  -0.82325  -0.80336  -0.78860  -0.77378
 Alpha  occ. eigenvalues --   -0.71962  -0.71092  -0.70352  -0.65719  -0.64899
 Alpha  occ. eigenvalues --   -0.64659  -0.62010  -0.61636  -0.60174  -0.58310
 Alpha  occ. eigenvalues --   -0.56034  -0.55221  -0.53356  -0.53210  -0.52896
 Alpha  occ. eigenvalues --   -0.52737  -0.50650  -0.48724  -0.48719  -0.48627
 Alpha  occ. eigenvalues --   -0.47324  -0.46416  -0.46303  -0.44734  -0.44486
 Alpha  occ. eigenvalues --   -0.37192  -0.36269
 Alpha virt. eigenvalues --    0.05146   0.11365   0.16613   0.20441   0.22353
 Alpha virt. eigenvalues --    0.23824   0.25631   0.26276   0.26400   0.27374
 Alpha virt. eigenvalues --    0.28626   0.29591   0.30972   0.31527   0.32259

 Mulliken charges:
               1
     1  C   -0.170917
     2  C   -0.221600
     3  C   -0.171136
     4  C    0.157989
     5  C   -0.170865
     6  C   -0.221473
     7  H    0.233874
     8  H    0.223862
     9  H    0.275121
    10  H    0.275080
    11  H    0.222959
    12  N    0.488089
    13  O   -0.460844
    14  O   -0.460816
    15  C   -0.299544
    16  C   -0.299585
    17  C   -0.483667
    18  H    0.149943
    19  H    0.151659
    20  H    0.154171
    21  H    0.154418
    22  H    0.162478
    23  H    0.153658
    24  H    0.152842
    25  C   -0.298925
    26  C   -0.300193
    27  C   -0.476078
    28  H    0.150232
    29  H    0.150619
    30  H    0.152445
    31  H    0.153097
    32  H    0.155752
    33  H    0.155528
    34  H    0.161828
 Sum of Mulliken charges =  -0.00000

 Dipole moment (field-independent basis, Debye):
    X=             -4.2764    Y=              3.2360    Z=              0.5414  Tot=              5.3900
 Quadrupole moment (field-independent basis, Debye-Ang):
   XX=           -126.8284   YY=            -95.4035   ZZ=            -90.7677
   XY=             14.2108   XZ=              0.5868   YZ=             -2.4918

 Normal termination of Gaussian 16 at Wed May  5 15:52:51 2021.
