 Gaussian 16, Revision A.03,
 Gaussian 16:  EM64L-G16RevA.03 25-Dec-2016

 -------------
 #p 6-31g* mp2
 -------------

 ------------------------------------------------------
 Input file generated by CHIRIPA (05-May-2021 14:53:16)
 ------------------------------------------------------
 Symbolic Z-matrix:
 Charge =  0 Multiplicity = 1

                         Standard orientation:
 ---------------------------------------------------------------------
 Center     Atomic      Atomic             Coordinates (Angstroms)
 Number     Number       Type             X           Y           Z
 ---------------------------------------------------------------------
      1          6           0       -2.415446    0.703212    0.064978
      2          6           0       -2.854452    2.152828    0.274436
      3          6           0       -1.676326    3.099988    0.504009
      4          1           0       -1.840939    0.370639    0.940353
      5          1           0       -1.732100    0.654862   -0.794147
      6          1           0       -3.537854    2.198222    1.132059
      7          1           0       -3.428143    2.481927   -0.601456
      8          1           0       -0.996561    3.084319   -0.354056
      9          1           0       -1.106895    2.799002    1.389309
     10          1           0       -2.012868    4.130941    0.651434
     11          6           0       -3.582016   -0.255739   -0.165793
     12          6           0       -3.143010   -1.705354   -0.375251
     13          6           0       -4.321135   -2.652514   -0.604824
     14          1           0       -4.265361   -0.207388    0.693332
     15          1           0       -4.156522    0.076834   -1.041168
     16          1           0       -2.569318   -2.034453    0.500641
     17          1           0       -2.459607   -1.750748   -1.232874
     18          1           0       -4.890566   -2.351528   -1.490124
     19          1           0       -5.000900   -2.636845    0.253241
     20          1           0       -3.984593   -3.683467   -0.752249
     21          6           0        2.490588   -2.614226    0.666471
     22          6           0        1.813506   -1.717194    1.499186
     23          6           0        1.725293   -0.363359    1.161700
     24          6           0        2.328466    0.061041   -0.021244
     25          6           0        3.010035   -0.808202   -0.871639
     26          6           0        3.085643   -2.157672   -0.514202
     27          1           0        2.554218   -3.664223    0.936387
     28          1           0        1.350426   -2.068941    2.416723
     29          1           0        1.207273    0.352706    1.788058
     30          1           0        3.461614   -0.427860   -1.779844
     31          1           0        3.612119   -2.852054   -1.162818
     32          7           0        2.241752    1.491975   -0.389086
     33          8           0        2.781629    1.840796   -1.436699
     34          8           0        1.635550    2.237626    0.377179
 ---------------------------------------------------------------------

 SCF Done:  E(RHF) =  -669.535510296     A.U. after   15 cycles
 E2 =    -0.2092412025D+01 EUMP2 =    -0.67162792232056D+03

 The electronic state is 1-A.
 Alpha  occ. eigenvalues --  -20.60869 -20.60831 -15.85877 -11.31226 -11.27798
 Alpha  occ. eigenvalues --  -11.27793 -11.27534 -11.26807 -11.26797 -11.21632
 Alpha  occ. eigenvalues --  -11.21243 -11.21143 -11.21102 -11.20960 -11.19860
 Alpha  occ. eigenvalues --   -1.59919  -1.39473  -1.19396  -1.08797  -1.08170
 Alpha  occ. eigenvalues --   -1.04798  -1.03150  -0.95662  -0.95539  -0.86573
 Alpha  occ. eigenvalues --   -0.86195  -0.82474  -0.79247  -0.77975  -0.77494
 Alpha  occ. eigenvalues --   -0.72107  -0.71236  -0.70508  -0.65054  -0.64839
 Alpha  occ. eigenvalues --   -0.64780  -0.62149  -0.60553  -0.59023  -0.57166
 Alpha  occ. eigenvalues --   -0.55304  -0.54843  -0.53130  -0.52895  -0.52250
 Alpha  occ. eigenvalues --   -0.51956  -0.49532  -0.48868  -0.48852  -0.47535
 Alpha  occ. eigenvalues --   -0.46304  -0.45584  -0.45410  -0.44660  -0.43432
 Alpha  occ. eigenvalues --   -0.37371  -0.36389
 Alpha virt. eigenvalues --    0.04983   0.11224   0.16460   0.20920   0.23013
 Alpha virt. eigenvalues --    0.24238   0.26014   0.27304   0.27672   0.28187
 Alpha virt. eigenvalues --    0.29118   0.30596   0.31547   0.31983   0.32452

 Mulliken charges:
               1
     1  C   -0.295112
     2  C   -0.301769
     3  C   -0.472670
     4  H    0.141398
     5  H    0.149887
     6  H    0.147255
     7  H    0.150198
     8  H    0.169559
     9  H    0.156343
    10  H    0.155311
    11  C   -0.297966
    12  C   -0.298208
    13  C   -0.475369
    14  H    0.148436
    15  H    0.150745
    16  H    0.146740
    17  H    0.152103
    18  H    0.156379
    19  H    0.154861
    20  H    0.157831
    21  C   -0.170345
    22  C   -0.218682
    23  C   -0.169043
    24  C    0.158027
    25  C   -0.171001
    26  C   -0.218525
    27  H    0.225789
    28  H    0.223423
    29  H    0.275760
    30  H    0.275560
    31  H    0.223539
    32  N    0.488634
    33  O   -0.460567
    34  O   -0.458520
 Sum of Mulliken charges =  -0.00000

 Dipole moment (field-independent basis, Debye):
    X=              0.4803    Y=             -4.9381    Z=              1.2405  Tot=              5.1142
 Quadrupole moment (field-independent basis, Debye-Ang):
   XX=            -93.6749   YY=            -96.3154   ZZ=            -90.6590
   XY=            -12.9998   XZ=              0.4739   YZ=              0.6221

 Normal termination of Gaussian 16 at Thu May  6 20:27:12 2021.
