 Gaussian 16, Revision A.03,
 Gaussian 16:  EM64L-G16RevA.03 25-Dec-2016

 -------------
 #p 6-31g* mp2
 -------------

 ------------------------------------------------------
 Input file generated by CHIRIPA (05-May-2021 14:51:11)
 ------------------------------------------------------
 Symbolic Z-matrix:
 Charge =  0 Multiplicity = 1

                         Standard orientation:
 ---------------------------------------------------------------------
 Center     Atomic      Atomic             Coordinates (Angstroms)
 Number     Number       Type             X           Y           Z
 ---------------------------------------------------------------------
      1          6           0       -3.964724   -0.706544   -0.314145
      2          6           0       -5.193296   -1.334089    0.345235
      3          6           0       -5.373257   -2.807490   -0.021505
      4          1           0       -4.050553   -0.806559   -1.404821
      5          1           0       -3.069726   -1.271037   -0.017969
      6          1           0       -6.085548   -0.767739    0.049008
      7          1           0       -5.104624   -1.232398    1.434461
      8          1           0       -4.500684   -3.391170    0.289194
      9          1           0       -5.487181   -2.923870   -1.104131
     10          1           0       -6.257348   -3.236138    0.460683
     11          6           0       -3.771376    0.766166    0.042886
     12          6           0       -2.542803    1.393711   -0.616495
     13          6           0       -2.362842    2.867112   -0.249754
     14          1           0       -4.666374    1.330659   -0.253290
     15          1           0       -3.685547    0.866180    1.133562
     16          1           0       -2.631476    1.292020   -1.705720
     17          1           0       -1.650552    0.827361   -0.320267
     18          1           0       -2.248918    2.983492    0.832871
     19          1           0       -3.235416    3.450792   -0.560453
     20          1           0       -1.478752    3.295760   -0.731942
     21          6           0        4.492606   -0.123123   -0.294085
     22          6           0        5.483501   -1.132093    0.287371
     23          6           0        6.727805   -1.307875   -0.583606
     24          1           0        4.194731   -0.449285   -1.299985
     25          1           0        4.995879    0.846027   -0.415986
     26          1           0        4.978118   -2.098688    0.409431
     27          1           0        5.778903   -0.803592    1.292079
     28          1           0        7.257190   -0.356142   -0.695666
     29          1           0        6.451855   -1.658597   -1.583329
     30          1           0        7.422610   -2.033473   -0.149310
     31          6           0        3.243494    0.063501    0.565345
     32          6           0        2.252599    1.072471   -0.016111
     33          6           0        1.008295    1.248253    0.854865
     34          1           0        2.740221   -0.905649    0.687246
     35          1           0        3.541367    0.389662    1.571245
     36          1           0        1.957197    0.743970   -1.020820
     37          1           0        2.757981    2.039066   -0.138171
     38          1           0        1.284244    1.598974    1.854589
     39          1           0        0.478910    0.296520    0.966925
     40          1           0        0.313489    1.973852    0.420570
 ---------------------------------------------------------------------

 SCF Done:  E(RHF) =  -470.732026667     A.U. after   11 cycles
 E2 =    -0.1583516263D+01 EUMP2 =    -0.47231554293029D+03

 The electronic state is 1-A.
 Alpha  occ. eigenvalues --  -11.21605 -11.21605 -11.21583 -11.21467 -11.21408
 Alpha  occ. eigenvalues --  -11.21370 -11.21349 -11.21303 -11.21074 -11.21062
 Alpha  occ. eigenvalues --  -11.21062 -11.21013  -1.08443  -1.08384  -1.03590
 Alpha  occ. eigenvalues --   -1.03451  -0.96070  -0.95887  -0.87036  -0.86954
 Alpha  occ. eigenvalues --   -0.79647  -0.79524  -0.78256  -0.78195  -0.65120
 Alpha  occ. eigenvalues --   -0.64996  -0.61130  -0.60833  -0.59604  -0.59091
 Alpha  occ. eigenvalues --   -0.57765  -0.57371  -0.55342  -0.55205  -0.52793
 Alpha  occ. eigenvalues --   -0.52526  -0.52466  -0.52240  -0.50051  -0.49810
 Alpha  occ. eigenvalues --   -0.47936  -0.47843  -0.46770  -0.46452  -0.45805
 Alpha  occ. eigenvalues --   -0.45749  -0.45725  -0.45580  -0.43770  -0.43725
 Alpha virt. eigenvalues --    0.21732   0.23078   0.23570   0.24999   0.26010
 Alpha virt. eigenvalues --    0.26764   0.27011   0.27375   0.27722   0.29188
 Alpha virt. eigenvalues --    0.30713   0.31339   0.31671   0.32062   0.32273

 Mulliken charges:
               1
     1  C   -0.298093
     2  C   -0.299622
     3  C   -0.475675
     4  H    0.149529
     5  H    0.148833
     6  H    0.151956
     7  H    0.151974
     8  H    0.155011
     9  H    0.155106
    10  H    0.160217
    11  C   -0.297642
    12  C   -0.306839
    13  C   -0.479690
    14  H    0.149061
    15  H    0.149619
    16  H    0.150945
    17  H    0.161458
    18  H    0.156438
    19  H    0.156707
    20  H    0.158998
    21  C   -0.298260
    22  C   -0.299635
    23  C   -0.475704
    24  H    0.149677
    25  H    0.149537
    26  H    0.151884
    27  H    0.151924
    28  H    0.155190
    29  H    0.155197
    30  H    0.160251
    31  C   -0.298590
    32  C   -0.299877
    33  C   -0.484879
    34  H    0.149425
    35  H    0.149682
    36  H    0.152243
    37  H    0.151930
    38  H    0.154934
    39  H    0.154033
    40  H    0.172747
 Sum of Mulliken charges =  -0.00000

 Dipole moment (field-independent basis, Debye):
    X=              0.0134    Y=              0.0168    Z=              0.0077  Tot=              0.0228
 Quadrupole moment (field-independent basis, Debye-Ang):
   XX=            -85.4036   YY=            -85.3514   ZZ=            -84.2057
   XY=              0.1585   XZ=              1.1037   YZ=             -0.0987

 Normal termination of Gaussian 16 at Wed May  5 21:29:25 2021.
