 Gaussian 16, Revision A.03,
 Gaussian 16:  EM64L-G16RevA.03 25-Dec-2016

 -------------
 #p 6-31g* mp2
 -------------

 ------------------------------------------------------
 Input file generated by CHIRIPA (05-May-2021 14:55:21)
 ------------------------------------------------------
 Symbolic Z-matrix:
 Charge =  0 Multiplicity = 1

                         Standard orientation:
 ---------------------------------------------------------------------
 Center     Atomic      Atomic             Coordinates (Angstroms)
 Number     Number       Type             X           Y           Z
 ---------------------------------------------------------------------
      1          6           0        2.298177    1.770938   -0.318983
      2          6           0        3.577286    2.201993    0.047886
      3          6           0        4.616897    1.281689    0.211588
      4          6           0        4.340881   -0.068158   -0.000591
      5          6           0        3.077104   -0.528698   -0.366730
      6          6           0        2.052601    0.409369   -0.524758
      7          1           0        1.496451    2.492752   -0.443947
      8          1           0        3.770902    3.258784    0.208356
      9          1           0        5.616520    1.587981    0.495060
     10          1           0        2.914642   -1.588707   -0.519716
     11          1           0        1.060211    0.071733   -0.809731
     12          7           0        5.433474   -1.051845    0.169710
     13          8           0        5.164515   -2.235533   -0.023112
     14          8           0        6.538117   -0.620544    0.492788
     15          6           0       -4.668862    0.240026    0.185004
     16          6           0       -3.436469   -0.518139   -0.309343
     17          6           0       -2.129813    0.215331   -0.005260
     18          1           0       -4.689248    1.235842   -0.278550
     19          1           0       -4.581380    0.401303    1.268393
     20          1           0       -3.526904   -0.679150   -1.391246
     21          1           0       -3.419117   -1.512336    0.155294
     22          1           0       -2.012841    0.362885    1.073232
     23          1           0       -2.121240    1.200803   -0.482094
     24          1           0       -1.261673   -0.344274   -0.367248
     25          6           0       -5.982809   -0.480579   -0.111639
     26          6           0       -7.215202    0.277586    0.382708
     27          6           0       -8.521858   -0.455884    0.078625
     28          1           0       -6.070292   -0.641855   -1.195028
     29          1           0       -5.962423   -1.476394    0.351915
     30          1           0       -7.232554    1.271783   -0.081929
     31          1           0       -7.124767    0.438598    1.464611
     32          1           0       -8.530431   -1.441356    0.555460
     33          1           0       -8.638831   -0.603437   -0.999867
     34          1           0       -9.389998    0.103721    0.440614
 ---------------------------------------------------------------------

 SCF Done:  E(RHF) =  -669.535533260     A.U. after   15 cycles
 E2 =    -0.2090677085D+01 EUMP2 =    -0.67162621034465D+03

 The electronic state is 1-A.
 Alpha  occ. eigenvalues --  -20.60713 -20.60708 -15.85766 -11.31118 -11.27688
 Alpha  occ. eigenvalues --  -11.27677 -11.27415 -11.26701 -11.26656 -11.22402
 Alpha  occ. eigenvalues --  -11.22205 -11.22027 -11.22015 -11.21866 -11.21412
 Alpha  occ. eigenvalues --   -1.59789  -1.39343  -1.19287  -1.09034  -1.08682
 Alpha  occ. eigenvalues --   -1.04690  -1.04177  -0.96651  -0.95520  -0.87680
 Alpha  occ. eigenvalues --   -0.86084  -0.82355  -0.80247  -0.78809  -0.77407
 Alpha  occ. eigenvalues --   -0.71985  -0.71112  -0.70392  -0.65656  -0.64938
 Alpha  occ. eigenvalues --   -0.64722  -0.62077  -0.61563  -0.60035  -0.58240
 Alpha  occ. eigenvalues --   -0.55925  -0.55188  -0.53485  -0.53092  -0.53015
 Alpha  occ. eigenvalues --   -0.52640  -0.50577  -0.48745  -0.48741  -0.48555
 Alpha  occ. eigenvalues --   -0.47254  -0.46363  -0.46259  -0.44752  -0.44422
 Alpha  occ. eigenvalues --   -0.37264  -0.36291
 Alpha virt. eigenvalues --    0.05129   0.11343   0.16619   0.20194   0.22430
 Alpha virt. eigenvalues --    0.23761   0.25748   0.26059   0.26794   0.27788
 Alpha virt. eigenvalues --    0.28749   0.29583   0.30892   0.31512   0.32193

 Mulliken charges:
               1
     1  C   -0.173000
     2  C   -0.218602
     3  C   -0.171281
     4  C    0.158801
     5  C   -0.172948
     6  C   -0.223399
     7  H    0.226205
     8  H    0.223071
     9  H    0.275301
    10  H    0.275452
    11  H    0.232347
    12  N    0.488069
    13  O   -0.460619
    14  O   -0.460707
    15  C   -0.299353
    16  C   -0.298934
    17  C   -0.480898
    18  H    0.149539
    19  H    0.150852
    20  H    0.153423
    21  H    0.155346
    22  H    0.160330
    23  H    0.152984
    24  H    0.153982
    25  C   -0.298848
    26  C   -0.300049
    27  C   -0.476040
    28  H    0.150277
    29  H    0.151084
    30  H    0.151997
    31  H    0.152573
    32  H    0.156028
    33  H    0.155654
    34  H    0.161365
 Sum of Mulliken charges =  -0.00000

 Dipole moment (field-independent basis, Debye):
    X=             -4.0938    Y=              3.4629    Z=             -0.5653  Tot=              5.3917
 Quadrupole moment (field-independent basis, Debye-Ang):
   XX=           -126.9056   YY=            -92.6964   ZZ=            -94.5392
   XY=             17.7712   XZ=             -1.9086   YZ=              0.5552

 Normal termination of Gaussian 16 at Thu May  6 01:23:02 2021.
