 Gaussian 16, Revision A.03,
 Gaussian 16:  EM64L-G16RevA.03 25-Dec-2016

 -------------
 #p 6-31g* mp2
 -------------

 ------------------------------------------------------
 Input file generated by CHIRIPA (05-May-2021 14:55:25)
 ------------------------------------------------------
 Symbolic Z-matrix:
 Charge =  0 Multiplicity = 1

                         Standard orientation:
 ---------------------------------------------------------------------
 Center     Atomic      Atomic             Coordinates (Angstroms)
 Number     Number       Type             X           Y           Z
 ---------------------------------------------------------------------
      1          6           0        0.085795   -2.692862    0.154320
      2          6           0        0.193138   -1.802453    1.227711
      3          6           0        1.137201   -0.771579    1.203390
      4          6           0        1.961539   -0.659876    0.084784
      5          6           0        1.878849   -1.531235   -1.000198
      6          6           0        0.927509   -2.554656   -0.954254
      7          1           0       -0.650403   -3.490775    0.181611
      8          1           0       -0.459228   -1.907382    2.089949
      9          1           0        1.241708   -0.068333    2.020666
     10          1           0        2.543079   -1.401303   -1.845972
     11          1           0        0.846388   -3.244700   -1.789301
     12          7           0        2.964829    0.427519    0.047591
     13          8           0        3.679320    0.504541   -0.949509
     14          8           0        3.017719    1.182207    1.016242
     15          6           0       -1.586877    1.314713    0.018621
     16          6           0       -1.358673    2.777727   -0.362821
     17          6           0        0.070928    3.244513   -0.086876
     18          1           0       -1.354720    1.179648    1.083893
     19          1           0       -0.880227    0.683466   -0.537768
     20          1           0       -2.066474    3.405901    0.193086
     21          1           0       -1.591585    2.909365   -1.427264
     22          1           0        0.788834    2.642510   -0.653271
     23          1           0        0.311247    3.141866    0.976286
     24          1           0        0.211963    4.293117   -0.366873
     25          6           0       -3.011356    0.833361   -0.251359
     26          6           0       -3.239561   -0.629653    0.130082
     27          6           0       -4.669162   -1.096439   -0.145863
     28          1           0       -3.718007    1.464608    0.305029
     29          1           0       -3.243514    0.968426   -1.316632
     30          1           0       -3.006649   -0.761291    1.194525
     31          1           0       -2.531760   -1.257827   -0.425825
     32          1           0       -4.909481   -0.993792   -1.209024
     33          1           0       -5.387069   -0.494436    0.420532
     34          1           0       -4.810198   -2.145043    0.134134
 ---------------------------------------------------------------------

 SCF Done:  E(RHF) =  -669.533653241     A.U. after   15 cycles
 E2 =    -0.2096566773D+01 EUMP2 =    -0.67163022001451D+03

 The electronic state is 1-A.
 Alpha  occ. eigenvalues --  -20.60819 -20.60798 -15.85847 -11.31198 -11.27807
 Alpha  occ. eigenvalues --  -11.27740 -11.27517 -11.26817 -11.26732 -11.22056
 Alpha  occ. eigenvalues --  -11.21614 -11.21555 -11.21424 -11.21362 -11.20578
 Alpha  occ. eigenvalues --   -1.59880  -1.39433  -1.19399  -1.08798  -1.08572
 Alpha  occ. eigenvalues --   -1.04791  -1.03629  -0.96045  -0.95623  -0.87059
 Alpha  occ. eigenvalues --   -0.86186  -0.82452  -0.79733  -0.78405  -0.77486
 Alpha  occ. eigenvalues --   -0.72071  -0.71209  -0.70499  -0.65234  -0.65034
 Alpha  occ. eigenvalues --   -0.64793  -0.62136  -0.61029  -0.59491  -0.57670
 Alpha  occ. eigenvalues --   -0.55329  -0.55290  -0.53359  -0.52890  -0.52693
 Alpha  occ. eigenvalues --   -0.52370  -0.49996  -0.48836  -0.48826  -0.48042
 Alpha  occ. eigenvalues --   -0.46789  -0.45920  -0.45721  -0.44759  -0.43870
 Alpha  occ. eigenvalues --   -0.37318  -0.36283
 Alpha virt. eigenvalues --    0.04986   0.11179   0.16324   0.20512   0.23000
 Alpha virt. eigenvalues --    0.23807   0.25268   0.26725   0.27621   0.28235
 Alpha virt. eigenvalues --    0.29235   0.29640   0.31349   0.31497   0.32039

 Mulliken charges:
               1
     1  C   -0.171259
     2  C   -0.211703
     3  C   -0.167892
     4  C    0.157002
     5  C   -0.172729
     6  C   -0.220086
     7  H    0.226465
     8  H    0.223798
     9  H    0.274967
    10  H    0.275716
    11  H    0.223608
    12  N    0.488285
    13  O   -0.460728
    14  O   -0.458281
    15  C   -0.298760
    16  C   -0.301139
    17  C   -0.474226
    18  H    0.141949
    19  H    0.154960
    20  H    0.150123
    21  H    0.150967
    22  H    0.156137
    23  H    0.159490
    24  H    0.161647
    25  C   -0.297438
    26  C   -0.301525
    27  C   -0.475336
    28  H    0.149829
    29  H    0.150432
    30  H    0.143603
    31  H    0.152548
    32  H    0.156725
    33  H    0.157149
    34  H    0.155702
 Sum of Mulliken charges =  -0.00000

 Dipole moment (field-independent basis, Debye):
    X=             -3.3986    Y=             -3.7716    Z=              0.1320  Tot=              5.0787
 Quadrupole moment (field-independent basis, Debye-Ang):
   XX=           -110.2265   YY=            -89.8034   ZZ=            -89.9967
   XY=             -6.2437   XZ=             -1.8642   YZ=              1.4411

 Normal termination of Gaussian 16 at Thu May  6 04:50:46 2021.
