 Gaussian 16, Revision A.03,
 Gaussian 16:  EM64L-G16RevA.03 25-Dec-2016

 -------------
 #p 6-31g* mp2
 -------------

 ------------------------------------------------------
 Input file generated by CHIRIPA (05-May-2021 14:51:12)
 ------------------------------------------------------
 Symbolic Z-matrix:
 Charge =  0 Multiplicity = 1

                         Standard orientation:
 ---------------------------------------------------------------------
 Center     Atomic      Atomic             Coordinates (Angstroms)
 Number     Number       Type             X           Y           Z
 ---------------------------------------------------------------------
      1          6           0        2.987693    1.225033   -0.357930
      2          6           0        2.187526    1.923679    0.741893
      3          6           0        2.028085    3.424091    0.494637
      4          1           0        3.978777    1.692758   -0.434945
      5          1           0        2.489478    1.387524   -1.323732
      6          1           0        2.686353    1.758755    1.705526
      7          1           0        1.198301    1.454111    0.816428
      8          1           0        1.510261    3.605515   -0.452751
      9          1           0        3.006767    3.911890    0.441399
     10          1           0        1.452980    3.903629    1.292859
     11          6           0        3.155623   -0.275373   -0.124885
     12          6           0        3.955790   -0.974019   -1.224708
     13          6           0        4.115231   -2.474431   -0.977453
     14          1           0        3.653838   -0.437864    0.840917
     15          1           0        2.164539   -0.743098   -0.047871
     16          1           0        4.945015   -0.504450   -1.299243
     17          1           0        3.456964   -0.809094   -2.188341
     18          1           0        3.136549   -2.962229   -0.924214
     19          1           0        4.633055   -2.655855   -0.030064
     20          1           0        4.690336   -2.953968   -1.775675
     21          6           0       -3.731797   -0.569695   -0.130948
     22          6           0       -4.284678    0.726315   -0.724804
     23          6           0       -5.605690    0.520305   -1.466614
     24          1           0       -3.591218   -1.303786   -0.936114
     25          1           0       -4.475961   -0.997113    0.555295
     26          1           0       -3.539131    1.151883   -1.408667
     27          1           0       -4.423777    1.457470    0.081842
     28          1           0       -6.367930    0.118004   -0.791527
     29          1           0       -5.478258   -0.189320   -2.290504
     30          1           0       -5.982957    1.459497   -1.883085
     31          6           0       -2.411519   -0.379965    0.613763
     32          6           0       -1.858639   -1.675975    1.207620
     33          6           0       -0.537626   -1.469965    1.949430
     34          1           0       -1.667355    0.047452   -0.072479
     35          1           0       -2.552099    0.354125    1.418931
     36          1           0       -1.719539   -2.407131    0.400973
     37          1           0       -2.604185   -2.101544    1.891482
     38          1           0       -0.665059   -0.760340    2.773319
     39          1           0        0.224613   -1.067664    1.274342
     40          1           0       -0.160359   -2.409157    2.365901
 ---------------------------------------------------------------------

 SCF Done:  E(RHF) =  -470.733142412     A.U. after   11 cycles
 E2 =    -0.1583256450D+01 EUMP2 =    -0.47231639886145D+03

 The electronic state is 1-A.
 Alpha  occ. eigenvalues --  -11.21627 -11.21622 -11.21609 -11.21566 -11.21445
 Alpha  occ. eigenvalues --  -11.21404 -11.21384 -11.21345 -11.21091 -11.21073
 Alpha  occ. eigenvalues --  -11.21049 -11.21039  -1.08467  -1.08426  -1.03551
 Alpha  occ. eigenvalues --   -1.03520  -0.96009  -0.95964  -0.87020  -0.86985
 Alpha  occ. eigenvalues --   -0.79625  -0.79580  -0.78331  -0.78189  -0.65177
 Alpha  occ. eigenvalues --   -0.64998  -0.60952  -0.60920  -0.59382  -0.59323
 Alpha  occ. eigenvalues --   -0.57645  -0.57556  -0.55389  -0.55178  -0.52692
 Alpha  occ. eigenvalues --   -0.52674  -0.52446  -0.52370  -0.50029  -0.49856
 Alpha  occ. eigenvalues --   -0.48001  -0.47880  -0.46752  -0.46623  -0.45982
 Alpha  occ. eigenvalues --   -0.45771  -0.45738  -0.45315  -0.43807  -0.43777
 Alpha virt. eigenvalues --    0.20689   0.23246   0.23889   0.24253   0.25637
 Alpha virt. eigenvalues --    0.26913   0.27010   0.27635   0.27914   0.29376
 Alpha virt. eigenvalues --    0.30805   0.31655   0.31692   0.31891   0.32096

 Mulliken charges:
               1
     1  C   -0.298054
     2  C   -0.303522
     3  C   -0.475498
     4  H    0.149763
     5  H    0.148764
     6  H    0.152123
     7  H    0.156013
     8  H    0.154911
     9  H    0.155043
    10  H    0.160349
    11  C   -0.304976
    12  C   -0.299031
    13  C   -0.475674
    14  H    0.150049
    15  H    0.155489
    16  H    0.152106
    17  H    0.151527
    18  H    0.155094
    19  H    0.155418
    20  H    0.160199
    21  C   -0.298299
    22  C   -0.299659
    23  C   -0.475736
    24  H    0.149619
    25  H    0.149837
    26  H    0.151776
    27  H    0.152108
    28  H    0.155268
    29  H    0.155173
    30  H    0.160362
    31  C   -0.298954
    32  C   -0.299456
    33  C   -0.484992
    34  H    0.148892
    35  H    0.150018
    36  H    0.151428
    37  H    0.152149
    38  H    0.155574
    39  H    0.164383
    40  H    0.160416
 Sum of Mulliken charges =  -0.00000

 Dipole moment (field-independent basis, Debye):
    X=              0.0001    Y=             -0.0045    Z=              0.0170  Tot=              0.0176
 Quadrupole moment (field-independent basis, Debye-Ang):
   XX=            -84.6707   YY=            -85.9642   ZZ=            -84.0826
   XY=              0.2615   XZ=             -0.5167   YZ=              0.3118

 Normal termination of Gaussian 16 at Wed May  5 18:18:07 2021.
