 Gaussian 16, Revision A.03,
 Gaussian 16:  EM64L-G16RevA.03 25-Dec-2016

 -------------
 #p 6-31g* mp2
 -------------

 ------------------------------------------------------
 Input file generated by CHIRIPA (05-May-2021 14:55:22)
 ------------------------------------------------------
 Symbolic Z-matrix:
 Charge =  0 Multiplicity = 1

                         Standard orientation:
 ---------------------------------------------------------------------
 Center     Atomic      Atomic             Coordinates (Angstroms)
 Number     Number       Type             X           Y           Z
 ---------------------------------------------------------------------
      1          6           0        1.470545    2.091985    1.379813
      2          6           0        0.727839    0.907207    1.414598
      3          6           0        1.184012   -0.236441    0.752387
      4          6           0        2.392569   -0.159522    0.061906
      5          6           0        3.155275    1.006127    0.008707
      6          6           0        2.679761    2.137583    0.678215
      7          1           0        1.108667    2.975663    1.897068
      8          1           0       -0.211603    0.868882    1.958678
      9          1           0        0.629091   -1.166693    0.762956
     10          1           0        4.088070    1.013644   -0.541980
     11          1           0        3.258658    3.056331    0.649485
     12          7           0        2.885736   -1.363798   -0.643010
     13          8           0        3.953591   -1.270123   -1.244299
     14          8           0        2.195089   -2.378580   -0.580886
     15          6           0       -2.681426   -0.761391   -0.207410
     16          6           0       -3.552327   -1.728223    0.595555
     17          6           0       -2.985002   -3.147703    0.627415
     18          1           0       -2.576090   -1.138812   -1.233763
     19          1           0       -1.671169   -0.743876    0.224408
     20          1           0       -4.561023   -1.742863    0.163196
     21          1           0       -3.655760   -1.348357    1.620065
     22          1           0       -1.987379   -3.153816    1.078314
     23          1           0       -2.897785   -3.550563   -0.386832
     24          1           0       -3.623247   -3.822225    1.206659
     25          6           0       -3.235473    0.661661   -0.248487
     26          6           0       -2.364573    1.628493   -1.051452
     27          6           0       -2.931897    3.047973   -1.083311
     28          1           0       -4.245731    0.644146   -0.680305
     29          1           0       -3.340809    1.039083    0.777867
     30          1           0       -2.261139    1.248626   -2.075961
     31          1           0       -1.355877    1.643133   -0.619093
     32          1           0       -3.019115    3.450834   -0.069065
     33          1           0       -3.929521    3.054086   -1.534210
     34          1           0       -2.293652    3.722495   -1.662556
 ---------------------------------------------------------------------

 SCF Done:  E(RHF) =  -669.534542661     A.U. after   15 cycles
 E2 =    -0.2093974490D+01 EUMP2 =    -0.67162851715054D+03

 The electronic state is 1-A.
 Alpha  occ. eigenvalues --  -20.60802 -20.60797 -15.85857 -11.31255 -11.27831
 Alpha  occ. eigenvalues --  -11.27826 -11.27590 -11.26863 -11.26846 -11.21969
 Alpha  occ. eigenvalues --  -11.21916 -11.21865 -11.21814 -11.21497 -11.21274
 Alpha  occ. eigenvalues --   -1.59876  -1.39429  -1.19447  -1.08880  -1.08815
 Alpha  occ. eigenvalues --   -1.04862  -1.03893  -0.96354  -0.95657  -0.87362
 Alpha  occ. eigenvalues --   -0.86247  -0.82499  -0.79946  -0.78706  -0.77516
 Alpha  occ. eigenvalues --   -0.72076  -0.71199  -0.70554  -0.65589  -0.65084
 Alpha  occ. eigenvalues --   -0.64850  -0.62193  -0.61300  -0.59715  -0.57949
 Alpha  occ. eigenvalues --   -0.55670  -0.55335  -0.53234  -0.52982  -0.52970
 Alpha  occ. eigenvalues --   -0.52740  -0.50303  -0.48837  -0.48828  -0.48252
 Alpha  occ. eigenvalues --   -0.46994  -0.46192  -0.46161  -0.44824  -0.44168
 Alpha  occ. eigenvalues --   -0.37408  -0.36376
 Alpha virt. eigenvalues --    0.04976   0.11120   0.16355   0.19451   0.22911
 Alpha virt. eigenvalues --    0.23325   0.25584   0.26252   0.27265   0.28268
 Alpha virt. eigenvalues --    0.29589   0.31036   0.31325   0.31653   0.31835

 Mulliken charges:
               1
     1  C   -0.171464
     2  C   -0.218448
     3  C   -0.171531
     4  C    0.158034
     5  C   -0.170590
     6  C   -0.218388
     7  H    0.226436
     8  H    0.225495
     9  H    0.278258
    10  H    0.276002
    11  H    0.223977
    12  N    0.488100
    13  O   -0.460274
    14  O   -0.459888
    15  C   -0.302260
    16  C   -0.300319
    17  C   -0.475812
    18  H    0.156767
    19  H    0.142371
    20  H    0.154395
    21  H    0.147954
    22  H    0.153475
    23  H    0.160770
    24  H    0.161772
    25  C   -0.298075
    26  C   -0.307054
    27  C   -0.475203
    28  H    0.152610
    29  H    0.142919
    30  H    0.155387
    31  H    0.156317
    32  H    0.150370
    33  H    0.157100
    34  H    0.160796
 Sum of Mulliken charges =  -0.00000

 Dipole moment (field-independent basis, Debye):
    X=             -1.7046    Y=              4.1646    Z=              2.3846  Tot=              5.0927
 Quadrupole moment (field-independent basis, Debye-Ang):
   XX=            -99.7268   YY=            -96.2070   ZZ=            -93.9358
   XY=             13.7210   XZ=              5.2135   YZ=             -0.5556

 Normal termination of Gaussian 16 at Thu May  6 14:15:08 2021.
