 Gaussian 16, Revision A.03,
 Gaussian 16:  EM64L-G16RevA.03 25-Dec-2016

 -------------
 #p 6-31g* mp2
 -------------

 ------------------------------------------------------
 Input file generated by CHIRIPA (05-May-2021 14:53:16)
 ------------------------------------------------------
 Symbolic Z-matrix:
 Charge =  0 Multiplicity = 1

                         Standard orientation:
 ---------------------------------------------------------------------
 Center     Atomic      Atomic             Coordinates (Angstroms)
 Number     Number       Type             X           Y           Z
 ---------------------------------------------------------------------
      1          6           0        2.818443   -0.426458    0.278835
      2          6           0        1.962613   -0.265796    1.535707
      3          6           0        0.530304   -0.765101    1.343409
      4          1           0        2.346837    0.118555   -0.550317
      5          1           0        2.834452   -1.485836   -0.012467
      6          1           0        1.949355    0.792764    1.825348
      7          1           0        2.436412   -0.811096    2.362012
      8          1           0        0.525006   -1.826995    1.077040
      9          1           0        0.035182   -0.214022    0.537327
     10          1           0       -0.063857   -0.640805    2.254114
     11          6           0        4.252955    0.068246    0.455387
     12          6           0        5.108786   -0.092417   -0.801485
     13          6           0        6.541095    0.406888   -0.609187
     14          1           0        4.236947    1.127624    0.746689
     15          1           0        4.724562   -0.476767    1.284539
     16          1           0        4.634987    0.452884   -1.627790
     17          1           0        5.122043   -1.150976   -1.091126
     18          1           0        7.036217   -0.144190    0.196895
     19          1           0        6.546393    1.468783   -0.342818
     20          1           0        7.135256    0.282593   -1.519892
     21          6           0       -2.545660    2.644240   -0.069045
     22          6           0       -3.343548    1.929775    0.830641
     23          6           0       -3.470876    0.541977    0.719498
     24          6           0       -2.783206   -0.102181   -0.307858
     25          6           0       -1.980668    0.581710   -1.219733
     26          6           0       -1.867961    1.969117   -1.089562
     27          1           0       -2.452427    3.722163    0.024685
     28          1           0       -3.871010    2.451450    1.624167
     29          1           0       -4.081885   -0.035798    1.402332
     30          1           0       -1.467013    0.033919   -2.000439
     31          1           0       -1.247609    2.521395   -1.789702
     32          7           0       -2.910264   -1.571174   -0.435593
     33          8           0       -2.294169   -2.115243   -1.349407
     34          8           0       -3.623538   -2.150686    0.380520
 ---------------------------------------------------------------------

 SCF Done:  E(RHF) =  -669.534545530     A.U. after   15 cycles
 E2 =    -0.2093158639D+01 EUMP2 =    -0.67162770416967D+03

 The electronic state is 1-A.
 Alpha  occ. eigenvalues --  -20.60751 -20.60741 -15.85799 -11.31176 -11.27777
 Alpha  occ. eigenvalues --  -11.27755 -11.27543 -11.26824 -11.26805 -11.21643
 Alpha  occ. eigenvalues --  -11.21526 -11.21417 -11.21343 -11.21123 -11.20774
 Alpha  occ. eigenvalues --   -1.59818  -1.39373  -1.19395  -1.08774  -1.08418
 Alpha  occ. eigenvalues --   -1.04810  -1.03488  -0.95938  -0.95601  -0.86960
 Alpha  occ. eigenvalues --   -0.86195  -0.82437  -0.79569  -0.78237  -0.77475
 Alpha  occ. eigenvalues --   -0.72024  -0.71136  -0.70499  -0.65058  -0.65042
 Alpha  occ. eigenvalues --   -0.64804  -0.62149  -0.60907  -0.59307  -0.57559
 Alpha  occ. eigenvalues --   -0.55350  -0.55284  -0.53270  -0.52892  -0.52590
 Alpha  occ. eigenvalues --   -0.52239  -0.49811  -0.48785  -0.48775  -0.47870
 Alpha  occ. eigenvalues --   -0.46586  -0.45781  -0.45700  -0.44759  -0.43757
 Alpha  occ. eigenvalues --   -0.37317  -0.36369
 Alpha virt. eigenvalues --    0.05031   0.11196   0.16532   0.21329   0.22886
 Alpha virt. eigenvalues --    0.24376   0.26549   0.27190   0.27637   0.27946
 Alpha virt. eigenvalues --    0.28416   0.30905   0.31518   0.31859   0.32041

 Mulliken charges:
               1
     1  C   -0.297240
     2  C   -0.298872
     3  C   -0.484722
     4  H    0.144302
     5  H    0.153635
     6  H    0.148040
     7  H    0.152490
     8  H    0.163400
     9  H    0.157581
    10  H    0.158489
    11  C   -0.298127
    12  C   -0.299393
    13  C   -0.475626
    14  H    0.147316
    15  H    0.150660
    16  H    0.149798
    17  H    0.153784
    18  H    0.155868
    19  H    0.154000
    20  H    0.160355
    21  C   -0.170984
    22  C   -0.217742
    23  C   -0.171222
    24  C    0.166849
    25  C   -0.179201
    26  C   -0.216267
    27  H    0.225716
    28  H    0.223609
    29  H    0.275815
    30  H    0.276131
    31  H    0.223576
    32  N    0.489394
    33  O   -0.460680
    34  O   -0.460733
 Sum of Mulliken charges =  -0.00000

 Dipole moment (field-independent basis, Debye):
    X=              0.3745    Y=              5.1165    Z=              0.4483  Tot=              5.1497
 Quadrupole moment (field-independent basis, Debye-Ang):
   XX=            -97.0080   YY=            -95.5727   ZZ=            -92.2066
   XY=            -15.3732   XZ=             -4.1786   YZ=             -2.0281

 Normal termination of Gaussian 16 at Wed May  5 23:34:39 2021.
