 Gaussian 16, Revision A.03,
 Gaussian 16:  EM64L-G16RevA.03 25-Dec-2016

 -------------
 #p 6-31g* mp2
 -------------

 ------------------------------------------------------
 Input file generated by CHIRIPA (05-May-2021 14:53:15)
 ------------------------------------------------------
 Symbolic Z-matrix:
 Charge =  0 Multiplicity = 1

                         Standard orientation:
 ---------------------------------------------------------------------
 Center     Atomic      Atomic             Coordinates (Angstroms)
 Number     Number       Type             X           Y           Z
 ---------------------------------------------------------------------
      1          6           0        5.565923   -0.279844    0.305094
      2          6           0        6.265936   -0.448834   -1.043761
      3          6           0        7.677026   -1.022123   -0.909749
      4          1           0        6.170802    0.376923    0.945190
      5          1           0        5.520354   -1.254060    0.811277
      6          1           0        6.308938    0.525155   -1.547856
      7          1           0        5.659224   -1.105122   -1.680789
      8          1           0        7.649274   -2.005634   -0.429607
      9          1           0        8.302679   -0.366095   -0.295920
     10          1           0        8.159033   -1.134621   -1.885901
     11          6           0        4.154336    0.292296    0.187587
     12          6           0        3.454323    0.461287    1.536442
     13          6           0        2.043233    1.034575    1.402430
     14          1           0        4.199905    1.266512   -0.318596
     15          1           0        3.549457   -0.364471   -0.452508
     16          1           0        4.061035    1.117574    2.173470
     17          1           0        3.411322   -0.512703    2.040537
     18          1           0        1.417580    0.378547    0.788601
     19          1           0        2.070985    2.018086    0.922289
     20          1           0        1.561226    1.147074    2.378582
     21          6           0       -2.199813    1.898543   -0.630669
     22          6           0       -1.707893    0.605771   -0.422648
     23          6           0       -2.583591   -0.456457   -0.178983
     24          6           0       -3.951384   -0.188879   -0.150089
     25          6           0       -4.472194    1.088085   -0.353582
     26          6           0       -3.577964    2.135158   -0.595534
     27          1           0       -1.512352    2.717821   -0.819289
     28          1           0       -0.638092    0.419069   -0.449369
     29          1           0       -2.229849   -1.467035   -0.014620
     30          1           0       -5.543783    1.243176   -0.320989
     31          1           0       -3.962836    3.138120   -0.756738
     32          7           0       -4.888256   -1.305390    0.106962
     33          8           0       -6.088928   -1.043460    0.127389
     34          8           0       -4.404165   -2.421298    0.283144
 ---------------------------------------------------------------------

 SCF Done:  E(RHF) =  -669.535481687     A.U. after   15 cycles
 E2 =    -0.2090752911D+01 EUMP2 =    -0.67162623459814D+03

 The electronic state is 1-A.
 Alpha  occ. eigenvalues --  -20.60720 -20.60715 -15.85773 -11.31126 -11.27695
 Alpha  occ. eigenvalues --  -11.27685 -11.27425 -11.26709 -11.26665 -11.22341
 Alpha  occ. eigenvalues --  -11.22103 -11.22055 -11.22034 -11.21877 -11.21417
 Alpha  occ. eigenvalues --   -1.59796  -1.39350  -1.19295  -1.09035  -1.08690
 Alpha  occ. eigenvalues --   -1.04697  -1.04153  -0.96624  -0.95528  -0.87649
 Alpha  occ. eigenvalues --   -0.86092  -0.82363  -0.80227  -0.78826  -0.77413
 Alpha  occ. eigenvalues --   -0.71991  -0.71119  -0.70401  -0.65670  -0.64946
 Alpha  occ. eigenvalues --   -0.64717  -0.62089  -0.61524  -0.59986  -0.58216
 Alpha  occ. eigenvalues --   -0.55942  -0.55188  -0.53327  -0.53152  -0.53015
 Alpha  occ. eigenvalues --   -0.52687  -0.50558  -0.48760  -0.48747  -0.48521
 Alpha  occ. eigenvalues --   -0.47244  -0.46375  -0.46277  -0.44758  -0.44390
 Alpha  occ. eigenvalues --   -0.37271  -0.36296
 Alpha virt. eigenvalues --    0.05121   0.11327   0.16603   0.20257   0.22435
 Alpha virt. eigenvalues --    0.23765   0.25248   0.26277   0.27121   0.28048
 Alpha virt. eigenvalues --    0.28880   0.29791   0.31190   0.31455   0.32087

 Mulliken charges:
               1
     1  C   -0.298783
     2  C   -0.300053
     3  C   -0.476064
     4  H    0.150899
     5  H    0.151189
     6  H    0.151796
     7  H    0.152197
     8  H    0.156207
     9  H    0.155758
    10  H    0.161408
    11  C   -0.298572
    12  C   -0.299638
    13  C   -0.479177
    14  H    0.148955
    15  H    0.147581
    16  H    0.155115
    17  H    0.155223
    18  H    0.147437
    19  H    0.153208
    20  H    0.166147
    21  C   -0.172485
    22  C   -0.221933
    23  C   -0.172800
    24  C    0.158695
    25  C   -0.171221
    26  C   -0.218583
    27  H    0.225982
    28  H    0.231144
    29  H    0.275150
    30  H    0.275335
    31  H    0.223099
    32  N    0.488103
    33  O   -0.460665
    34  O   -0.460656
 Sum of Mulliken charges =  -0.00000

 Dipole moment (field-independent basis, Debye):
    X=              3.5047    Y=              3.9486    Z=             -0.8442  Tot=              5.3467
 Quadrupole moment (field-independent basis, Debye-Ang):
   XX=           -118.3734   YY=            -93.8843   ZZ=            -95.1954
   XY=            -18.4052   XZ=              3.6948   YZ=             -0.6255

 Normal termination of Gaussian 16 at Wed May  5 20:16:04 2021.
