 Gaussian 16, Revision A.03,
 Gaussian 16:  EM64L-G16RevA.03 25-Dec-2016

 -------------
 #p 6-31g* mp2
 -------------

 ------------------------------------------------------
 Input file generated by CHIRIPA (05-May-2021 14:55:23)
 ------------------------------------------------------
 Symbolic Z-matrix:
 Charge =  0 Multiplicity = 1

                         Standard orientation:
 ---------------------------------------------------------------------
 Center     Atomic      Atomic             Coordinates (Angstroms)
 Number     Number       Type             X           Y           Z
 ---------------------------------------------------------------------
      1          6           0       -4.250746    2.169867   -0.598122
      2          6           0       -3.760036    1.273655   -1.553385
      3          6           0       -3.091254    0.111087   -1.158778
      4          6           0       -2.930127   -0.124961    0.205630
      5          6           0       -3.407594    0.748669    1.181379
      6          6           0       -4.073271    1.904981    0.763811
      7          1           0       -4.769066    3.070548   -0.913580
      8          1           0       -3.896413    1.476792   -2.611771
      9          1           0       -2.701269   -0.599750   -1.877137
     10          1           0       -3.256350    0.519016    2.229140
     11          1           0       -4.453305    2.599208    1.507900
     12          7           0       -2.223761   -1.352408    0.635537
     13          8           0       -2.094722   -1.537441    1.843738
     14          8           0       -1.812525   -2.106208   -0.243843
     15          6           0        4.450333    0.161072    0.288429
     16          6           0        5.160813    1.401065   -0.255282
     17          6           0        6.260004    1.909460    0.678049
     18          1           0        4.019435    0.394748    1.271621
     19          1           0        5.190273   -0.634510    0.452543
     20          1           0        4.419548    2.193613   -0.419628
     21          1           0        5.589906    1.164466   -1.237379
     22          1           0        7.020852    1.137734    0.833455
     23          1           0        5.843845    2.172730    1.655853
     24          1           0        6.754749    2.796343    0.269971
     25          6           0        3.348823   -0.359055   -0.633456
     26          6           0        2.638342   -1.599047   -0.089745
     27          6           0        1.539150   -2.107443   -1.023076
     28          1           0        2.608882    0.436527   -0.797571
     29          1           0        3.779721   -0.592731   -1.616648
     30          1           0        2.209250   -1.362449    0.892352
     31          1           0        3.379607   -2.391596    0.074601
     32          1           0        1.955311   -2.370712   -2.000880
     33          1           0        0.778304   -1.335716   -1.178482
     34          1           0        1.044407   -2.994326   -0.614998
 ---------------------------------------------------------------------

 SCF Done:  E(RHF) =  -669.535558167     A.U. after   15 cycles
 E2 =    -0.2091402035D+01 EUMP2 =    -0.67162696020229D+03

 The electronic state is 1-A.
 Alpha  occ. eigenvalues --  -20.60916 -20.60876 -15.85918 -11.31274 -11.27837
 Alpha  occ. eigenvalues --  -11.27833 -11.27578 -11.26851 -11.26841 -11.21247
 Alpha  occ. eigenvalues --  -11.20879 -11.20786 -11.20734 -11.20606 -11.19697
 Alpha  occ. eigenvalues --   -1.59959  -1.39515  -1.19444  -1.08843  -1.07815
 Alpha  occ. eigenvalues --   -1.04842  -1.02820  -0.95688  -0.95243  -0.86272
 Alpha  occ. eigenvalues --   -0.86236  -0.82513  -0.78917  -0.77624  -0.77540
 Alpha  occ. eigenvalues --   -0.72150  -0.71281  -0.70550  -0.65099  -0.64845
 Alpha  occ. eigenvalues --   -0.64457  -0.62189  -0.60227  -0.58660  -0.56842
 Alpha  occ. eigenvalues --   -0.55345  -0.54560  -0.53174  -0.52934  -0.51889
 Alpha  occ. eigenvalues --   -0.51690  -0.49263  -0.48914  -0.48876  -0.47210
 Alpha  occ. eigenvalues --   -0.46032  -0.45202  -0.45113  -0.44691  -0.43036
 Alpha  occ. eigenvalues --   -0.37423  -0.36445
 Alpha virt. eigenvalues --    0.04951   0.11195   0.16425   0.21315   0.23413
 Alpha virt. eigenvalues --    0.25014   0.27045   0.27303   0.27949   0.28119
 Alpha virt. eigenvalues --    0.28913   0.30784   0.31808   0.32303   0.32717

 Mulliken charges:
               1
     1  C   -0.170705
     2  C   -0.218480
     3  C   -0.171677
     4  C    0.158056
     5  C   -0.170970
     6  C   -0.218539
     7  H    0.225932
     8  H    0.223900
     9  H    0.276389
    10  H    0.275746
    11  H    0.223737
    12  N    0.487952
    13  O   -0.460091
    14  O   -0.456992
    15  C   -0.297649
    16  C   -0.298858
    17  C   -0.475290
    18  H    0.149445
    19  H    0.149290
    20  H    0.149773
    21  H    0.150985
    22  H    0.155219
    23  H    0.154679
    24  H    0.158393
    25  C   -0.297005
    26  C   -0.301699
    27  C   -0.471516
    28  H    0.145341
    29  H    0.147284
    30  H    0.154726
    31  H    0.149020
    32  H    0.144989
    33  H    0.151889
    34  H    0.176726
 Sum of Mulliken charges =  -0.00000

 Dipole moment (field-independent basis, Debye):
    X=             -2.7422    Y=              4.2102    Z=             -1.4583  Tot=              5.2318
 Quadrupole moment (field-independent basis, Debye-Ang):
   XX=            -81.8556   YY=            -95.7758   ZZ=            -91.0901
   XY=            -13.8051   XZ=              2.7050   YZ=              2.4392

 Normal termination of Gaussian 16 at Thu May  6 03:06:30 2021.
