 Gaussian 16, Revision A.03,
 Gaussian 16:  EM64L-G16RevA.03 25-Dec-2016

 -------------
 #p 6-31g* mp2
 -------------

 ------------------------------------------------------
 Input file generated by CHIRIPA (05-May-2021 14:53:16)
 ------------------------------------------------------
 Symbolic Z-matrix:
 Charge =  0 Multiplicity = 1

                         Standard orientation:
 ---------------------------------------------------------------------
 Center     Atomic      Atomic             Coordinates (Angstroms)
 Number     Number       Type             X           Y           Z
 ---------------------------------------------------------------------
      1          6           0       -4.074561    0.779589   -0.284276
      2          6           0       -2.808877    1.573948   -0.608349
      3          6           0       -3.093349    3.049065   -0.892783
      4          1           0       -4.777646    0.863567   -1.124254
      5          1           0       -4.570800    1.232556    0.585185
      6          1           0       -2.314436    1.118789   -1.476090
      7          1           0       -2.108646    1.487912    0.232417
      8          1           0       -3.565604    3.524258   -0.026892
      9          1           0       -3.772564    3.153038   -1.745107
     10          1           0       -2.174751    3.598131   -1.122054
     11          6           0       -3.806443   -0.696778    0.002398
     12          6           0       -5.072126   -1.491137    0.326471
     13          6           0       -4.787655   -2.966253    0.610905
     14          1           0       -3.310204   -1.149744   -0.867064
     15          1           0       -3.103358   -0.780756    0.842376
     16          1           0       -5.772358   -1.405100   -0.514296
     17          1           0       -5.566567   -1.035978    1.194212
     18          1           0       -4.108440   -3.070227    1.463229
     19          1           0       -4.315400   -3.441446   -0.254986
     20          1           0       -5.706253   -3.515319    0.840176
     21          6           0        0.972567    1.110360    0.900752
     22          6           0        2.207600    1.453475    1.460652
     23          6           0        3.380924    0.826859    1.030290
     24          6           0        3.282113   -0.142821    0.033672
     25          6           0        2.066506   -0.506517   -0.543664
     26          6           0        0.906080    0.133181   -0.097858
     27          1           0        0.066110    1.602211    1.241066
     28          1           0        2.262247    2.212003    2.236341
     29          1           0        4.350180    1.073214    1.446546
     30          1           0        2.043771   -1.266464   -1.315275
     31          1           0       -0.051686   -0.135306   -0.534487
     32          7           0        4.517432   -0.813117   -0.430107
     33          8           0        4.403582   -1.664190   -1.309509
     34          8           0        5.576133   -0.474728    0.094566
 ---------------------------------------------------------------------

 SCF Done:  E(RHF) =  -669.535282664     A.U. after   15 cycles
 E2 =    -0.2092001433D+01 EUMP2 =    -0.67162728409694D+03

 The electronic state is 1-A.
 Alpha  occ. eigenvalues --  -20.60698 -20.60693 -15.85750 -11.31096 -11.27664
 Alpha  occ. eigenvalues --  -11.27645 -11.27374 -11.26681 -11.26607 -11.22941
 Alpha  occ. eigenvalues --  -11.22416 -11.22362 -11.22309 -11.22107 -11.21664
 Alpha  occ. eigenvalues --   -1.59774  -1.39328  -1.19261  -1.09437  -1.08659
 Alpha  occ. eigenvalues --   -1.04662  -1.04472  -0.96878  -0.95503  -0.87899
 Alpha  occ. eigenvalues --   -0.86060  -0.82334  -0.80596  -0.79256  -0.77376
 Alpha  occ. eigenvalues --   -0.71969  -0.71097  -0.70400  -0.66063  -0.64911
 Alpha  occ. eigenvalues --   -0.64665  -0.62017  -0.61872  -0.60259  -0.58503
 Alpha  occ. eigenvalues --   -0.56155  -0.55174  -0.53582  -0.53295  -0.52993
 Alpha  occ. eigenvalues --   -0.52747  -0.50819  -0.48873  -0.48727  -0.48712
 Alpha  occ. eigenvalues --   -0.47620  -0.46755  -0.46680  -0.44738  -0.44726
 Alpha  occ. eigenvalues --   -0.37241  -0.36263
 Alpha virt. eigenvalues --    0.05144   0.11362   0.16639   0.19458   0.22543
 Alpha virt. eigenvalues --    0.23482   0.24279   0.25231   0.26855   0.28111
 Alpha virt. eigenvalues --    0.29107   0.30243   0.31055   0.31245   0.31618

 Mulliken charges:
               1
     1  C   -0.297523
     2  C   -0.307071
     3  C   -0.476488
     4  H    0.154296
     5  H    0.152129
     6  H    0.152721
     7  H    0.143489
     8  H    0.157140
     9  H    0.160534
    10  H    0.162043
    11  C   -0.300763
    12  C   -0.300165
    13  C   -0.476545
    14  H    0.148253
    15  H    0.147364
    16  H    0.154285
    17  H    0.153567
    18  H    0.155914
    19  H    0.156146
    20  H    0.163110
    21  C   -0.175794
    22  C   -0.218520
    23  C   -0.171244
    24  C    0.158538
    25  C   -0.171796
    26  C   -0.222970
    27  H    0.229281
    28  H    0.223041
    29  H    0.275138
    30  H    0.275288
    31  H    0.229956
    32  N    0.488053
    33  O   -0.460680
    34  O   -0.460727
 Sum of Mulliken charges =  -0.00000

 Dipole moment (field-independent basis, Debye):
    X=             -4.6582    Y=              2.3766    Z=              1.5855  Tot=              5.4645
 Quadrupole moment (field-independent basis, Debye-Ang):
   XX=           -121.3069   YY=            -95.2602   ZZ=            -92.0602
   XY=             10.1381   XZ=              7.5033   YZ=              2.2313

 Normal termination of Gaussian 16 at Wed May  5 23:34:16 2021.
