 Gaussian 16, Revision A.03,
 Gaussian 16:  EM64L-G16RevA.03 25-Dec-2016

 -------------
 #p 6-31g* mp2
 -------------

 ------------------------------------------------------
 Input file generated by CHIRIPA (05-May-2021 14:51:10)
 ------------------------------------------------------
 Symbolic Z-matrix:
 Charge =  0 Multiplicity = 1

                         Standard orientation:
 ---------------------------------------------------------------------
 Center     Atomic      Atomic             Coordinates (Angstroms)
 Number     Number       Type             X           Y           Z
 ---------------------------------------------------------------------
      1          6           0       -2.627120   -0.173224   -0.392495
      2          6           0       -3.417046    1.086526   -0.036081
      3          6           0       -4.077068    1.734622   -1.253511
      4          1           0       -1.859101    0.081271   -1.135680
      5          1           0       -3.300506   -0.895917   -0.873807
      6          1           0       -2.742675    1.806082    0.445666
      7          1           0       -4.183149    0.829041    0.706485
      8          1           0       -4.771763    1.036848   -1.732167
      9          1           0       -3.323104    2.019440   -1.994469
     10          1           0       -4.636468    2.633451   -0.975952
     11          6           0       -1.961456   -0.832521    0.814132
     12          6           0       -1.171530   -2.092271    0.457718
     13          6           0       -0.511508   -2.740367    1.675149
     14          1           0       -1.288070   -0.109828    1.295444
     15          1           0       -2.729476   -1.087015    1.557317
     16          1           0       -0.405427   -1.834786   -0.284847
     17          1           0       -1.845901   -2.811827   -0.024028
     18          1           0       -1.265472   -3.025185    2.416106
     19          1           0        0.183186   -2.042593    2.153805
     20          1           0        0.047891   -3.639196    1.397589
     21          6           0        2.611404    1.187843   -0.093840
     22          6           0        1.669656    2.184450    0.582821
     23          6           0        2.318438    3.550180    0.810104
     24          1           0        3.513273    1.068992    0.522158
     25          1           0        2.942538    1.602218   -1.056150
     26          1           0        1.339306    1.767717    1.542935
     27          1           0        0.769840    2.300798   -0.034764
     28          1           0        2.632532    3.990655   -0.141699
     29          1           0        3.205235    3.454545    1.444964
     30          1           0        1.627685    4.247093    1.294906
     31          6           0        1.977172   -0.182099   -0.327798
     32          6           0        2.918921   -1.178705   -1.004458
     33          6           0        2.270138   -2.544435   -1.231742
     34          1           0        1.646038   -0.596473    0.634512
     35          1           0        1.075304   -0.063247   -0.943796
     36          1           0        3.818737   -1.295052   -0.386873
     37          1           0        3.249270   -0.761972   -1.964572
     38          1           0        1.383341   -2.448801   -1.866601
     39          1           0        1.956044   -2.984910   -0.279938
     40          1           0        2.960891   -3.241348   -1.716544
 ---------------------------------------------------------------------

 SCF Done:  E(RHF) =  -470.730980067     A.U. after   11 cycles
 E2 =    -0.1586696376D+01 EUMP2 =    -0.47231767644296D+03

 The electronic state is 1-A.
 Alpha  occ. eigenvalues --  -11.21706 -11.21667 -11.21567 -11.21481 -11.21421
 Alpha  occ. eigenvalues --  -11.21353 -11.21335 -11.21240 -11.21142 -11.21075
 Alpha  occ. eigenvalues --  -11.21058 -11.21032  -1.08569  -1.08311  -1.03662
 Alpha  occ. eigenvalues --   -1.03415  -0.96069  -0.95920  -0.87082  -0.86941
 Alpha  occ. eigenvalues --   -0.79762  -0.79482  -0.78443  -0.78089  -0.65164
 Alpha  occ. eigenvalues --   -0.64992  -0.61055  -0.60915  -0.59496  -0.59213
 Alpha  occ. eigenvalues --   -0.57828  -0.57383  -0.55369  -0.55206  -0.52739
 Alpha  occ. eigenvalues --   -0.52681  -0.52504  -0.52278  -0.49990  -0.49901
 Alpha  occ. eigenvalues --   -0.48179  -0.47760  -0.46793  -0.46575  -0.46170
 Alpha  occ. eigenvalues --   -0.45901  -0.45492  -0.45020  -0.43859  -0.43706
 Alpha virt. eigenvalues --    0.20064   0.22182   0.23407   0.23789   0.25198
 Alpha virt. eigenvalues --    0.26225   0.26524   0.28231   0.28730   0.29934
 Alpha virt. eigenvalues --    0.30688   0.31411   0.31696   0.31825   0.32444

 Mulliken charges:
               1
     1  C   -0.299522
     2  C   -0.300146
     3  C   -0.475574
     4  H    0.149208
     5  H    0.149445
     6  H    0.152495
     7  H    0.152034
     8  H    0.155165
     9  H    0.154553
    10  H    0.160192
    11  C   -0.299394
    12  C   -0.309071
    13  C   -0.479213
    14  H    0.151368
    15  H    0.148901
    16  H    0.166649
    17  H    0.150657
    18  H    0.155590
    19  H    0.154241
    20  H    0.160272
    21  C   -0.297206
    22  C   -0.301097
    23  C   -0.475777
    24  H    0.149985
    25  H    0.149738
    26  H    0.151983
    27  H    0.152049
    28  H    0.155517
    29  H    0.155542
    30  H    0.160584
    31  C   -0.308703
    32  C   -0.298145
    33  C   -0.483231
    34  H    0.156408
    35  H    0.151678
    36  H    0.152124
    37  H    0.151919
    38  H    0.156066
    39  H    0.161844
    40  H    0.160872
 Sum of Mulliken charges =  -0.00000

 Dipole moment (field-independent basis, Debye):
    X=              0.0699    Y=              0.0003    Z=             -0.0126  Tot=              0.0710
 Quadrupole moment (field-independent basis, Debye-Ang):
   XX=            -84.4247   YY=            -85.8007   ZZ=            -84.6483
   XY=              0.2987   XZ=             -0.2868   YZ=             -0.0927

 Normal termination of Gaussian 16 at Wed May  5 16:40:42 2021.
