 Gaussian 16, Revision A.03,
 Gaussian 16:  EM64L-G16RevA.03 25-Dec-2016

 -------------
 #p 6-31g* mp2
 -------------

 ------------------------------------------------------
 Input file generated by CHIRIPA (05-May-2021 14:53:16)
 ------------------------------------------------------
 Symbolic Z-matrix:
 Charge =  0 Multiplicity = 1

                         Standard orientation:
 ---------------------------------------------------------------------
 Center     Atomic      Atomic             Coordinates (Angstroms)
 Number     Number       Type             X           Y           Z
 ---------------------------------------------------------------------
      1          6           0        3.691663   -0.387067   -0.269045
      2          6           0        4.215018    1.046669   -0.361170
      3          6           0        5.291725    1.215181   -1.433597
      4          1           0        4.530717   -1.064056   -0.057813
      5          1           0        3.287282   -0.685871   -1.246075
      6          1           0        4.617035    1.343162    0.616117
      7          1           0        3.374591    1.720347   -0.572018
      8          1           0        4.899031    0.945840   -2.419420
      9          1           0        6.148535    0.566512   -1.224535
     10          1           0        5.651731    2.247597   -1.482308
     11          6           0        2.614704   -0.571428    0.798614
     12          6           0        2.091349   -2.005164    0.890739
     13          6           0        1.014642   -2.173676    1.963166
     14          1           0        3.019085   -0.272624    1.775644
     15          1           0        1.775650    0.105561    0.587382
     16          1           0        2.931776   -2.678841    1.101587
     17          1           0        1.689332   -2.301657   -0.086548
     18          1           0        0.157832   -1.525007    1.754103
     19          1           0        1.407335   -1.904334    2.948989
     20          1           0        0.654636   -3.206092    2.011877
     21          6           0       -1.678452    2.521943    0.859839
     22          6           0       -0.760368    1.679905    0.223744
     23          6           0       -1.184054    0.487550   -0.370670
     24          6           0       -2.539313    0.166797   -0.309988
     25          6           0       -3.478296    0.984888    0.316371
     26          6           0       -3.032099    2.172363    0.904045
     27          1           0       -1.340578    3.446297    1.318977
     28          1           0        0.291501    1.948845    0.187876
     29          1           0       -0.494724   -0.182725   -0.869641
     30          1           0       -4.520434    0.689955    0.335912
     31          1           0       -3.747340    2.824372    1.397360
     32          7           0       -2.999767   -1.092912   -0.935699
     33          8           0       -4.199169   -1.352836   -0.868547
     34          8           0       -2.152548   -1.796497   -1.481436
 ---------------------------------------------------------------------

 SCF Done:  E(RHF) =  -669.535046502     A.U. after   15 cycles
 E2 =    -0.2093414988D+01 EUMP2 =    -0.67162846149003D+03

 The electronic state is 1-A.
 Alpha  occ. eigenvalues --  -20.60806 -20.60801 -15.85860 -11.31246 -11.27811
 Alpha  occ. eigenvalues --  -11.27804 -11.27538 -11.26823 -11.26805 -11.22232
 Alpha  occ. eigenvalues --  -11.21959 -11.21866 -11.21805 -11.21527 -11.21106
 Alpha  occ. eigenvalues --   -1.59880  -1.39433  -1.19419  -1.08917  -1.08801
 Alpha  occ. eigenvalues --   -1.04830  -1.03901  -0.96341  -0.95637  -0.87357
 Alpha  occ. eigenvalues --   -0.86215  -0.82482  -0.79979  -0.78757  -0.77508
 Alpha  occ. eigenvalues --   -0.72078  -0.71203  -0.70523  -0.65622  -0.65051
 Alpha  occ. eigenvalues --   -0.64824  -0.62200  -0.61254  -0.59713  -0.57948
 Alpha  occ. eigenvalues --   -0.55644  -0.55308  -0.53157  -0.53003  -0.52946
 Alpha  occ. eigenvalues --   -0.52712  -0.50298  -0.48838  -0.48831  -0.48280
 Alpha  occ. eigenvalues --   -0.47028  -0.46264  -0.46174  -0.44832  -0.44183
 Alpha  occ. eigenvalues --   -0.37386  -0.36379
 Alpha virt. eigenvalues --    0.04980   0.11168   0.16375   0.19105   0.22877
 Alpha virt. eigenvalues --    0.23294   0.24785   0.26188   0.27515   0.28348
 Alpha virt. eigenvalues --    0.29685   0.30918   0.31414   0.31576   0.32082

 Mulliken charges:
               1
     1  C   -0.299015
     2  C   -0.299358
     3  C   -0.475937
     4  H    0.153724
     5  H    0.151037
     6  H    0.153047
     7  H    0.143141
     8  H    0.157055
     9  H    0.157794
    10  H    0.160662
    11  C   -0.303876
    12  C   -0.303024
    13  C   -0.477601
    14  H    0.151183
    15  H    0.140918
    16  H    0.154354
    17  H    0.157994
    18  H    0.155747
    19  H    0.152976
    20  H    0.166041
    21  C   -0.171335
    22  C   -0.221280
    23  C   -0.172093
    24  C    0.157747
    25  C   -0.170748
    26  C   -0.218300
    27  H    0.226321
    28  H    0.227586
    29  H    0.277869
    30  H    0.275891
    31  H    0.223807
    32  N    0.488512
    33  O   -0.460045
    34  O   -0.460791
 Sum of Mulliken charges =  -0.00000

 Dipole moment (field-independent basis, Debye):
    X=              1.6587    Y=              4.3392    Z=              2.2021  Tot=              5.1410
 Quadrupole moment (field-independent basis, Debye-Ang):
   XX=            -98.1132   YY=            -93.4123   ZZ=            -96.5481
   XY=            -12.8854   XZ=             -6.7322   YZ=             -0.5762

 Normal termination of Gaussian 16 at Thu May  6 13:52:52 2021.
