 Gaussian 16, Revision A.03,
 Gaussian 16:  EM64L-G16RevA.03 25-Dec-2016

 -------------
 #p 6-31g* mp2
 -------------

 ------------------------------------------------------
 Input file generated by CHIRIPA (05-May-2021 14:55:18)
 ------------------------------------------------------
 Symbolic Z-matrix:
 Charge =  0 Multiplicity = 1

                         Standard orientation:
 ---------------------------------------------------------------------
 Center     Atomic      Atomic             Coordinates (Angstroms)
 Number     Number       Type             X           Y           Z
 ---------------------------------------------------------------------
      1          6           0        3.301682    2.472035    0.708310
      2          6           0        2.212391    1.757978    1.218299
      3          6           0        1.933785    0.466214    0.761929
      4          6           0        2.768971   -0.083370   -0.209520
      5          6           0        3.861752    0.602727   -0.737146
      6          6           0        4.121440    1.893151   -0.266067
      7          1           0        3.510762    3.474988    1.068543
      8          1           0        1.574050    2.205033    1.975073
      9          1           0        1.097105   -0.108940    1.139529
     10          1           0        4.480111    0.130600   -1.490900
     11          1           0        4.968091    2.445355   -0.663936
     12          7           0        2.484037   -1.450193   -0.700444
     13          8           0        3.235008   -1.912021   -1.556828
     14          8           0        1.515129   -2.033800   -0.219551
     15          6           0       -3.340212   -0.871114    0.360208
     16          6           0       -1.981968   -0.823685    1.060857
     17          6           0       -1.466687   -2.210765    1.445939
     18          1           0       -4.068243   -1.364537    1.018577
     19          1           0       -3.259010   -1.496043   -0.539938
     20          1           0       -2.065363   -0.197903    1.958666
     21          1           0       -1.257133   -0.330146    0.400822
     22          1           0       -1.355122   -2.840632    0.557444
     23          1           0       -2.167944   -2.707639    2.124140
     24          1           0       -0.494536   -2.153489    1.945442
     25          6           0       -3.868571    0.507853   -0.030968
     26          6           0       -5.226815    0.460425   -0.731617
     27          6           0       -5.742097    1.847504   -1.116699
     28          1           0       -3.949773    1.132782    0.869179
     29          1           0       -3.140540    1.001277   -0.689337
     30          1           0       -5.951651   -0.033115   -0.071582
     31          1           0       -5.143421   -0.165358   -1.629425
     32          1           0       -5.040839    2.344378   -1.794899
     33          1           0       -5.853661    2.477371   -0.228204
     34          1           0       -6.714248    1.790228   -1.616201
 ---------------------------------------------------------------------

 SCF Done:  E(RHF) =  -669.535361634     A.U. after   15 cycles
 E2 =    -0.2092529211D+01 EUMP2 =    -0.67162789084498D+03

 The electronic state is 1-A.
 Alpha  occ. eigenvalues --  -20.60845 -20.60833 -15.85878 -11.31211 -11.27783
 Alpha  occ. eigenvalues --  -11.27738 -11.27520 -11.26795 -11.26775 -11.21493
 Alpha  occ. eigenvalues --  -11.21381 -11.21273 -11.21131 -11.21023 -11.20319
 Alpha  occ. eigenvalues --   -1.59913  -1.39468  -1.19384  -1.08788  -1.08238
 Alpha  occ. eigenvalues --   -1.04781  -1.03283  -0.95744  -0.95570  -0.86692
 Alpha  occ. eigenvalues --   -0.86184  -0.82459  -0.79371  -0.78091  -0.77509
 Alpha  occ. eigenvalues --   -0.72114  -0.71230  -0.70496  -0.65053  -0.64900
 Alpha  occ. eigenvalues --   -0.64743  -0.62172  -0.60635  -0.59072  -0.57329
 Alpha  occ. eigenvalues --   -0.55284  -0.54931  -0.53115  -0.52878  -0.52349
 Alpha  occ. eigenvalues --   -0.52110  -0.49605  -0.48859  -0.48831  -0.47676
 Alpha  occ. eigenvalues --   -0.46392  -0.45612  -0.45525  -0.44864  -0.43529
 Alpha  occ. eigenvalues --   -0.37368  -0.36376
 Alpha virt. eigenvalues --    0.04978   0.11210   0.16501   0.20799   0.23123
 Alpha virt. eigenvalues --    0.24075   0.26452   0.26850   0.27578   0.27900
 Alpha virt. eigenvalues --    0.29445   0.30886   0.31566   0.31685   0.32004

 Mulliken charges:
               1
     1  C   -0.170301
     2  C   -0.222044
     3  C   -0.176510
     4  C    0.155173
     5  C   -0.170157
     6  C   -0.218909
     7  H    0.225735
     8  H    0.224482
     9  H    0.289753
    10  H    0.275534
    11  H    0.223500
    12  N    0.491323
    13  O   -0.459852
    14  O   -0.464707
    15  C   -0.297651
    16  C   -0.306724
    17  C   -0.471327
    18  H    0.149571
    19  H    0.154330
    20  H    0.142947
    21  H    0.149916
    22  H    0.170629
    23  H    0.148648
    24  H    0.160711
    25  C   -0.298151
    26  C   -0.299648
    27  C   -0.475556
    28  H    0.146323
    29  H    0.148649
    30  H    0.152006
    31  H    0.153554
    32  H    0.154613
    33  H    0.153766
    34  H    0.160375
 Sum of Mulliken charges =  -0.00000

 Dipole moment (field-independent basis, Debye):
    X=              1.0909    Y=              4.6685    Z=              1.6256  Tot=              5.0624
 Quadrupole moment (field-independent basis, Debye-Ang):
   XX=            -86.6561   YY=            -96.7149   ZZ=            -93.6966
   XY=             14.4309   XZ=              1.4948   YZ=             -0.7950

 Normal termination of Gaussian 16 at Thu May  6 04:27:30 2021.
