 Gaussian 16, Revision A.03,
 Gaussian 16:  EM64L-G16RevA.03 25-Dec-2016

 -------------
 #p 6-31g* mp2
 -------------

 ------------------------------------------------------
 Input file generated by CHIRIPA (05-May-2021 14:57:26)
 ------------------------------------------------------
 Symbolic Z-matrix:
 Charge =  0 Multiplicity = 1

                         Standard orientation:
 ---------------------------------------------------------------------
 Center     Atomic      Atomic             Coordinates (Angstroms)
 Number     Number       Type             X           Y           Z
 ---------------------------------------------------------------------
      1          6           0        2.867242    2.654062    0.131169
      2          6           0        4.122847    2.229275    0.577860
      3          6           0        4.510253    0.892922    0.441386
      4          6           0        3.613092    0.004260   -0.149099
      5          6           0        2.355271    0.396926   -0.604059
      6          6           0        1.989009    1.738146   -0.457327
      7          1           0        2.574508    3.694063    0.241169
      8          1           0        4.806943    2.938378    1.035277
      9          1           0        5.476273    0.537102    0.778455
     10          1           0        1.694922   -0.333222   -1.055989
     11          1           0        1.013258    2.065214   -0.805150
     12          7           0        4.012029   -1.413053   -0.299007
     13          8           0        3.203399   -2.176311   -0.822641
     14          8           0        5.125792   -1.733848    0.109968
     15          6           0       -1.331679   -1.151894    0.912607
     16          6           0       -1.545960   -0.913117   -0.448858
     17          6           0       -2.769658   -0.406806   -0.896921
     18          6           0       -3.761545   -0.149485    0.048190
     19          6           0       -3.578455   -0.376883    1.411297
     20          6           0       -2.346821   -0.883488    1.836710
     21          1           0       -0.377998   -1.545323    1.251876
     22          1           0       -0.759393   -1.120631   -1.168787
     23          1           0       -2.962374   -0.212689   -1.945062
     24          1           0       -4.381571   -0.160183    2.105172
     25          1           0       -2.183219   -1.067954    2.894657
     26          7           0       -5.061219    0.386680   -0.414165
     27          8           0       -5.919009    0.605073    0.438560
     28          8           0       -5.197506    0.578380   -1.620529
 ---------------------------------------------------------------------

 SCF Done:  E(RHF) =  -868.338009117     A.U. after   16 cycles
 E2 =    -0.2599830529D+01 EUMP2 =    -0.87093783964644D+03

 The electronic state is 1-A.
 Alpha  occ. eigenvalues --  -20.61591 -20.61553 -20.61040 -20.61034 -15.86623
 Alpha  occ. eigenvalues --  -15.86097 -11.31955 -11.31492 -11.28574 -11.28443
 Alpha  occ. eigenvalues --  -11.28148 -11.28113 -11.28066 -11.27776 -11.27478
 Alpha  occ. eigenvalues --  -11.27443 -11.27131 -11.27032  -1.60649  -1.60116
 Alpha  occ. eigenvalues --   -1.40206  -1.39669  -1.20097  -1.19678  -1.09482
 Alpha  occ. eigenvalues --   -1.09051  -1.05493  -1.05092  -0.96336  -0.95876
 Alpha  occ. eigenvalues --   -0.86890  -0.86480  -0.83166  -0.82714  -0.78250
 Alpha  occ. eigenvalues --   -0.77765  -0.72838  -0.72311  -0.71975  -0.71444
 Alpha  occ. eigenvalues --   -0.71202  -0.70726  -0.65742  -0.65520  -0.65317
 Alpha  occ. eigenvalues --   -0.65074  -0.62892  -0.62381  -0.55951  -0.55528
 Alpha  occ. eigenvalues --   -0.53824  -0.53601  -0.53404  -0.53143  -0.49611
 Alpha  occ. eigenvalues --   -0.49581  -0.49073  -0.49065  -0.45619  -0.45067
 Alpha  occ. eigenvalues --   -0.38045  -0.37677  -0.37066  -0.36698
 Alpha virt. eigenvalues --    0.04267   0.04792   0.10516   0.10873   0.15820
 Alpha virt. eigenvalues --    0.16245   0.19030   0.21787   0.24788   0.27169
 Alpha virt. eigenvalues --    0.27920   0.28843   0.30179   0.30905   0.31629

 Mulliken charges:
               1
     1  C   -0.170817
     2  C   -0.218020
     3  C   -0.170578
     4  C    0.159184
     5  C   -0.178386
     6  C   -0.218275
     7  H    0.229211
     8  H    0.226288
     9  H    0.277348
    10  H    0.269917
    11  H    0.227185
    12  N    0.487537
    13  O   -0.465125
    14  O   -0.456382
    15  C   -0.170968
    16  C   -0.227932
    17  C   -0.172260
    18  C    0.158156
    19  C   -0.170471
    20  C   -0.219310
    21  H    0.232870
    22  H    0.224804
    23  H    0.276028
    24  H    0.276548
    25  H    0.225466
    26  N    0.487982
    27  O   -0.459610
    28  O   -0.460389
 Sum of Mulliken charges =  -0.00000

 Dipole moment (field-independent basis, Debye):
    X=              3.2757    Y=              3.2157    Z=              2.3036  Tot=              5.1358
 Quadrupole moment (field-independent basis, Debye-Ang):
   XX=           -144.9569   YY=           -104.9705   ZZ=           -100.1216
   XY=             26.0834   XZ=             -3.3640   YZ=             -0.6127

 Normal termination of Gaussian 16 at Fri May  7 11:14:22 2021.
