 Gaussian 16, Revision A.03,
 Gaussian 16:  EM64L-G16RevA.03 25-Dec-2016

 -------------
 #p 6-31g* mp2
 -------------

 ------------------------------------------------------
 Input file generated by CHIRIPA (05-May-2021 14:51:08)
 ------------------------------------------------------
 Symbolic Z-matrix:
 Charge =  0 Multiplicity = 1

                         Standard orientation:
 ---------------------------------------------------------------------
 Center     Atomic      Atomic             Coordinates (Angstroms)
 Number     Number       Type             X           Y           Z
 ---------------------------------------------------------------------
      1          6           0        4.335356    0.062168   -0.055246
      2          6           0        5.031779   -1.277319   -0.297641
      3          6           0        6.405672   -1.119790   -0.949865
      4          1           0        4.230092    0.591885   -1.011941
      5          1           0        4.974490    0.689964    0.580973
      6          1           0        4.390903   -1.902928   -0.932077
      7          1           0        5.135225   -1.803993    0.659714
      8          1           0        7.065572   -0.517232   -0.317365
      9          1           0        6.317020   -0.616729   -1.918199
     10          1           0        6.885704   -2.089569   -1.114055
     11          6           0        2.960806   -0.078836    0.596258
     12          6           0        2.264383    1.260650    0.838653
     13          6           0        0.890489    1.103122    1.490877
     14          1           0        2.321672   -0.706632   -0.039962
     15          1           0        3.066070   -0.608554    1.552952
     16          1           0        2.160936    1.787325   -0.118702
     17          1           0        2.905258    1.886259    1.473088
     18          1           0        0.979141    0.600060    2.459211
     19          1           0        0.230590    0.500564    0.858376
     20          1           0        0.410457    2.072900    1.655066
     21          6           0       -3.654100    0.764466   -0.162526
     22          6           0       -2.530453    1.491542   -0.901961
     23          6           0       -2.555771    3.003544   -0.676124
     24          1           0       -4.621613    1.169335   -0.489551
     25          1           0       -3.573637    0.976958    0.912540
     26          1           0       -2.612186    1.276626   -1.975156
     27          1           0       -1.565510    1.084763   -0.573280
     28          1           0       -2.451141    3.235824    0.388629
     29          1           0       -3.503765    3.428776   -1.021212
     30          1           0       -1.744032    3.503416   -1.213775
     31          6           0       -3.642061   -0.747798   -0.378486
     32          6           0       -4.765708   -1.474874    0.360950
     33          6           0       -4.740390   -2.986875    0.135113
     34          1           0       -3.722524   -0.960289   -1.453551
     35          1           0       -2.674548   -1.152666   -0.051460
     36          1           0       -5.730651   -1.068095    0.032268
     37          1           0       -4.683975   -1.259958    1.434144
     38          1           0       -3.792396   -3.412108    0.480200
     39          1           0       -4.845020   -3.219155   -0.929641
     40          1           0       -5.552128   -3.486748    0.672763
 ---------------------------------------------------------------------

 SCF Done:  E(RHF) =  -470.733219818     A.U. after   11 cycles
 E2 =    -0.1582725989D+01 EUMP2 =    -0.47231594580780D+03

 The electronic state is 1-A.
 Alpha  occ. eigenvalues --  -11.21644 -11.21618 -11.21583 -11.21526 -11.21434
 Alpha  occ. eigenvalues --  -11.21379 -11.21373 -11.21314 -11.21127 -11.21083
 Alpha  occ. eigenvalues --  -11.21057 -11.21039  -1.08462  -1.08397  -1.03573
 Alpha  occ. eigenvalues --   -1.03488  -0.96022  -0.95944  -0.87039  -0.86963
 Alpha  occ. eigenvalues --   -0.79655  -0.79538  -0.78279  -0.78208  -0.65149
 Alpha  occ. eigenvalues --   -0.64986  -0.61106  -0.60772  -0.59379  -0.59316
 Alpha  occ. eigenvalues --   -0.57624  -0.57562  -0.55360  -0.55188  -0.52707
 Alpha  occ. eigenvalues --   -0.52643  -0.52451  -0.52370  -0.50064  -0.49823
 Alpha  occ. eigenvalues --   -0.47989  -0.47846  -0.46800  -0.46461  -0.45859
 Alpha  occ. eigenvalues --   -0.45771  -0.45719  -0.45532  -0.43815  -0.43753
 Alpha virt. eigenvalues --    0.20908   0.23079   0.23716   0.24938   0.25654
 Alpha virt. eigenvalues --    0.26755   0.26937   0.27580   0.27911   0.29082
 Alpha virt. eigenvalues --    0.30804   0.31096   0.31751   0.31880   0.32494

 Mulliken charges:
               1
     1  C   -0.298344
     2  C   -0.299705
     3  C   -0.475731
     4  H    0.149796
     5  H    0.149597
     6  H    0.152024
     7  H    0.151938
     8  H    0.155201
     9  H    0.155241
    10  H    0.160323
    11  C   -0.298496
    12  C   -0.299884
    13  C   -0.480693
    14  H    0.149595
    15  H    0.149662
    16  H    0.152433
    17  H    0.152293
    18  H    0.155339
    19  H    0.158549
    20  H    0.161455
    21  C   -0.297970
    22  C   -0.306296
    23  C   -0.475436
    24  H    0.149435
    25  H    0.150028
    26  H    0.151157
    27  H    0.159315
    28  H    0.155342
    29  H    0.154953
    30  H    0.159746
    31  C   -0.298584
    32  C   -0.299628
    33  C   -0.475729
    34  H    0.149364
    35  H    0.149117
    36  H    0.151945
    37  H    0.152168
    38  H    0.155207
    39  H    0.155052
    40  H    0.160221
 Sum of Mulliken charges =  -0.00000

 Dipole moment (field-independent basis, Debye):
    X=              0.0276    Y=              0.0026    Z=              0.0142  Tot=              0.0311
 Quadrupole moment (field-independent basis, Debye-Ang):
   XX=            -85.2810   YY=            -86.0411   ZZ=            -83.4876
   XY=             -0.1000   XZ=              1.3331   YZ=             -0.1111

 Normal termination of Gaussian 16 at Thu May  6 13:11:39 2021.
