 Gaussian 16, Revision A.03,
 Gaussian 16:  EM64L-G16RevA.03 25-Dec-2016

 -------------
 #p 6-31g* mp2
 -------------

 ------------------------------------------------------
 Input file generated by CHIRIPA (05-May-2021 14:57:24)
 ------------------------------------------------------
 Symbolic Z-matrix:
 Charge =  0 Multiplicity = 1

                         Standard orientation:
 ---------------------------------------------------------------------
 Center     Atomic      Atomic             Coordinates (Angstroms)
 Number     Number       Type             X           Y           Z
 ---------------------------------------------------------------------
      1          6           0        2.527061    2.005637    1.065497
      2          6           0        2.056539    0.738378    1.424919
      3          6           0        2.642236   -0.413872    0.892164
      4          6           0        3.701360   -0.261354   -0.001304
      5          6           0        4.192644    0.987382   -0.378914
      6          6           0        3.591735    2.125883    0.166313
      7          1           0        2.066168    2.895392    1.484198
      8          1           0        1.229850    0.641968    2.123013
      9          1           0        2.297819   -1.407177    1.153202
     10          1           0        5.018323    1.051606   -1.077159
     11          1           0        3.959228    3.108770   -0.114623
     12          7           0        4.329463   -1.473911   -0.571909
     13          8           0        5.261206   -1.312625   -1.357072
     14          8           0        3.878135   -2.562640   -0.223183
     15          6           0       -2.330243    2.200766   -0.520173
     16          6           0       -1.832570    1.262058    0.389589
     17          6           0       -2.526511    0.073306    0.634265
     18          6           0       -3.720387   -0.145306   -0.051416
     19          6           0       -4.242051    0.770540   -0.963766
     20          6           0       -3.531277    1.952449   -1.192762
     21          1           0       -1.784635    3.121559   -0.704152
     22          1           0       -0.900085    1.452240    0.913371
     23          1           0       -2.164012   -0.670542    1.333338
     24          1           0       -5.174273    0.552896   -1.470730
     25          1           0       -3.920164    2.679668   -1.899844
     26          7           0       -4.463941   -1.400162    0.199311
     27          8           0       -5.513490   -1.569069   -0.417581
     28          8           0       -3.983111   -2.191050    1.007974
 ---------------------------------------------------------------------

 SCF Done:  E(RHF) =  -868.336342912     A.U. after   16 cycles
 E2 =    -0.2600385768D+01 EUMP2 =    -0.87093672867929D+03

 The electronic state is 1-A.
 Alpha  occ. eigenvalues --  -20.61237 -20.61229 -20.61070 -20.61064 -15.86298
 Alpha  occ. eigenvalues --  -15.86128 -11.31873 -11.31602 -11.28498 -11.28461
 Alpha  occ. eigenvalues --  -11.28346 -11.28233 -11.28154 -11.27971 -11.27641
 Alpha  occ. eigenvalues --  -11.27518 -11.27284 -11.27193  -1.60307  -1.60142
 Alpha  occ. eigenvalues --   -1.39854  -1.39694  -1.20091  -1.19789  -1.09465
 Alpha  occ. eigenvalues --   -1.09166  -1.05531  -1.05218  -0.96250  -0.95983
 Alpha  occ. eigenvalues --   -0.86947  -0.86603  -0.83081  -0.82820  -0.78090
 Alpha  occ. eigenvalues --   -0.77838  -0.72513  -0.72345  -0.71633  -0.71466
 Alpha  occ. eigenvalues --   -0.71218  -0.70912  -0.65769  -0.65681  -0.65448
 Alpha  occ. eigenvalues --   -0.65145  -0.62924  -0.62507  -0.56066  -0.55728
 Alpha  occ. eigenvalues --   -0.53895  -0.53671  -0.53521  -0.53226  -0.49291
 Alpha  occ. eigenvalues --   -0.49252  -0.49111  -0.49093  -0.45213  -0.45075
 Alpha  occ. eigenvalues --   -0.38114  -0.37767  -0.37145  -0.36782
 Alpha virt. eigenvalues --    0.04463   0.04710   0.10281   0.10883   0.15859
 Alpha virt. eigenvalues --    0.16196   0.18822   0.21924   0.24977   0.26791
 Alpha virt. eigenvalues --    0.28135   0.28662   0.29986   0.30890   0.32053

 Mulliken charges:
               1
     1  C   -0.173611
     2  C   -0.222117
     3  C   -0.169102
     4  C    0.159157
     5  C   -0.169172
     6  C   -0.218279
     7  H    0.223375
     8  H    0.218439
     9  H    0.279502
    10  H    0.278284
    11  H    0.225084
    12  N    0.487938
    13  O   -0.458645
    14  O   -0.457093
    15  C   -0.171308
    16  C   -0.217138
    17  C   -0.171514
    18  C    0.159501
    19  C   -0.170147
    20  C   -0.217925
    21  H    0.223901
    22  H    0.216448
    23  H    0.272692
    24  H    0.277352
    25  H    0.224759
    26  N    0.488180
    27  O   -0.458686
    28  O   -0.459876
 Sum of Mulliken charges =  -0.00000

 Dipole moment (field-independent basis, Debye):
    X=              0.5292    Y=              8.5709    Z=              0.9674  Tot=              8.6415
 Quadrupole moment (field-independent basis, Debye-Ang):
   XX=           -135.5807   YY=           -107.2649   ZZ=           -102.3986
   XY=              0.4104   XZ=             11.4557   YZ=             -3.6646

 Normal termination of Gaussian 16 at Fri May  7 12:38:09 2021.
