 Gaussian 16, Revision A.03,
 Gaussian 16:  EM64L-G16RevA.03 25-Dec-2016

 -------------
 #p 6-31g* mp2
 -------------

 ------------------------------------------------------
 Input file generated by CHIRIPA (05-May-2021 14:53:18)
 ------------------------------------------------------
 Symbolic Z-matrix:
 Charge =  0 Multiplicity = 1

                         Standard orientation:
 ---------------------------------------------------------------------
 Center     Atomic      Atomic             Coordinates (Angstroms)
 Number     Number       Type             X           Y           Z
 ---------------------------------------------------------------------
      1          6           0        3.276886   -0.076484   -0.008137
      2          6           0        3.345874   -1.580314   -0.275943
      3          6           0        4.348058   -2.296687    0.629723
      4          1           0        4.275443    0.360284   -0.146208
      5          1           0        3.005826    0.089522    1.043701
      6          1           0        3.615370   -1.743433   -1.327313
      7          1           0        2.346997   -2.013521   -0.137404
      8          1           0        4.079477   -2.163462    1.682679
      9          1           0        5.355057   -1.891839    0.486010
     10          1           0        4.381230   -3.370618    0.421319
     11          6           0        2.279357    0.653572   -0.905735
     12          6           0        2.210369    2.157402   -0.637930
     13          6           0        1.208185    2.873775   -1.543596
     14          1           0        2.550417    0.487566   -1.957573
     15          1           0        1.280800    0.216804   -0.767664
     16          1           0        3.209246    2.590609   -0.776468
     17          1           0        1.940873    2.320521    0.413441
     18          1           0        0.201186    2.468927   -1.399882
     19          1           0        1.476766    2.740550   -2.596552
     20          1           0        1.175013    3.947706   -1.335192
     21          6           0       -0.743566    1.037147    2.011055
     22          6           0       -1.974220    1.562633    1.603775
     23          6           0       -2.773083    0.871740    0.687789
     24          6           0       -2.308349   -0.347486    0.197072
     25          6           0       -1.086955   -0.897163    0.583518
     26          6           0       -0.304636   -0.188913    1.500528
     27          1           0       -0.129416    1.580591    2.723013
     28          1           0       -2.317635    2.514592    1.998598
     29          1           0       -3.729992    1.255504    0.355422
     30          1           0       -0.771341   -1.848392    0.172459
     31          1           0        0.650668   -0.599429    1.815039
     32          7           0       -3.145313   -1.088092   -0.773184
     33          8           0       -2.713324   -2.160314   -1.190749
     34          8           0       -4.217466   -0.582331   -1.097733
 ---------------------------------------------------------------------

 SCF Done:  E(RHF) =  -669.534252273     A.U. after   15 cycles
 E2 =    -0.2095414862D+01 EUMP2 =    -0.67162966713571D+03

 The electronic state is 1-A.
 Alpha  occ. eigenvalues --  -20.60849 -20.60844 -15.85904 -11.31325 -11.27870
 Alpha  occ. eigenvalues --  -11.27862 -11.27616 -11.26915 -11.26882 -11.22306
 Alpha  occ. eigenvalues --  -11.22076 -11.22030 -11.21692 -11.21676 -11.21344
 Alpha  occ. eigenvalues --   -1.59923  -1.39475  -1.19501  -1.09028  -1.08840
 Alpha  occ. eigenvalues --   -1.04910  -1.04044  -0.96475  -0.95705  -0.87487
 Alpha  occ. eigenvalues --   -0.86294  -0.82542  -0.80124  -0.78786  -0.77581
 Alpha  occ. eigenvalues --   -0.72120  -0.71248  -0.70589  -0.65860  -0.65142
 Alpha  occ. eigenvalues --   -0.64759  -0.62226  -0.61460  -0.59844  -0.58087
 Alpha  occ. eigenvalues --   -0.55806  -0.55370  -0.53255  -0.53165  -0.52986
 Alpha  occ. eigenvalues --   -0.52856  -0.50419  -0.48884  -0.48873  -0.48421
 Alpha  occ. eigenvalues --   -0.47190  -0.46309  -0.46252  -0.44867  -0.44292
 Alpha  occ. eigenvalues --   -0.37455  -0.36389
 Alpha virt. eigenvalues --    0.04914   0.11051   0.16295   0.18884   0.23164
 Alpha virt. eigenvalues --    0.23393   0.25081   0.25593   0.27325   0.28694
 Alpha virt. eigenvalues --    0.29630   0.29986   0.31211   0.31386   0.32103

 Mulliken charges:
               1
     1  C   -0.300046
     2  C   -0.300769
     3  C   -0.475440
     4  H    0.153780
     5  H    0.137913
     6  H    0.158468
     7  H    0.144564
     8  H    0.150760
     9  H    0.158112
    10  H    0.163812
    11  C   -0.305257
    12  C   -0.297127
    13  C   -0.477501
    14  H    0.152716
    15  H    0.157819
    16  H    0.152249
    17  H    0.143325
    18  H    0.158883
    19  H    0.157628
    20  H    0.158467
    21  C   -0.171062
    22  C   -0.218324
    23  C   -0.171834
    24  C    0.159886
    25  C   -0.174699
    26  C   -0.219014
    27  H    0.226380
    28  H    0.224530
    29  H    0.276307
    30  H    0.277198
    31  H    0.229874
    32  N    0.488145
    33  O   -0.459851
    34  O   -0.459889
 Sum of Mulliken charges =  -0.00000

 Dipole moment (field-independent basis, Debye):
    X=              2.9084    Y=              2.5833    Z=              3.3338  Tot=              5.1231
 Quadrupole moment (field-independent basis, Debye-Ang):
   XX=           -106.0082   YY=            -94.7523   ZZ=            -93.8874
   XY=             -9.6907   XZ=             -8.7888   YZ=             -0.1125

 Normal termination of Gaussian 16 at Thu May  6 09:12:25 2021.
