 Gaussian 16, Revision A.03,
 Gaussian 16:  EM64L-G16RevA.03 25-Dec-2016

 -------------
 #p 6-31g* mp2
 -------------

 ------------------------------------------------------
 Input file generated by CHIRIPA (05-May-2021 14:53:12)
 ------------------------------------------------------
 Symbolic Z-matrix:
 Charge =  0 Multiplicity = 1

                         Standard orientation:
 ---------------------------------------------------------------------
 Center     Atomic      Atomic             Coordinates (Angstroms)
 Number     Number       Type             X           Y           Z
 ---------------------------------------------------------------------
      1          6           0        4.248809   -0.317628   -0.228676
      2          6           0        3.112100   -0.595210    0.755613
      3          6           0        1.847171   -1.109905    0.067982
      4          1           0        3.909926    0.416024   -0.972892
      5          1           0        4.479616   -1.239176   -0.780829
      6          1           0        2.884441    0.326237    1.306724
      7          1           0        3.453793   -1.328143    1.497686
      8          1           0        2.052057   -2.042684   -0.467318
      9          1           0        1.479470   -0.378904   -0.659365
     10          1           0        1.047425   -1.301784    0.790096
     11          6           0        5.520139    0.197509    0.443696
     12          6           0        6.656848    0.475090   -0.540594
     13          6           0        7.921777    0.989786    0.147037
     14          1           0        5.289332    1.119057    0.995849
     15          1           0        5.859023   -0.536143    1.187912
     16          1           0        6.315155    1.208023   -1.282666
     17          1           0        6.884507   -0.446356   -1.091704
     18          1           0        8.289478    0.258785    0.874385
     19          1           0        7.716891    1.922564    0.682338
     20          1           0        8.721524    1.181665   -0.575076
     21          6           0       -6.090896    1.060914    0.319206
     22          6           0       -5.920983   -0.325914    0.385218
     23          6           0       -4.665065   -0.898707    0.163575
     24          6           0       -3.596067   -0.051108   -0.122972
     25          6           0       -3.733458    1.334217   -0.195701
     26          6           0       -4.998518    1.885101    0.029468
     27          1           0       -7.070073    1.497364    0.492753
     28          1           0       -6.767547   -0.968433    0.610036
     29          1           0       -4.505378   -1.969172    0.208539
     30          1           0       -2.870688    1.948942   -0.421883
     31          1           0       -5.127525    2.962462   -0.022442
     32          7           0       -2.261643   -0.645901   -0.359482
     33          8           0       -1.335789    0.122592   -0.610180
     34          8           0       -2.166845   -1.869330   -0.289681
 ---------------------------------------------------------------------

 SCF Done:  E(RHF) =  -669.535624572     A.U. after   15 cycles
 E2 =    -0.2091252251D+01 EUMP2 =    -0.67162687682316D+03

 The electronic state is 1-A.
 Alpha  occ. eigenvalues --  -20.60911 -20.60905 -15.85942 -11.31287 -11.27851
 Alpha  occ. eigenvalues --  -11.27847 -11.27590 -11.26861 -11.26851 -11.20935
 Alpha  occ. eigenvalues --  -11.20556 -11.20534 -11.20303 -11.20182 -11.18963
 Alpha  occ. eigenvalues --   -1.59968  -1.39525  -1.19455  -1.08855  -1.07440
 Alpha  occ. eigenvalues --   -1.04854  -1.02411  -0.95698  -0.94809  -0.86254
 Alpha  occ. eigenvalues --   -0.85813  -0.82527  -0.78518  -0.77578  -0.77197
 Alpha  occ. eigenvalues --   -0.72160  -0.71288  -0.70563  -0.65110  -0.64857
 Alpha  occ. eigenvalues --   -0.64086  -0.62201  -0.59817  -0.58294  -0.56422
 Alpha  occ. eigenvalues --   -0.55359  -0.54113  -0.53185  -0.52945  -0.51498
 Alpha  occ. eigenvalues --   -0.51247  -0.49133  -0.48905  -0.48496  -0.46798
 Alpha  occ. eigenvalues --   -0.45572  -0.44934  -0.44722  -0.44616  -0.42630
 Alpha  occ. eigenvalues --   -0.37434  -0.36456
 Alpha virt. eigenvalues --    0.04945   0.11199   0.16444   0.21334   0.23764
 Alpha virt. eigenvalues --    0.25489   0.27249   0.27579   0.28205   0.28406
 Alpha virt. eigenvalues --    0.29301   0.30902   0.32395   0.32541   0.32675

 Mulliken charges:
               1
     1  C   -0.297126
     2  C   -0.301608
     3  C   -0.469724
     4  H    0.148817
     5  H    0.147901
     6  H    0.147036
     7  H    0.145620
     8  H    0.148119
     9  H    0.169732
    10  H    0.163739
    11  C   -0.297062
    12  C   -0.298841
    13  C   -0.475084
    14  H    0.147395
    15  H    0.147865
    16  H    0.150969
    17  H    0.151198
    18  H    0.154263
    19  H    0.153922
    20  H    0.158199
    21  C   -0.170645
    22  C   -0.218575
    23  C   -0.170687
    24  C    0.158268
    25  C   -0.170885
    26  C   -0.218532
    27  H    0.225942
    28  H    0.223793
    29  H    0.275892
    30  H    0.275557
    31  H    0.223745
    32  N    0.489042
    33  O   -0.459054
    34  O   -0.459192
 Sum of Mulliken charges =  -0.00000

 Dipole moment (field-independent basis, Debye):
    X=             -5.1183    Y=              2.0962    Z=              0.7560  Tot=              5.5824
 Quadrupole moment (field-independent basis, Debye-Ang):
   XX=            -63.2213   YY=            -90.1895   ZZ=            -96.0111
   XY=             -6.1342   XZ=             -3.3595   YZ=             -1.3007

 Normal termination of Gaussian 16 at Thu May  6 04:07:32 2021.
