 Gaussian 16, Revision A.03,
 Gaussian 16:  EM64L-G16RevA.03 25-Dec-2016

 -------------
 #p 6-31g* mp2
 -------------

 ------------------------------------------------------
 Input file generated by CHIRIPA (05-May-2021 14:57:26)
 ------------------------------------------------------
 Symbolic Z-matrix:
 Charge =  0 Multiplicity = 1

                         Standard orientation:
 ---------------------------------------------------------------------
 Center     Atomic      Atomic             Coordinates (Angstroms)
 Number     Number       Type             X           Y           Z
 ---------------------------------------------------------------------
      1          6           0       -1.991160   -0.105384    0.388335
      2          6           0       -2.792190   -1.110609    0.940056
      3          6           0       -4.173327   -1.116945    0.723336
      4          6           0       -4.722627   -0.098173   -0.053623
      5          6           0       -3.951108    0.917111   -0.616871
      6          6           0       -2.572151    0.903489   -0.387000
      7          1           0       -0.919106   -0.108215    0.561796
      8          1           0       -2.343718   -1.895371    1.542605
      9          1           0       -4.816900   -1.883019    1.138499
     10          1           0       -4.426973    1.686141   -1.213162
     11          1           0       -1.952518    1.685431   -0.816727
     12          7           0       -6.183621   -0.094316   -0.290016
     13          8           0       -6.643235    0.814418   -0.978198
     14          8           0       -6.841469   -1.000100    0.217358
     15          6           0        6.274946   -1.562451   -0.610557
     16          6           0        6.596149   -0.209487   -0.459441
     17          6           0        5.610727    0.719832   -0.113238
     18          6           0        4.308486    0.259414    0.075107
     19          6           0        3.957139   -1.081980   -0.068105
     20          6           0        4.958786   -1.993619   -0.414751
     21          1           0        7.046747   -2.277502   -0.879669
     22          1           0        7.617455    0.128216   -0.610884
     23          1           0        5.831752    1.773076    0.010233
     24          1           0        2.930200   -1.388568    0.089429
     25          1           0        4.706438   -3.043740   -0.531430
     26          7           0        3.256675    1.233884    0.441851
     27          8           0        2.116872    0.802883    0.602238
     28          8           0        3.591985    2.410223    0.561975
 ---------------------------------------------------------------------

 SCF Done:  E(RHF) =  -868.339913960     A.U. after   16 cycles
 E2 =    -0.2598113358D+01 EUMP2 =    -0.87093802731781D+03

 The electronic state is 1-A.
 Alpha  occ. eigenvalues --  -20.61839 -20.61773 -20.60215 -20.60208 -15.86857
 Alpha  occ. eigenvalues --  -15.85264 -11.31975 -11.30471 -11.28548 -11.28485
 Alpha  occ. eigenvalues --  -11.28190 -11.27478 -11.27445 -11.27068 -11.27014
 Alpha  occ. eigenvalues --  -11.26560 -11.26002 -11.25889  -1.60868  -1.59294
 Alpha  occ. eigenvalues --   -1.40434  -1.38852  -1.20119  -1.18618  -1.09553
 Alpha  occ. eigenvalues --   -1.08005  -1.05489  -1.04009  -0.96433  -0.94870
 Alpha  occ. eigenvalues --   -0.86897  -0.85391  -0.83283  -0.81721  -0.78359
 Alpha  occ. eigenvalues --   -0.76824  -0.73097  -0.72173  -0.71484  -0.71224
 Alpha  occ. eigenvalues --   -0.70617  -0.69613  -0.65777  -0.65485  -0.64252
 Alpha  occ. eigenvalues --   -0.63990  -0.62845  -0.61368  -0.55985  -0.54357
 Alpha  occ. eigenvalues --   -0.53825  -0.53577  -0.52341  -0.52082  -0.49853
 Alpha  occ. eigenvalues --   -0.49794  -0.48249  -0.48226  -0.45892  -0.44294
 Alpha  occ. eigenvalues --   -0.38075  -0.37080  -0.36541  -0.35635
 Alpha virt. eigenvalues --    0.04170   0.05720   0.10579   0.12034   0.15718
 Alpha virt. eigenvalues --    0.17269   0.20621   0.22288   0.26540   0.27224
 Alpha virt. eigenvalues --    0.28090   0.29116   0.30431   0.31344   0.32858

 Mulliken charges:
               1
     1  C   -0.177865
     2  C   -0.220552
     3  C   -0.171740
     4  C    0.157212
     5  C   -0.171945
     6  C   -0.220900
     7  H    0.246029
     8  H    0.219800
     9  H    0.272508
    10  H    0.273671
    11  H    0.228618
    12  N    0.488266
    13  O   -0.461981
    14  O   -0.462943
    15  C   -0.169862
    16  C   -0.218304
    17  C   -0.170284
    18  C    0.158031
    19  C   -0.169921
    20  C   -0.218138
    21  H    0.228297
    22  H    0.226050
    23  H    0.277064
    24  H    0.270707
    25  H    0.225089
    26  N    0.494360
    27  O   -0.476285
    28  O   -0.454978
 Sum of Mulliken charges =  -0.00000

 Dipole moment (field-independent basis, Debye):
    X=              9.4461    Y=             -3.3676    Z=             -0.4928  Tot=             10.0405
 Quadrupole moment (field-independent basis, Debye-Ang):
   XX=           -119.9200   YY=           -100.7543   ZZ=           -105.1423
   XY=            -11.4391   XZ=            -10.1085   YZ=             -3.2895

 Normal termination of Gaussian 16 at Fri May  7 00:26:08 2021.
