 Gaussian 16, Revision A.03,
 Gaussian 16:  EM64L-G16RevA.03 25-Dec-2016

 -------------
 #p 6-31g* mp2
 -------------

 ------------------------------------------------------
 Input file generated by CHIRIPA (05-May-2021 14:51:09)
 ------------------------------------------------------
 Symbolic Z-matrix:
 Charge =  0 Multiplicity = 1

                         Standard orientation:
 ---------------------------------------------------------------------
 Center     Atomic      Atomic             Coordinates (Angstroms)
 Number     Number       Type             X           Y           Z
 ---------------------------------------------------------------------
      1          6           0       -3.027817    0.924780    0.156727
      2          6           0       -3.961935    2.114137   -0.068744
      3          6           0       -3.417050    3.414305    0.523250
      4          1           0       -2.861192    0.796830    1.235064
      5          1           0       -2.047567    1.148145   -0.286683
      6          1           0       -4.940553    1.888035    0.373750
      7          1           0       -4.126508    2.239153   -1.146660
      8          1           0       -2.450962    3.666850    0.074365
      9          1           0       -3.269632    3.313737    1.603414
     10          1           0       -4.100568    4.251481    0.350621
     11          6           0       -3.558808   -0.382212   -0.429403
     12          6           0       -2.624690   -1.571569   -0.203931
     13          6           0       -3.169576   -2.871737   -0.795925
     14          1           0       -4.539059   -0.605576    0.014007
     15          1           0       -3.725433   -0.254261   -1.507739
     16          1           0       -2.460117   -1.696584    0.873985
     17          1           0       -1.646072   -1.345467   -0.646426
     18          1           0       -3.316993   -2.771168   -1.876089
     19          1           0       -4.135663   -3.124281   -0.347040
     20          1           0       -2.486058   -3.708912   -0.623296
     21          6           0        2.964917   -0.772716    0.609787
     22          6           0        1.574521   -1.216368    0.153766
     23          6           0        0.930480   -2.219510    1.111218
     24          1           0        3.611100   -1.655862    0.706972
     25          1           0        2.890041   -0.328391    1.611968
     26          1           0        1.651785   -1.658467   -0.847829
     27          1           0        0.931627   -0.332043    0.057472
     28          1           0        0.824300   -1.784835    2.110409
     29          1           0        1.548551   -3.118795    1.199965
     30          1           0       -0.062748   -2.523188    0.766054
     31          6           0        3.621708    0.230148   -0.337112
     32          6           0        5.012105    0.673800    0.118909
     33          6           0        5.656145    1.676942   -0.838542
     34          1           0        3.696584   -0.214177   -1.339292
     35          1           0        2.975524    1.113293   -0.434297
     36          1           0        5.654999   -0.210525    0.215204
     37          1           0        4.934840    1.115899    1.120505
     38          1           0        5.038074    2.576227   -0.927289
     39          1           0        5.762325    1.242266   -1.837734
     40          1           0        6.649372    1.980619   -0.493379
 ---------------------------------------------------------------------

 SCF Done:  E(RHF) =  -470.732635840     A.U. after   11 cycles
 E2 =    -0.1583499029D+01 EUMP2 =    -0.47231613486892D+03

 The electronic state is 1-A.
 Alpha  occ. eigenvalues --  -11.21622 -11.21593 -11.21587 -11.21570 -11.21424
 Alpha  occ. eigenvalues --  -11.21389 -11.21363 -11.21328 -11.21105 -11.21094
 Alpha  occ. eigenvalues --  -11.21066 -11.20918  -1.08464  -1.08397  -1.03594
 Alpha  occ. eigenvalues --   -1.03463  -0.96028  -0.95921  -0.87031  -0.86949
 Alpha  occ. eigenvalues --   -0.79652  -0.79546  -0.78302  -0.78203  -0.65090
 Alpha  occ. eigenvalues --   -0.65029  -0.60957  -0.60893  -0.59687  -0.59103
 Alpha  occ. eigenvalues --   -0.57805  -0.57329  -0.55289  -0.55225  -0.52743
 Alpha  occ. eigenvalues --   -0.52590  -0.52436  -0.52355  -0.49945  -0.49880
 Alpha  occ. eigenvalues --   -0.48014  -0.47760  -0.46691  -0.46574  -0.45867
 Alpha  occ. eigenvalues --   -0.45775  -0.45720  -0.45575  -0.43836  -0.43693
 Alpha virt. eigenvalues --    0.21462   0.23147   0.23358   0.24569   0.25557
 Alpha virt. eigenvalues --    0.26662   0.26750   0.27189   0.28106   0.29151
 Alpha virt. eigenvalues --    0.30679   0.30965   0.31496   0.31757   0.32240

 Mulliken charges:
               1
     1  C   -0.299130
     2  C   -0.299662
     3  C   -0.475706
     4  H    0.149721
     5  H    0.149706
     6  H    0.152112
     7  H    0.152064
     8  H    0.155002
     9  H    0.155144
    10  H    0.160391
    11  C   -0.297213
    12  C   -0.306824
    13  C   -0.477746
    14  H    0.149487
    15  H    0.149580
    16  H    0.153502
    17  H    0.158057
    18  H    0.155565
    19  H    0.155667
    20  H    0.160839
    21  C   -0.298387
    22  C   -0.300768
    23  C   -0.483080
    24  H    0.149717
    25  H    0.149656
    26  H    0.150991
    27  H    0.152581
    28  H    0.154114
    29  H    0.153868
    30  H    0.171211
    31  C   -0.298252
    32  C   -0.299627
    33  C   -0.475689
    34  H    0.149324
    35  H    0.149373
    36  H    0.151954
    37  H    0.151983
    38  H    0.155117
    39  H    0.155108
    40  H    0.160252
 Sum of Mulliken charges =  -0.00000

 Dipole moment (field-independent basis, Debye):
    X=             -0.0400    Y=             -0.0019    Z=             -0.0042  Tot=              0.0403
 Quadrupole moment (field-independent basis, Debye-Ang):
   XX=            -84.8594   YY=            -85.7495   ZZ=            -84.2299
   XY=             -0.8727   XZ=             -0.4137   YZ=              0.3097

 Normal termination of Gaussian 16 at Wed May  5 19:42:15 2021.
