 Gaussian 16, Revision A.03,
 Gaussian 16:  EM64L-G16RevA.03 25-Dec-2016

 -------------
 #p 6-31g* mp2
 -------------

 ------------------------------------------------------
 Input file generated by CHIRIPA (05-May-2021 14:55:21)
 ------------------------------------------------------
 Symbolic Z-matrix:
 Charge =  0 Multiplicity = 1

                         Standard orientation:
 ---------------------------------------------------------------------
 Center     Atomic      Atomic             Coordinates (Angstroms)
 Number     Number       Type             X           Y           Z
 ---------------------------------------------------------------------
      1          6           0       -1.702983    1.586884    0.267480
      2          6           0       -2.745196    1.650417    1.198220
      3          6           0       -3.831684    0.775191    1.108384
      4          6           0       -3.843602   -0.155302    0.070439
      5          6           0       -2.820410   -0.243351   -0.872225
      6          6           0       -1.743845    0.641869   -0.762956
      7          1           0       -0.862827    2.270662    0.344815
      8          1           0       -2.716125    2.383307    1.999515
      9          1           0       -4.651934    0.802539    1.815391
     10          1           0       -2.877450   -0.984699   -1.659987
     11          1           0       -0.935853    0.590239   -1.487200
     12          7           0       -4.988566   -1.087155   -0.034954
     13          8           0       -4.975375   -1.897830   -0.958679
     14          8           0       -5.877501   -0.989221    0.808161
     15          6           0        3.917261   -0.003022   -0.177741
     16          6           0        3.355945    1.261078   -0.829629
     17          6           0        1.832187    1.235704   -0.953371
     18          1           0        3.610264   -0.878577   -0.766044
     19          1           0        3.469509   -0.123215    0.818486
     20          1           0        3.805663    1.379599   -1.823773
     21          1           0        3.664474    2.133742   -0.239812
     22          1           0        1.367071    1.141749    0.033261
     23          1           0        1.509063    0.383322   -1.559700
     24          1           0        1.452195    2.148857   -1.422005
     25          6           0        5.439279    0.007430   -0.047050
     26          6           0        6.000594   -1.256671    0.604839
     27          6           0        7.524352   -1.231296    0.728580
     28          1           0        5.887031    0.127622   -1.043276
     29          1           0        5.746275    0.882985    0.541255
     30          1           0        5.692065   -2.129334    0.015021
     31          1           0        5.550877   -1.375191    1.598982
     32          1           0        7.847476   -0.378913    1.334910
     33          1           0        7.989468   -1.137342   -0.258051
     34          1           0        7.904344   -2.144449    1.197214
 ---------------------------------------------------------------------

 SCF Done:  E(RHF) =  -669.534706574     A.U. after   15 cycles
 E2 =    -0.2092021514D+01 EUMP2 =    -0.67162672808796D+03

 The electronic state is 1-A.
 Alpha  occ. eigenvalues --  -20.60679 -20.60673 -15.85730 -11.31068 -11.27633
 Alpha  occ. eigenvalues --  -11.27607 -11.27308 -11.26644 -11.26546 -11.22605
 Alpha  occ. eigenvalues --  -11.22490 -11.22147 -11.22075 -11.21963 -11.21460
 Alpha  occ. eigenvalues --   -1.59755  -1.39309  -1.19229  -1.09169  -1.08626
 Alpha  occ. eigenvalues --   -1.04634  -1.04322  -0.96829  -0.95465  -0.87882
 Alpha  occ. eigenvalues --   -0.86007  -0.82304  -0.80430  -0.78919  -0.77351
 Alpha  occ. eigenvalues --   -0.71948  -0.71077  -0.70345  -0.65794  -0.64876
 Alpha  occ. eigenvalues --   -0.64640  -0.62007  -0.61719  -0.60217  -0.58373
 Alpha  occ. eigenvalues --   -0.56202  -0.55054  -0.53578  -0.53324  -0.52919
 Alpha  occ. eigenvalues --   -0.52604  -0.50723  -0.48757  -0.48706  -0.48642
 Alpha  occ. eigenvalues --   -0.47400  -0.46472  -0.46359  -0.44721  -0.44557
 Alpha  occ. eigenvalues --   -0.37191  -0.36227
 Alpha virt. eigenvalues --    0.05151   0.11381   0.16607   0.20546   0.22313
 Alpha virt. eigenvalues --    0.23792   0.25550   0.26061   0.26882   0.27609
 Alpha virt. eigenvalues --    0.29413   0.29651   0.30652   0.31568   0.32251

 Mulliken charges:
               1
     1  C   -0.175050
     2  C   -0.218943
     3  C   -0.171492
     4  C    0.158672
     5  C   -0.172418
     6  C   -0.220642
     7  H    0.227893
     8  H    0.222623
     9  H    0.274971
    10  H    0.274969
    11  H    0.231911
    12  N    0.488025
    13  O   -0.460777
    14  O   -0.460829
    15  C   -0.299450
    16  C   -0.299954
    17  C   -0.486589
    18  H    0.151304
    19  H    0.150736
    20  H    0.155616
    21  H    0.153874
    22  H    0.157170
    23  H    0.155210
    24  H    0.158449
    25  C   -0.299021
    26  C   -0.300234
    27  C   -0.476121
    28  H    0.150726
    29  H    0.150256
    30  H    0.153088
    31  H    0.152695
    32  H    0.155519
    33  H    0.155828
    34  H    0.161981
 Sum of Mulliken charges =  -0.00000

 Dipole moment (field-independent basis, Debye):
    X=              4.3311    Y=              3.2556    Z=              0.3688  Tot=              5.4308
 Quadrupole moment (field-independent basis, Debye-Ang):
   XX=           -126.0540   YY=            -95.4257   ZZ=            -90.9004
   XY=            -14.2844   XZ=             -3.3221   YZ=              2.6078

 Normal termination of Gaussian 16 at Wed May  5 15:54:40 2021.
