 Gaussian 16, Revision A.03,
 Gaussian 16:  EM64L-G16RevA.03 25-Dec-2016

 -------------
 #p 6-31g* mp2
 -------------

 ------------------------------------------------------
 Input file generated by CHIRIPA (05-May-2021 14:51:14)
 ------------------------------------------------------
 Symbolic Z-matrix:
 Charge =  0 Multiplicity = 1

                         Standard orientation:
 ---------------------------------------------------------------------
 Center     Atomic      Atomic             Coordinates (Angstroms)
 Number     Number       Type             X           Y           Z
 ---------------------------------------------------------------------
      1          6           0        3.106681    1.013821    0.381424
      2          6           0        3.053948    2.209299   -0.570436
      3          6           0        3.203387    3.547996    0.152994
      4          1           0        2.312303    1.116584    1.133321
      5          1           0        4.059313    1.031542    0.928757
      6          1           0        2.102288    2.188554   -1.116813
      7          1           0        3.848422    2.103581   -1.320269
      8          1           0        4.159559    3.594180    0.684222
      9          1           0        2.403503    3.679636    0.888833
     10          1           0        3.162830    4.388951   -0.546298
     11          6           0        2.958674   -0.331562   -0.326931
     12          6           0        3.011406   -1.527040    0.624929
     13          6           0        2.861968   -2.865737   -0.098501
     14          1           0        2.006041   -0.349283   -0.874263
     15          1           0        3.753051   -0.434325   -1.078828
     16          1           0        2.216932   -1.421321    1.374763
     17          1           0        3.963066   -1.506294    1.171307
     18          1           0        3.661851   -2.997376   -0.834340
     19          1           0        1.905795   -2.911920   -0.629728
     20          1           0        2.902524   -3.706692    0.600792
     21          6           0       -3.153302    0.393933   -0.196253
     22          6           0       -4.485119    0.927126    0.332856
     23          6           0       -4.712030    2.399039   -0.013232
     24          1           0       -2.333902    0.999294    0.214923
     25          1           0       -3.121405    0.524266   -1.286845
     26          1           0       -4.515067    0.794562    1.421959
     27          1           0       -5.301432    0.320306   -0.079477
     28          1           0       -4.708774    2.544580   -1.098316
     29          1           0       -3.917941    3.021531    0.411650
     30          1           0       -5.669887    2.759585    0.374553
     31          6           0       -2.912051   -1.076193    0.141760
     32          6           0       -1.580236   -1.609385   -0.387349
     33          6           0       -1.353324   -3.081298   -0.041261
     34          1           0       -2.943950   -1.206525    1.232352
     35          1           0       -3.731452   -1.681554   -0.269417
     36          1           0       -0.763923   -1.002565    0.024983
     37          1           0       -1.550288   -1.476821   -1.476452
     38          1           0       -2.147413   -3.703792   -0.466144
     39          1           0       -1.356580   -3.226839    1.043823
     40          1           0       -0.395467   -3.441844   -0.429047
 ---------------------------------------------------------------------

 SCF Done:  E(RHF) =  -470.733242498     A.U. after   11 cycles
 E2 =    -0.1583092853D+01 EUMP2 =    -0.47231633535068D+03

 The electronic state is 1-A.
 Alpha  occ. eigenvalues --  -11.21673 -11.21638 -11.21601 -11.21600 -11.21457
 Alpha  occ. eigenvalues --  -11.21404 -11.21397 -11.21341 -11.21100 -11.21085
 Alpha  occ. eigenvalues --  -11.21074 -11.21051  -1.08484  -1.08426  -1.03591
 Alpha  occ. eigenvalues --   -1.03512  -0.96045  -0.95954  -0.87074  -0.86959
 Alpha  occ. eigenvalues --   -0.79645  -0.79585  -0.78302  -0.78234  -0.65171
 Alpha  occ. eigenvalues --   -0.65012  -0.61076  -0.60874  -0.59392  -0.59333
 Alpha  occ. eigenvalues --   -0.57698  -0.57536  -0.55337  -0.55238  -0.52777
 Alpha  occ. eigenvalues --   -0.52650  -0.52508  -0.52301  -0.49990  -0.49875
 Alpha  occ. eigenvalues --   -0.47962  -0.47879  -0.46675  -0.46613  -0.45896
 Alpha  occ. eigenvalues --   -0.45786  -0.45739  -0.45646  -0.43819  -0.43776
 Alpha virt. eigenvalues --    0.19932   0.23189   0.23428   0.25292   0.25841
 Alpha virt. eigenvalues --    0.26394   0.26909   0.27429   0.28536   0.28977
 Alpha virt. eigenvalues --    0.30410   0.31283   0.31600   0.31764   0.32158

 Mulliken charges:
               1
     1  C   -0.298134
     2  C   -0.299787
     3  C   -0.475644
     4  H    0.148904
     5  H    0.149579
     6  H    0.152281
     7  H    0.151999
     8  H    0.155174
     9  H    0.154928
    10  H    0.160348
    11  C   -0.301017
    12  C   -0.299526
    13  C   -0.480704
    14  H    0.152244
    15  H    0.149688
    16  H    0.152018
    17  H    0.151965
    18  H    0.155103
    19  H    0.160216
    20  H    0.160349
    21  C   -0.298262
    22  C   -0.299705
    23  C   -0.475743
    24  H    0.149161
    25  H    0.149630
    26  H    0.152004
    27  H    0.152110
    28  H    0.155261
    29  H    0.155160
    30  H    0.160423
    31  C   -0.298188
    32  C   -0.302720
    33  C   -0.480624
    34  H    0.149676
    35  H    0.150114
    36  H    0.153491
    37  H    0.151932
    38  H    0.155429
    39  H    0.155341
    40  H    0.165525
 Sum of Mulliken charges =  -0.00000

 Dipole moment (field-independent basis, Debye):
    X=             -0.0138    Y=             -0.0111    Z=             -0.0087  Tot=              0.0197
 Quadrupole moment (field-independent basis, Debye-Ang):
   XX=            -83.6071   YY=            -86.8866   ZZ=            -84.1748
   XY=              0.3103   XZ=              0.1804   YZ=              0.0381

 Normal termination of Gaussian 16 at Thu May  6 00:49:53 2021.
