 Gaussian 16, Revision A.03,
 Gaussian 16:  EM64L-G16RevA.03 25-Dec-2016

 -------------
 #p 6-31g* mp2
 -------------

 ------------------------------------------------------
 Input file generated by CHIRIPA (05-May-2021 14:53:13)
 ------------------------------------------------------
 Symbolic Z-matrix:
 Charge =  0 Multiplicity = 1

                         Standard orientation:
 ---------------------------------------------------------------------
 Center     Atomic      Atomic             Coordinates (Angstroms)
 Number     Number       Type             X           Y           Z
 ---------------------------------------------------------------------
      1          6           0        3.536659    1.168832   -0.256547
      2          6           0        2.301387    2.059862   -0.121819
      3          6           0        2.600075    3.531733   -0.408482
      4          1           0        4.315830    1.526844    0.430232
      5          1           0        3.944316    1.270209   -1.271896
      6          1           0        1.895373    1.955777    0.892546
      7          1           0        1.524997    1.699570   -0.808860
      8          1           0        2.984023    3.655786   -1.426222
      9          1           0        3.356503    3.913449    0.284850
     10          1           0        1.703199    4.150653   -0.306443
     11          6           0        3.254046   -0.305438    0.026978
     12          6           0        4.489318   -1.196468   -0.107750
     13          6           0        4.190630   -2.668339    0.178913
     14          1           0        2.846389   -0.406816    1.042327
     15          1           0        2.474875   -0.663450   -0.659800
     16          1           0        5.265708   -0.836177    0.579291
     17          1           0        4.895332   -1.092383   -1.122114
     18          1           0        3.434201   -3.050055   -0.514419
     19          1           0        3.806682   -2.792393    1.196653
     20          1           0        5.087506   -3.287260    0.076874
     21          6           0       -0.343295   -1.318652    0.353908
     22          6           0       -1.313123   -2.000892   -0.388050
     23          6           0       -2.595947   -1.466578   -0.541083
     24          6           0       -2.875876   -0.242386    0.064130
     25          6           0       -1.931160    0.461370    0.809468
     26          6           0       -0.654859   -0.091861    0.949250
     27          1           0        0.650700   -1.741069    0.467642
     28          1           0       -1.073978   -2.953812   -0.851515
     29          1           0       -3.365769   -1.973548   -1.110096
     30          1           0       -2.199267    1.409426    1.259719
     31          1           0        0.096328    0.440198    1.526029
     32          7           0       -4.230491    0.333282   -0.090865
     33          8           0       -4.452023    1.413368    0.452252
     34          8           0       -5.045058   -0.306495   -0.752533
 ---------------------------------------------------------------------

 SCF Done:  E(RHF) =  -669.534251072     A.U. after   15 cycles
 E2 =    -0.2093765109D+01 EUMP2 =    -0.67162801618088D+03

 The electronic state is 1-A.
 Alpha  occ. eigenvalues --  -20.60686 -20.60681 -15.85738 -11.31075 -11.27642
 Alpha  occ. eigenvalues --  -11.27628 -11.27268 -11.26639 -11.26583 -11.22667
 Alpha  occ. eigenvalues --  -11.22608 -11.22503 -11.22332 -11.22196 -11.21727
 Alpha  occ. eigenvalues --   -1.59762  -1.39317  -1.19239  -1.09502  -1.08623
 Alpha  occ. eigenvalues --   -1.04647  -1.04493  -0.96957  -0.95473  -0.87968
 Alpha  occ. eigenvalues --   -0.86040  -0.82325  -0.80581  -0.79397  -0.77356
 Alpha  occ. eigenvalues --   -0.71956  -0.71086  -0.70323  -0.66123  -0.64882
 Alpha  occ. eigenvalues --   -0.64645  -0.62040  -0.61845  -0.60332  -0.58588
 Alpha  occ. eigenvalues --   -0.56249  -0.55157  -0.53616  -0.53358  -0.52972
 Alpha  occ. eigenvalues --   -0.52730  -0.50888  -0.48900  -0.48714  -0.48670
 Alpha  occ. eigenvalues --   -0.47615  -0.46806  -0.46750  -0.44771  -0.44729
 Alpha  occ. eigenvalues --   -0.37168  -0.36229
 Alpha virt. eigenvalues --    0.05137   0.11349   0.16542   0.19761   0.22244
 Alpha virt. eigenvalues --    0.22650   0.24622   0.26190   0.26668   0.28348
 Alpha virt. eigenvalues --    0.29580   0.29865   0.30778   0.31593   0.31736

 Mulliken charges:
               1
     1  C   -0.297712
     2  C   -0.304188
     3  C   -0.476181
     4  H    0.152450
     5  H    0.154016
     6  H    0.143258
     7  H    0.158964
     8  H    0.158243
     9  H    0.156397
    10  H    0.163469
    11  C   -0.306282
    12  C   -0.298991
    13  C   -0.479239
    14  H    0.141804
    15  H    0.151228
    16  H    0.155843
    17  H    0.156319
    18  H    0.151487
    19  H    0.154004
    20  H    0.166667
    21  C   -0.175880
    22  C   -0.220648
    23  C   -0.171063
    24  C    0.158291
    25  C   -0.173372
    26  C   -0.218984
    27  H    0.233679
    28  H    0.222721
    29  H    0.274945
    30  H    0.274958
    31  H    0.227406
    32  N    0.488079
    33  O   -0.460827
    34  O   -0.460862
 Sum of Mulliken charges =  -0.00000

 Dipole moment (field-independent basis, Debye):
    X=              5.0569    Y=             -1.9367    Z=              0.4433  Tot=              5.4332
 Quadrupole moment (field-independent basis, Debye-Ang):
   XX=           -121.6063   YY=            -91.7858   ZZ=            -92.8259
   XY=              5.9274   XZ=             -0.4766   YZ=              2.4793

 Normal termination of Gaussian 16 at Thu May  6 15:23:02 2021.
