 Gaussian 16, Revision A.03,
 Gaussian 16:  EM64L-G16RevA.03 25-Dec-2016

 -------------
 #p 6-31g* mp2
 -------------

 ------------------------------------------------------
 Input file generated by CHIRIPA (05-May-2021 14:57:26)
 ------------------------------------------------------
 Symbolic Z-matrix:
 Charge =  0 Multiplicity = 1

                         Standard orientation:
 ---------------------------------------------------------------------
 Center     Atomic      Atomic             Coordinates (Angstroms)
 Number     Number       Type             X           Y           Z
 ---------------------------------------------------------------------
      1          6           0        0.743298   -1.147788    0.721702
      2          6           0        1.412739   -0.344688    1.650896
      3          6           0        2.689879    0.150663    1.371456
      4          6           0        3.270496   -0.178301    0.147545
      5          6           0        2.629070   -0.976066   -0.798728
      6          6           0        1.352526   -1.460363   -0.497994
      7          1           0       -0.248583   -1.528295    0.947049
      8          1           0        0.942044   -0.100316    2.598933
      9          1           0        3.230687    0.774498    2.072723
     10          1           0        3.123984   -1.202576   -1.735302
     11          1           0        0.834993   -2.083840   -1.221514
     12          7           0        4.622231    0.340254   -0.159558
     13          8           0        5.112056    0.036006   -1.244980
     14          8           0        5.166302    1.041126    0.690973
     15          6           0       -2.475178    2.708772   -0.443245
     16          6           0       -3.441720    2.305701    0.484036
     17          6           0       -3.766956    0.953687    0.628350
     18          6           0       -3.103064    0.027390   -0.174465
     19          6           0       -2.135554    0.397693   -1.107251
     20          6           0       -1.826324    1.755162   -1.234534
     21          1           0       -2.228743    3.761168   -0.548737
     22          1           0       -3.947241    3.044084    1.099897
     23          1           0       -4.511231    0.614036    1.338357
     24          1           0       -1.648605   -0.361568   -1.707104
     25          1           0       -1.075277    2.065299   -1.955498
     26          7           0       -3.438905   -1.406814   -0.030701
     27          8           0       -2.839679   -2.203292   -0.749859
     28          8           0       -4.295003   -1.707308    0.798416
 ---------------------------------------------------------------------

 SCF Done:  E(RHF) =  -868.339073565     A.U. after   16 cycles
 E2 =    -0.2600933145D+01 EUMP2 =    -0.87094000670988D+03

 The electronic state is 1-A.
 Alpha  occ. eigenvalues --  -20.61899 -20.61869 -20.60866 -20.60861 -15.86901
 Alpha  occ. eigenvalues --  -15.85919 -11.32026 -11.31229 -11.28578 -11.28550
 Alpha  occ. eigenvalues --  -11.28204 -11.27810 -11.27798 -11.27488 -11.27459
 Alpha  occ. eigenvalues --  -11.27425 -11.26755 -11.26713  -1.60957  -1.59946
 Alpha  occ. eigenvalues --   -1.40515  -1.39500  -1.20175  -1.19393  -1.09604
 Alpha  occ. eigenvalues --   -1.08774  -1.05523  -1.04788  -0.96478  -0.95620
 Alpha  occ. eigenvalues --   -0.86937  -0.86166  -0.83308  -0.82458  -0.78404
 Alpha  occ. eigenvalues --   -0.77530  -0.73113  -0.72328  -0.72133  -0.71275
 Alpha  occ. eigenvalues --   -0.71258  -0.70407  -0.65811  -0.65510  -0.65024
 Alpha  occ. eigenvalues --   -0.64752  -0.62876  -0.62122  -0.56006  -0.55225
 Alpha  occ. eigenvalues --   -0.53925  -0.53607  -0.53059  -0.52850  -0.49900
 Alpha  occ. eigenvalues --   -0.49843  -0.48895  -0.48886  -0.45947  -0.44919
 Alpha  occ. eigenvalues --   -0.38182  -0.37612  -0.36782  -0.36402
 Alpha virt. eigenvalues --    0.04061   0.05007   0.10436   0.11265   0.15625
 Alpha virt. eigenvalues --    0.16512   0.20375   0.21564   0.25833   0.27078
 Alpha virt. eigenvalues --    0.27978   0.28255   0.30424   0.30787   0.31738

 Mulliken charges:
               1
     1  C   -0.171053
     2  C   -0.219397
     3  C   -0.171799
     4  C    0.157292
     5  C   -0.172898
     6  C   -0.228209
     7  H    0.233591
     8  H    0.223586
     9  H    0.274679
    10  H    0.275055
    11  H    0.230842
    12  N    0.487993
    13  O   -0.460914
    14  O   -0.461090
    15  C   -0.170064
    16  C   -0.219028
    17  C   -0.172024
    18  C    0.151746
    19  C   -0.169953
    20  C   -0.216710
    21  H    0.229688
    22  H    0.226084
    23  H    0.276575
    24  H    0.272096
    25  H    0.228232
    26  N    0.486666
    27  O   -0.465977
    28  O   -0.455007
 Sum of Mulliken charges =  -0.00000

 Dipole moment (field-independent basis, Debye):
    X=             -3.7791    Y=              3.3637    Z=              0.5901  Tot=              5.0936
 Quadrupole moment (field-independent basis, Debye-Ang):
   XX=           -142.3466   YY=           -103.2515   ZZ=            -98.3452
   XY=            -22.1351   XZ=              1.5292   YZ=              1.7560

 Normal termination of Gaussian 16 at Wed May  5 19:33:34 2021.
