 Gaussian 16, Revision A.03,
 Gaussian 16:  EM64L-G16RevA.03 25-Dec-2016

 -------------
 #p 6-31g* mp2
 -------------

 ------------------------------------------------------
 Input file generated by CHIRIPA (05-May-2021 14:55:21)
 ------------------------------------------------------
 Symbolic Z-matrix:
 Charge =  0 Multiplicity = 1

                         Standard orientation:
 ---------------------------------------------------------------------
 Center     Atomic      Atomic             Coordinates (Angstroms)
 Number     Number       Type             X           Y           Z
 ---------------------------------------------------------------------
      1          6           0       -1.553840    1.712172   -0.259661
      2          6           0       -2.866362    1.966368   -0.670990
      3          6           0       -3.850517    0.980259   -0.554469
      4          6           0       -3.485577   -0.254332   -0.019779
      5          6           0       -2.186533   -0.538008    0.398915
      6          6           0       -1.218706    0.462998    0.273040
      7          1           0       -0.795667    2.483991   -0.353811
      8          1           0       -3.129503    2.935568   -1.085057
      9          1           0       -4.874264    1.150212   -0.865073
     10          1           0       -1.954470   -1.513893    0.807831
     11          1           0       -0.200184    0.262773    0.593304
     12          7           0       -4.518815   -1.306167    0.108529
     13          8           0       -4.171765   -2.385621    0.582839
     14          8           0       -5.656153   -1.031223   -0.267645
     15          6           0        4.813539   -0.252170   -0.310872
     16          6           0        4.995767   -1.706518    0.124618
     17          6           0        6.139815   -2.404958   -0.610998
     18          1           0        4.628699   -0.220634   -1.393362
     19          1           0        5.750395    0.295278   -0.137673
     20          1           0        4.058414   -2.250728   -0.048065
     21          1           0        5.180005   -1.734610    1.206229
     22          1           0        7.087356   -1.887468   -0.429413
     23          1           0        5.959392   -2.406520   -1.690833
     24          1           0        6.252395   -3.443458   -0.284342
     25          6           0        3.673595    0.459472    0.415640
     26          6           0        3.491367    1.913820   -0.019849
     27          6           0        2.347318    2.612259    0.715765
     28          1           0        2.736740   -0.087976    0.242440
     29          1           0        3.858435    0.427936    1.498130
     30          1           0        3.307129    1.941911   -1.101460
     31          1           0        4.428721    2.458030    0.152833
     32          1           0        2.527742    2.613820    1.795601
     33          1           0        1.399779    2.094769    0.534181
     34          1           0        2.234739    3.650759    0.389110
 ---------------------------------------------------------------------

 SCF Done:  E(RHF) =  -669.534945370     A.U. after   15 cycles
 E2 =    -0.2091854098D+01 EUMP2 =    -0.67162679946754D+03

 The electronic state is 1-A.
 Alpha  occ. eigenvalues --  -20.60724 -20.60719 -15.85778 -11.31133 -11.27707
 Alpha  occ. eigenvalues --  -11.27703 -11.27406 -11.26711 -11.26693 -11.22644
 Alpha  occ. eigenvalues --  -11.22423 -11.22354 -11.22176 -11.22077 -11.21513
 Alpha  occ. eigenvalues --   -1.59800  -1.39354  -1.19306  -1.09279  -1.08702
 Alpha  occ. eigenvalues --   -1.04713  -1.04377  -0.96856  -0.95538  -0.87875
 Alpha  occ. eigenvalues --   -0.86115  -0.82373  -0.80461  -0.79051  -0.77424
 Alpha  occ. eigenvalues --   -0.71998  -0.71124  -0.70438  -0.65939  -0.64963
 Alpha  occ. eigenvalues --   -0.64740  -0.62136  -0.61696  -0.60235  -0.58429
 Alpha  occ. eigenvalues --   -0.56207  -0.55171  -0.53525  -0.53276  -0.53034
 Alpha  occ. eigenvalues --   -0.52803  -0.50783  -0.48799  -0.48752  -0.48712
 Alpha  occ. eigenvalues --   -0.47474  -0.46594  -0.46489  -0.44762  -0.44620
 Alpha  occ. eigenvalues --   -0.37281  -0.36316
 Alpha virt. eigenvalues --    0.05116   0.11324   0.16608   0.19150   0.22578
 Alpha virt. eigenvalues --    0.23858   0.24665   0.26075   0.26394   0.28126
 Alpha virt. eigenvalues --    0.29271   0.29748   0.30756   0.31084   0.31484

 Mulliken charges:
               1
     1  C   -0.174530
     2  C   -0.218675
     3  C   -0.170905
     4  C    0.158334
     5  C   -0.171248
     6  C   -0.224840
     7  H    0.230108
     8  H    0.223316
     9  H    0.275383
    10  H    0.275579
    11  H    0.228456
    12  N    0.488039
    13  O   -0.460577
    14  O   -0.460546
    15  C   -0.298913
    16  C   -0.300374
    17  C   -0.476256
    18  H    0.151215
    19  H    0.151882
    20  H    0.151963
    21  H    0.152972
    22  H    0.156031
    23  H    0.156177
    24  H    0.162511
    25  C   -0.300247
    26  C   -0.300061
    27  C   -0.483014
    28  H    0.144328
    29  H    0.152267
    30  H    0.153523
    31  H    0.157072
    32  H    0.161709
    33  H    0.146666
    34  H    0.162657
 Sum of Mulliken charges =  -0.00000

 Dipole moment (field-independent basis, Debye):
    X=              3.9212    Y=              3.7224    Z=             -0.4487  Tot=              5.4252
 Quadrupole moment (field-independent basis, Debye-Ang):
   XX=           -117.2496   YY=            -95.2046   ZZ=            -94.3443
   XY=            -15.6215   XZ=              3.9281   YZ=             -1.4000

 Normal termination of Gaussian 16 at Wed May  5 22:14:07 2021.
