 Gaussian 16, Revision A.03,
 Gaussian 16:  EM64L-G16RevA.03 25-Dec-2016

 -------------
 #p 6-31g* mp2
 -------------

 ------------------------------------------------------
 Input file generated by CHIRIPA (05-May-2021 14:55:21)
 ------------------------------------------------------
 Symbolic Z-matrix:
 Charge =  0 Multiplicity = 1

                         Standard orientation:
 ---------------------------------------------------------------------
 Center     Atomic      Atomic             Coordinates (Angstroms)
 Number     Number       Type             X           Y           Z
 ---------------------------------------------------------------------
      1          6           0       -0.874258   -2.255494    1.409912
      2          6           0       -0.763277   -0.927456    1.834788
      3          6           0       -1.434645    0.093701    1.155782
      4          6           0       -2.211883   -0.250460    0.050908
      5          6           0       -2.342304   -1.564168   -0.396810
      6          6           0       -1.662029   -2.569059    0.297431
      7          1           0       -0.349264   -3.042435    1.943298
      8          1           0       -0.152190   -0.681001    2.698431
      9          1           0       -1.366239    1.130161    1.463173
     10          1           0       -2.958908   -1.778905   -1.261162
     11          1           0       -1.750054   -3.599556   -0.034791
     12          7           0       -2.927345    0.821982   -0.675989
     13          8           0       -3.605808    0.492652   -1.646488
     14          8           0       -2.796114    1.971586   -0.261469
     15          6           0        2.771623    1.220860    0.129014
     16          6           0        1.594870    2.174769   -0.079064
     17          6           0        1.792403    3.518999    0.622237
     18          1           0        2.916317    1.056613    1.205597
     19          1           0        3.690327    1.696907   -0.240797
     20          1           0        0.678436    1.696512    0.289766
     21          1           0        1.452840    2.336615   -1.155284
     22          1           0        2.690734    4.020470    0.247900
     23          1           0        1.911929    3.376730    1.701159
     24          1           0        0.939460    4.185438    0.460352
     25          6           0        2.588929   -0.127199   -0.566031
     26          6           0        3.765683   -1.081106   -0.357953
     27          6           0        3.568150   -2.425335   -1.059255
     28          1           0        1.670226   -0.603244   -0.196221
     29          1           0        2.444236    0.037050   -1.642615
     30          1           0        3.907712   -1.242952    0.718267
     31          1           0        4.682117   -0.602850   -0.726782
     32          1           0        3.448623   -2.283069   -2.138177
     33          1           0        2.669819   -2.926808   -0.684918
     34          1           0        4.421093   -3.091776   -0.897369
 ---------------------------------------------------------------------

 SCF Done:  E(RHF) =  -669.534810518     A.U. after   15 cycles
 E2 =    -0.2094198071D+01 EUMP2 =    -0.67162900858852D+03

 The electronic state is 1-A.
 Alpha  occ. eigenvalues --  -20.60847 -20.60839 -15.85898 -11.31303 -11.27880
 Alpha  occ. eigenvalues --  -11.27873 -11.27647 -11.26919 -11.26897 -11.21878
 Alpha  occ. eigenvalues --  -11.21576 -11.21518 -11.21453 -11.21425 -11.21031
 Alpha  occ. eigenvalues --   -1.59916  -1.39469  -1.19498  -1.08878  -1.08576
 Alpha  occ. eigenvalues --   -1.04913  -1.03677  -0.96125  -0.95706  -0.87147
 Alpha  occ. eigenvalues --   -0.86300  -0.82535  -0.79746  -0.78391  -0.77566
 Alpha  occ. eigenvalues --   -0.72117  -0.71238  -0.70610  -0.65265  -0.65140
 Alpha  occ. eigenvalues --   -0.64901  -0.62285  -0.61071  -0.59485  -0.57716
 Alpha  occ. eigenvalues --   -0.55454  -0.55390  -0.53291  -0.52997  -0.52786
 Alpha  occ. eigenvalues --   -0.52544  -0.50094  -0.48879  -0.48869  -0.48056
 Alpha  occ. eigenvalues --   -0.46802  -0.45913  -0.45830  -0.44843  -0.43910
 Alpha  occ. eigenvalues --   -0.37454  -0.36417
 Alpha virt. eigenvalues --    0.04926   0.11048   0.16387   0.20700   0.22981
 Alpha virt. eigenvalues --    0.23841   0.26287   0.27026   0.27674   0.27819
 Alpha virt. eigenvalues --    0.28272   0.30794   0.31375   0.31607   0.32018

 Mulliken charges:
               1
     1  C   -0.171563
     2  C   -0.218343
     3  C   -0.171823
     4  C    0.160538
     5  C   -0.170602
     6  C   -0.217865
     7  H    0.226589
     8  H    0.224560
     9  H    0.277236
    10  H    0.276271
    11  H    0.224368
    12  N    0.488634
    13  O   -0.459935
    14  O   -0.460534
    15  C   -0.296874
    16  C   -0.304288
    17  C   -0.477187
    18  H    0.142934
    19  H    0.150652
    20  H    0.151440
    21  H    0.156894
    22  H    0.155809
    23  H    0.149266
    24  H    0.168007
    25  C   -0.304474
    26  C   -0.298877
    27  C   -0.474812
    28  H    0.154048
    29  H    0.151447
    30  H    0.147634
    31  H    0.153440
    32  H    0.157432
    33  H    0.150062
    34  H    0.159919
 Sum of Mulliken charges =  -0.00000

 Dipole moment (field-independent basis, Debye):
    X=              2.3725    Y=             -3.7496    Z=              2.4838  Tot=              5.0850
 Quadrupole moment (field-independent basis, Debye-Ang):
   XX=           -106.0115   YY=            -91.5969   ZZ=            -92.3826
   XY=              9.5148   XZ=             -4.8084   YZ=              0.6457

 Normal termination of Gaussian 16 at Thu May  6 09:20:43 2021.
