 Gaussian 16, Revision A.03,
 Gaussian 16:  EM64L-G16RevA.03 25-Dec-2016

 -------------
 #p 6-31g* mp2
 -------------

 ------------------------------------------------------
 Input file generated by CHIRIPA (05-May-2021 14:53:13)
 ------------------------------------------------------
 Symbolic Z-matrix:
 Charge =  0 Multiplicity = 1

                         Standard orientation:
 ---------------------------------------------------------------------
 Center     Atomic      Atomic             Coordinates (Angstroms)
 Number     Number       Type             X           Y           Z
 ---------------------------------------------------------------------
      1          6           0        3.481412    0.835521   -0.395220
      2          6           0        4.042164    1.939489    0.501886
      3          6           0        3.564744    3.333220    0.092769
      4          1           0        3.773054    1.033814   -1.435686
      5          1           0        2.383565    0.871267   -0.366097
      6          1           0        5.138629    1.900789    0.472163
      7          1           0        3.749315    1.738442    1.540363
      8          1           0        2.472749    3.395690    0.140155
      9          1           0        3.869956    3.558960   -0.934114
     10          1           0        3.977556    4.107187    0.747308
     11          6           0        3.949673   -0.563525    0.001175
     12          6           0        3.388920   -1.667493   -0.895930
     13          6           0        3.866341   -3.061224   -0.486813
     14          1           0        5.047520   -0.599271   -0.027947
     15          1           0        3.658031   -0.761818    1.041642
     16          1           0        3.681769   -1.466445   -1.934407
     17          1           0        2.292456   -1.628793   -0.866208
     18          1           0        3.561128   -3.286964    0.540069
     19          1           0        4.958336   -3.123694   -0.534200
     20          1           0        3.453528   -3.835191   -1.141352
     21          6           0       -1.074464   -0.772974    1.759758
     22          6           0       -2.366458   -0.523875    2.234331
     23          6           0       -3.387271   -0.153817    1.353679
     24          6           0       -3.079521   -0.041792   -0.001322
     25          6           0       -1.802213   -0.283334   -0.504743
     26          6           0       -0.796954   -0.652122    0.394144
     27          1           0       -0.287514   -1.059950    2.450953
     28          1           0       -2.584869   -0.616956    3.294368
     29          1           0       -4.396261    0.044886    1.694084
     30          1           0       -1.614957   -0.182377   -1.566892
     31          1           0        0.205508   -0.844961    0.022755
     32          7           0       -4.151977    0.349300   -0.943282
     33          8           0       -3.855128    0.441096   -2.132437
     34          8           0       -5.269109    0.556634   -0.474597
 ---------------------------------------------------------------------

 SCF Done:  E(RHF) =  -669.535431048     A.U. after   15 cycles
 E2 =    -0.2091573123D+01 EUMP2 =    -0.67162700417126D+03

 The electronic state is 1-A.
 Alpha  occ. eigenvalues --  -20.60760 -20.60755 -15.85814 -11.31187 -11.27764
 Alpha  occ. eigenvalues --  -11.27756 -11.27512 -11.26778 -11.26753 -11.22626
 Alpha  occ. eigenvalues --  -11.22293 -11.22253 -11.22177 -11.21896 -11.21551
 Alpha  occ. eigenvalues --   -1.59835  -1.39388  -1.19364  -1.09276  -1.08758
 Alpha  occ. eigenvalues --   -1.04769  -1.04297  -0.96720  -0.95590  -0.87734
 Alpha  occ. eigenvalues --   -0.86170  -0.82425  -0.80379  -0.79085  -0.77467
 Alpha  occ. eigenvalues --   -0.72032  -0.71159  -0.70475  -0.66001  -0.65016
 Alpha  occ. eigenvalues --   -0.64730  -0.62147  -0.61667  -0.60093  -0.58332
 Alpha  occ. eigenvalues --   -0.56009  -0.55275  -0.53404  -0.53142  -0.53086
 Alpha  occ. eigenvalues --   -0.52877  -0.50669  -0.48806  -0.48786  -0.48665
 Alpha  occ. eigenvalues --   -0.47431  -0.46592  -0.46532  -0.44792  -0.44563
 Alpha  occ. eigenvalues --   -0.37347  -0.36369
 Alpha virt. eigenvalues --    0.05067   0.11225   0.16518   0.18702   0.22924
 Alpha virt. eigenvalues --    0.23626   0.24724   0.26176   0.27222   0.28378
 Alpha virt. eigenvalues --    0.29243   0.30222   0.31077   0.31220   0.31952

 Mulliken charges:
               1
     1  C   -0.300691
     2  C   -0.299555
     3  C   -0.476565
     4  H    0.153556
     5  H    0.144708
     6  H    0.154102
     7  H    0.150387
     8  H    0.156580
     9  H    0.157117
    10  H    0.162209
    11  C   -0.298674
    12  C   -0.305240
    13  C   -0.475317
    14  H    0.154340
    15  H    0.145570
    16  H    0.157737
    17  H    0.144208
    18  H    0.153265
    19  H    0.159070
    20  H    0.163463
    21  C   -0.173646
    22  C   -0.218502
    23  C   -0.170964
    24  C    0.158870
    25  C   -0.173998
    26  C   -0.229329
    27  H    0.225781
    28  H    0.223401
    29  H    0.275663
    30  H    0.276296
    31  H    0.238864
    32  N    0.488093
    33  O   -0.460247
    34  O   -0.460554
 Sum of Mulliken charges =  -0.00000

 Dipole moment (field-independent basis, Debye):
    X=              3.9746    Y=             -1.3460    Z=              3.2764  Tot=              5.3239
 Quadrupole moment (field-independent basis, Debye-Ang):
   XX=           -114.7806   YY=            -96.2600   ZZ=            -91.7032
   XY=              4.2389   XZ=            -13.9469   YZ=              0.2500

 Normal termination of Gaussian 16 at Wed May  5 21:46:12 2021.
