 Gaussian 16, Revision A.03,
 Gaussian 16:  EM64L-G16RevA.03 25-Dec-2016

 -------------
 #p 6-31g* mp2
 -------------

 ------------------------------------------------------
 Input file generated by CHIRIPA (05-May-2021 14:55:19)
 ------------------------------------------------------
 Symbolic Z-matrix:
 Charge =  0 Multiplicity = 1

                         Standard orientation:
 ---------------------------------------------------------------------
 Center     Atomic      Atomic             Coordinates (Angstroms)
 Number     Number       Type             X           Y           Z
 ---------------------------------------------------------------------
      1          6           0        1.641247    2.427113    0.615560
      2          6           0        0.979733    1.268559    0.195237
      3          6           0        1.704875    0.136863   -0.189449
      4          6           0        3.096684    0.198865   -0.141344
      5          6           0        3.784707    1.338350    0.272766
      6          6           0        3.039158    2.458256    0.652917
      7          1           0        1.070013    3.301662    0.912632
      8          1           0       -0.105814    1.241508    0.165218
      9          1           0        1.218289   -0.773120   -0.518968
     10          1           0        4.867774    1.335130    0.292083
     11          1           0        3.555575    3.356635    0.978914
     12          7           0        3.875161   -0.992970   -0.546194
     13          8           0        5.100552   -0.912862   -0.494857
     14          8           0        3.245199   -1.984671   -0.907185
     15          6           0       -4.475068   -0.167815    0.208317
     16          6           0       -4.880630    0.770858   -0.928520
     17          6           0       -6.234345    1.439849   -0.688310
     18          1           0       -5.248950   -0.937471    0.333543
     19          1           0       -4.443102    0.399251    1.148960
     20          1           0       -4.910477    0.202492   -1.866969
     21          1           0       -4.105601    1.538256   -1.051181
     22          1           0       -6.213877    2.030918    0.233003
     23          1           0       -7.023327    0.687564   -0.587419
     24          1           0       -6.504700    2.106499   -1.513141
     25          6           0       -3.123988   -0.844137   -0.017289
     26          6           0       -2.718426   -1.782810    1.119548
     27          6           0       -1.364711   -2.451801    0.879338
     28          1           0       -3.155954   -1.411203   -0.957931
     29          1           0       -2.350107   -0.074481   -0.142514
     30          1           0       -3.493455   -2.550208    1.242209
     31          1           0       -2.688579   -1.214444    2.057996
     32          1           0       -0.575729   -1.699516    0.778448
     33          1           0       -1.385179   -3.042870   -0.041975
     34          1           0       -1.094356   -3.118451    1.704168
 ---------------------------------------------------------------------

 SCF Done:  E(RHF) =  -669.535131179     A.U. after   15 cycles
 E2 =    -0.2092169974D+01 EUMP2 =    -0.67162730115320D+03

 The electronic state is 1-A.
 Alpha  occ. eigenvalues --  -20.60729 -20.60722 -15.85782 -11.31161 -11.27745
 Alpha  occ. eigenvalues --  -11.27706 -11.27493 -11.26766 -11.26752 -11.22196
 Alpha  occ. eigenvalues --  -11.22182 -11.22137 -11.21990 -11.21574 -11.21553
 Alpha  occ. eigenvalues --   -1.59804  -1.39356  -1.19344  -1.09070  -1.08735
 Alpha  occ. eigenvalues --   -1.04756  -1.04096  -0.96548  -0.95566  -0.87561
 Alpha  occ. eigenvalues --   -0.86146  -0.82405  -0.80160  -0.78904  -0.77439
 Alpha  occ. eigenvalues --   -0.72002  -0.71127  -0.70461  -0.65732  -0.64997
 Alpha  occ. eigenvalues --   -0.64758  -0.62191  -0.61421  -0.59900  -0.58157
 Alpha  occ. eigenvalues --   -0.55864  -0.55253  -0.53205  -0.53149  -0.53039
 Alpha  occ. eigenvalues --   -0.52689  -0.50476  -0.48766  -0.48754  -0.48461
 Alpha  occ. eigenvalues --   -0.47197  -0.46439  -0.46347  -0.44758  -0.44366
 Alpha  occ. eigenvalues --   -0.37327  -0.36341
 Alpha virt. eigenvalues --    0.05057   0.11286   0.16489   0.18925   0.22637
 Alpha virt. eigenvalues --    0.23767   0.24867   0.26196   0.26628   0.28506
 Alpha virt. eigenvalues --    0.29445   0.30511   0.31263   0.31495   0.31718

 Mulliken charges:
               1
     1  C   -0.171751
     2  C   -0.224488
     3  C   -0.176121
     4  C    0.158818
     5  C   -0.170924
     6  C   -0.218410
     7  H    0.225858
     8  H    0.230131
     9  H    0.280436
    10  H    0.275608
    11  H    0.223395
    12  N    0.488017
    13  O   -0.460751
    14  O   -0.459769
    15  C   -0.298404
    16  C   -0.299366
    17  C   -0.476018
    18  H    0.153259
    19  H    0.148910
    20  H    0.154365
    21  H    0.147710
    22  H    0.154854
    23  H    0.157129
    24  H    0.161631
    25  C   -0.301560
    26  C   -0.300629
    27  C   -0.479197
    28  H    0.154131
    29  H    0.139798
    30  H    0.156013
    31  H    0.151682
    32  H    0.148220
    33  H    0.160492
    34  H    0.166932
 Sum of Mulliken charges =  -0.00000

 Dipole moment (field-independent basis, Debye):
    X=             -2.8881    Y=              4.0731    Z=              1.4375  Tot=              5.1959
 Quadrupole moment (field-independent basis, Debye-Ang):
   XX=           -108.2418   YY=            -91.6216   ZZ=            -95.5540
   XY=             16.1915   XZ=              6.0511   YZ=              0.5522

 Normal termination of Gaussian 16 at Thu May  6 20:37:27 2021.
