 Gaussian 16, Revision A.03,
 Gaussian 16:  EM64L-G16RevA.03 25-Dec-2016

 -------------
 #p 6-31g* mp2
 -------------

 ------------------------------------------------------
 Input file generated by CHIRIPA (05-May-2021 14:51:10)
 ------------------------------------------------------
 Symbolic Z-matrix:
 Charge =  0 Multiplicity = 1

                         Standard orientation:
 ---------------------------------------------------------------------
 Center     Atomic      Atomic             Coordinates (Angstroms)
 Number     Number       Type             X           Y           Z
 ---------------------------------------------------------------------
      1          6           0        2.054792   -1.420302    0.609610
      2          6           0        0.566411   -1.745979    0.480608
      3          6           0        0.104640   -2.806961    1.480048
      4          1           0        2.638598   -2.339853    0.466289
      5          1           0        2.260304   -1.075834    1.632596
      6          1           0        0.363514   -2.088413   -0.542225
      7          1           0       -0.013911   -0.825510    0.624063
      8          1           0        0.278450   -2.470221    2.507179
      9          1           0        0.658019   -3.740300    1.334264
     10          1           0       -0.962363   -3.024497    1.370309
     11          6           0        2.531452   -0.361293   -0.382874
     12          6           0        4.019833   -0.035616   -0.253873
     13          6           0        4.481603    1.025366   -1.253312
     14          1           0        2.325940   -0.705761   -1.405861
     15          1           0        1.947646    0.558258   -0.239553
     16          1           0        4.600155   -0.956085   -0.397327
     17          1           0        4.222730    0.306818    0.768961
     18          1           0        3.928225    1.958705   -1.107529
     19          1           0        4.307794    0.688626   -2.280443
     20          1           0        5.548606    1.242902   -1.143573
     21          6           0       -2.119783    1.375816    0.450673
     22          6           0       -1.099797    2.439698    0.043527
     23          6           0       -0.763215    3.402541    1.182579
     24          1           0       -3.037287    1.870429    0.797790
     25          1           0       -1.726904    0.809687    1.306558
     26          1           0       -1.493887    3.002743   -0.812212
     27          1           0       -0.184684    1.942492   -0.302841
     28          1           0       -0.346141    2.858587    2.036257
     29          1           0       -1.662782    3.924861    1.523990
     30          1           0       -0.032332    4.154719    0.869690
     31          6           0       -2.466460    0.405779   -0.677409
     32          6           0       -3.486447   -0.658103   -0.270263
     33          6           0       -3.823029   -1.620946   -1.409315
     34          1           0       -2.859340    0.971908   -1.533293
     35          1           0       -1.548956   -0.088834   -1.024526
     36          1           0       -4.401560   -0.160898    0.076105
     37          1           0       -3.092358   -1.221147    0.585477
     38          1           0       -2.923461   -2.143266   -1.750727
     39          1           0       -4.240103   -1.076992   -2.262992
     40          1           0       -4.553911   -2.373124   -1.096426
 ---------------------------------------------------------------------

 SCF Done:  E(RHF) =  -470.732148897     A.U. after   11 cycles
 E2 =    -0.1585715109D+01 EUMP2 =    -0.47231786400624D+03

 The electronic state is 1-A.
 Alpha  occ. eigenvalues --  -11.21654 -11.21651 -11.21623 -11.21570 -11.21476
 Alpha  occ. eigenvalues --  -11.21416 -11.21390 -11.21263 -11.21155 -11.21115
 Alpha  occ. eigenvalues --  -11.21103 -11.21053  -1.08554  -1.08382  -1.03608
 Alpha  occ. eigenvalues --   -1.03524  -0.96053  -0.95977  -0.87064  -0.86995
 Alpha  occ. eigenvalues --   -0.79736  -0.79546  -0.78425  -0.78151  -0.65479
 Alpha  occ. eigenvalues --   -0.64803  -0.60991  -0.60966  -0.59389  -0.59344
 Alpha  occ. eigenvalues --   -0.57664  -0.57571  -0.55443  -0.55190  -0.52738
 Alpha  occ. eigenvalues --   -0.52677  -0.52510  -0.52366  -0.49992  -0.49927
 Alpha  occ. eigenvalues --   -0.48056  -0.47904  -0.46813  -0.46516  -0.46295
 Alpha  occ. eigenvalues --   -0.45819  -0.45640  -0.45181  -0.43842  -0.43770
 Alpha virt. eigenvalues --    0.19719   0.21702   0.23677   0.24752   0.25279
 Alpha virt. eigenvalues --    0.26306   0.26993   0.27510   0.28751   0.29863
 Alpha virt. eigenvalues --    0.30011   0.31256   0.31620   0.31801   0.32511

 Mulliken charges:
               1
     1  C   -0.297151
     2  C   -0.310012
     3  C   -0.477593
     4  H    0.149966
     5  H    0.149342
     6  H    0.151605
     7  H    0.163423
     8  H    0.155144
     9  H    0.155801
    10  H    0.161965
    11  C   -0.305677
    12  C   -0.299183
    13  C   -0.475836
    14  H    0.149566
    15  H    0.155709
    16  H    0.152241
    17  H    0.152093
    18  H    0.155290
    19  H    0.155318
    20  H    0.160478
    21  C   -0.301485
    22  C   -0.307318
    23  C   -0.475348
    24  H    0.150911
    25  H    0.149449
    26  H    0.152774
    27  H    0.157709
    28  H    0.154437
    29  H    0.155683
    30  H    0.160115
    31  C   -0.303544
    32  C   -0.301644
    33  C   -0.476088
    34  H    0.149586
    35  H    0.156178
    36  H    0.151842
    37  H    0.153625
    38  H    0.155410
    39  H    0.155231
    40  H    0.159989
 Sum of Mulliken charges =  -0.00000

 Dipole moment (field-independent basis, Debye):
    X=              0.0293    Y=             -0.0074    Z=             -0.0070  Tot=              0.0310
 Quadrupole moment (field-independent basis, Debye-Ang):
   XX=            -84.5488   YY=            -85.0383   ZZ=            -85.2084
   XY=             -1.2792   XZ=              0.1326   YZ=              0.2399

 Normal termination of Gaussian 16 at Wed May  5 19:47:38 2021.
