 Gaussian 16, Revision A.03,
 Gaussian 16:  EM64L-G16RevA.03 25-Dec-2016

 -------------
 #p 6-31g* mp2
 -------------

 ------------------------------------------------------
 Input file generated by CHIRIPA (05-May-2021 14:57:24)
 ------------------------------------------------------
 Symbolic Z-matrix:
 Charge =  0 Multiplicity = 1

                         Standard orientation:
 ---------------------------------------------------------------------
 Center     Atomic      Atomic             Coordinates (Angstroms)
 Number     Number       Type             X           Y           Z
 ---------------------------------------------------------------------
      1          6           0       -3.885418    2.554675   -0.418276
      2          6           0       -4.782768    1.712680    0.246803
      3          6           0       -4.484774    0.358850    0.428162
      4          6           0       -3.274984   -0.121667   -0.070638
      5          6           0       -2.360374    0.691978   -0.737541
      6          6           0       -2.679212    2.042540   -0.907462
      7          1           0       -4.125003    3.605094   -0.554717
      8          1           0       -5.720265    2.107661    0.627767
      9          1           0       -5.161331   -0.315279    0.939277
     10          1           0       -1.433642    0.269262   -1.106184
     11          1           0       -1.980417    2.694109   -1.424366
     12          7           0       -2.948478   -1.553176    0.115304
     13          8           0       -1.876056   -1.952045   -0.333529
     14          8           0       -3.771167   -2.249218    0.706358
     15          6           0        5.308465    1.448275    0.174168
     16          6           0        5.295595    0.376170   -0.724134
     17          6           0        4.204005   -0.495937   -0.773220
     18          6           0        3.137409   -0.265323    0.094238
     19          6           0        3.120642    0.793910    1.000346
     20          6           0        4.222862    1.653361    1.032029
     21          1           0        6.160568    2.120832    0.205540
     22          1           0        6.137299    0.214467   -1.391540
     23          1           0        4.167930   -1.333803   -1.458856
     24          1           0        2.266952    0.929493    1.653224
     25          1           0        4.230120    2.485145    1.730691
     26          7           0        1.976165   -1.181884    0.051485
     27          8           0        1.048851   -0.957092    0.826206
     28          8           0        2.015285   -2.107723   -0.755936
 ---------------------------------------------------------------------

 SCF Done:  E(RHF) =  -868.335296291     A.U. after   16 cycles
 E2 =    -0.2600891443D+01 EUMP2 =    -0.87093618773402D+03

 The electronic state is 1-A.
 Alpha  occ. eigenvalues --  -20.60368 -20.60357 -20.59523 -20.59344 -15.85434
 Alpha  occ. eigenvalues --  -15.84481 -11.31076 -11.30265 -11.27687 -11.27656
 Alpha  occ. eigenvalues --  -11.27454 -11.26929 -11.26854 -11.26773 -11.26751
 Alpha  occ. eigenvalues --  -11.26725 -11.26038 -11.26023  -1.59429  -1.58506
 Alpha  occ. eigenvalues --   -1.38982  -1.38039  -1.19271  -1.18496  -1.08609
 Alpha  occ. eigenvalues --   -1.07824  -1.04711  -1.03965  -0.95394  -0.94581
 Alpha  occ. eigenvalues --   -0.86095  -0.85342  -0.82226  -0.81412  -0.77233
 Alpha  occ. eigenvalues --   -0.76374  -0.71630  -0.70839  -0.70654  -0.70367
 Alpha  occ. eigenvalues --   -0.69829  -0.69613  -0.64912  -0.64707  -0.64140
 Alpha  occ. eigenvalues --   -0.63988  -0.62052  -0.61301  -0.55191  -0.54483
 Alpha  occ. eigenvalues --   -0.53033  -0.52801  -0.52274  -0.52070  -0.48397
 Alpha  occ. eigenvalues --   -0.48358  -0.47517  -0.47405  -0.44340  -0.43295
 Alpha  occ. eigenvalues --   -0.37270  -0.36515  -0.36332  -0.35587
 Alpha virt. eigenvalues --    0.05275   0.06185   0.11317   0.12064   0.16731
 Alpha virt. eigenvalues --    0.17572   0.21448   0.22086   0.27345   0.27926
 Alpha virt. eigenvalues --    0.28362   0.29020   0.30962   0.31590   0.32593

 Mulliken charges:
               1
     1  C   -0.172300
     2  C   -0.219176
     3  C   -0.171767
     4  C    0.159033
     5  C   -0.167275
     6  C   -0.220224
     7  H    0.221147
     8  H    0.219940
     9  H    0.274130
    10  H    0.280093
    11  H    0.218391
    12  N    0.486331
    13  O   -0.440669
    14  O   -0.469147
    15  C   -0.171786
    16  C   -0.218518
    17  C   -0.171667
    18  C    0.157631
    19  C   -0.173279
    20  C   -0.218680
    21  H    0.224745
    22  H    0.223217
    23  H    0.276684
    24  H    0.274675
    25  H    0.222168
    26  N    0.485265
    27  O   -0.455337
    28  O   -0.453626
 Sum of Mulliken charges =  -0.00000

 Dipole moment (field-independent basis, Debye):
    X=              3.1822    Y=              7.9302    Z=             -0.5357  Tot=              8.5616
 Quadrupole moment (field-independent basis, Debye-Ang):
   XX=            -69.3617   YY=           -107.7376   ZZ=           -102.1140
   XY=             -7.8114   XZ=             -1.2231   YZ=              2.0360

 Normal termination of Gaussian 16 at Thu May  6 14:39:44 2021.
