 Gaussian 16, Revision A.03,
 Gaussian 16:  EM64L-G16RevA.03 25-Dec-2016

 -------------
 #p 6-31g* mp2
 -------------

 ------------------------------------------------------
 Input file generated by CHIRIPA (05-May-2021 14:55:25)
 ------------------------------------------------------
 Symbolic Z-matrix:
 Charge =  0 Multiplicity = 1

                         Standard orientation:
 ---------------------------------------------------------------------
 Center     Atomic      Atomic             Coordinates (Angstroms)
 Number     Number       Type             X           Y           Z
 ---------------------------------------------------------------------
      1          6           0       -4.899457    1.312083    0.940493
      2          6           0       -5.009745   -0.045669    0.622899
      3          6           0       -3.985583   -0.698304   -0.069710
      4          6           0       -2.860096    0.040673   -0.430933
      5          6           0       -2.720755    1.394449   -0.128995
      6          6           0       -3.757328    2.026549    0.564196
      7          1           0       -5.699872    1.811090    1.478754
      8          1           0       -5.895587   -0.603043    0.913870
      9          1           0       -4.044970   -1.748537   -0.328364
     10          1           0       -1.825575    1.923619   -0.432392
     11          1           0       -3.668953    3.081091    0.809503
     12          7           0       -1.769292   -0.639373   -1.164475
     13          8           0       -0.787976    0.033995   -1.471449
     14          8           0       -1.916289   -1.832884   -1.418562
     15          6           0        4.337294    0.068409   -0.164070
     16          6           0        5.496887    0.929424    0.337908
     17          6           0        6.380654    1.450057   -0.795974
     18          1           0        4.739075   -0.778954   -0.736340
     19          1           0        3.728437    0.657530   -0.863800
     20          1           0        6.102585    0.339298    1.037548
     21          1           0        5.092307    1.774732    0.909213
     22          1           0        5.795633    2.061301   -1.490763
     23          1           0        6.811651    0.617712   -1.361699
     24          1           0        7.203252    2.063101   -0.414699
     25          6           0        3.444781   -0.459456    0.957763
     26          6           0        2.285189   -1.320472    0.455785
     27          6           0        1.401422   -1.841105    1.589669
     28          1           0        4.053640   -1.048578    1.657494
     29          1           0        3.043002    0.387907    1.530034
     30          1           0        2.689768   -2.165779   -0.115518
     31          1           0        1.679491   -0.730346   -0.243853
     32          1           0        0.970425   -1.008760    2.155393
     33          1           0        1.986443   -2.452349    2.284458
     34          1           0        0.578824   -2.454148    1.208394
 ---------------------------------------------------------------------

 SCF Done:  E(RHF) =  -669.536460553     A.U. after   15 cycles
 E2 =    -0.2091315973D+01 EUMP2 =    -0.67162777652593D+03

 The electronic state is 1-A.
 Alpha  occ. eigenvalues --  -20.60993 -20.60987 -15.86014 -11.31311 -11.27872
 Alpha  occ. eigenvalues --  -11.27866 -11.27604 -11.26874 -11.26863 -11.20994
 Alpha  occ. eigenvalues --  -11.20572 -11.20547 -11.20478 -11.20272 -11.20130
 Alpha  occ. eigenvalues --   -1.60041  -1.39600  -1.19475  -1.08884  -1.07566
 Alpha  occ. eigenvalues --   -1.04869  -1.02673  -0.95730  -0.95178  -0.86271
 Alpha  occ. eigenvalues --   -0.86201  -0.82567  -0.78743  -0.77624  -0.77334
 Alpha  occ. eigenvalues --   -0.72235  -0.71350  -0.70586  -0.65133  -0.64873
 Alpha  occ. eigenvalues --   -0.64200  -0.62218  -0.60073  -0.58541  -0.56753
 Alpha  occ. eigenvalues --   -0.55375  -0.54492  -0.53199  -0.52962  -0.51879
 Alpha  occ. eigenvalues --   -0.51596  -0.49170  -0.48996  -0.48981  -0.47066
 Alpha  occ. eigenvalues --   -0.45809  -0.45155  -0.44902  -0.44536  -0.42930
 Alpha  occ. eigenvalues --   -0.37450  -0.36469
 Alpha virt. eigenvalues --    0.04872   0.11186   0.16348   0.21310   0.23681
 Alpha virt. eigenvalues --    0.25080   0.27236   0.27495   0.28121   0.28544
 Alpha virt. eigenvalues --    0.28729   0.30885   0.32128   0.32379   0.32723

 Mulliken charges:
               1
     1  C   -0.170487
     2  C   -0.218523
     3  C   -0.170545
     4  C    0.158688
     5  C   -0.170677
     6  C   -0.218531
     7  H    0.226087
     8  H    0.223933
     9  H    0.275898
    10  H    0.275414
    11  H    0.223837
    12  N    0.489144
    13  O   -0.460103
    14  O   -0.458786
    15  C   -0.298334
    16  C   -0.298771
    17  C   -0.475197
    18  H    0.149570
    19  H    0.153333
    20  H    0.150157
    21  H    0.149310
    22  H    0.155128
    23  H    0.155107
    24  H    0.157582
    25  C   -0.297110
    26  C   -0.309259
    27  C   -0.477597
    28  H    0.145099
    29  H    0.144646
    30  H    0.150848
    31  H    0.177396
    32  H    0.147660
    33  H    0.150448
    34  H    0.164635
 Sum of Mulliken charges =  -0.00000

 Dipole moment (field-independent basis, Debye):
    X=             -4.1250    Y=              2.3908    Z=              2.4071  Tot=              5.3409
 Quadrupole moment (field-independent basis, Debye-Ang):
   XX=            -72.8332   YY=            -90.6516   ZZ=            -98.6635
   XY=             -5.4946   XZ=             -5.8974   YZ=             -0.5226

 Normal termination of Gaussian 16 at Wed May  5 19:12:35 2021.
