 Gaussian 16, Revision A.03,
 Gaussian 16:  EM64L-G16RevA.03 25-Dec-2016

 -------------
 #p 6-31g* mp2
 -------------

 ------------------------------------------------------
 Input file generated by CHIRIPA (05-May-2021 14:57:22)
 ------------------------------------------------------
 Symbolic Z-matrix:
 Charge =  0 Multiplicity = 1

                         Standard orientation:
 ---------------------------------------------------------------------
 Center     Atomic      Atomic             Coordinates (Angstroms)
 Number     Number       Type             X           Y           Z
 ---------------------------------------------------------------------
      1          6           0       -0.802108    0.461301   -1.338336
      2          6           0       -1.122635   -0.870790   -1.056703
      3          6           0       -2.344781   -1.196301   -0.460926
      4          6           0       -3.226792   -0.159926   -0.158812
      5          6           0       -2.936332    1.176848   -0.427064
      6          6           0       -1.708382    1.479074   -1.023173
      7          1           0        0.149538    0.705122   -1.801279
      8          1           0       -0.420748   -1.663272   -1.300363
      9          1           0       -2.618413   -2.219110   -0.232002
     10          1           0       -3.656408    1.945059   -0.172584
     11          1           0       -1.462128    2.514479   -1.240751
     12          7           0       -4.523695   -0.492205    0.472086
     13          8           0       -5.283525    0.439227    0.728466
     14          8           0       -4.755821   -1.677785    0.698259
     15          6           0        3.889852   -2.224540   -0.149064
     16          6           0        3.457889   -1.854943    1.128953
     17          6           0        2.970195   -0.566832    1.368688
     18          6           0        2.928279    0.330389    0.302608
     19          6           0        3.351340   -0.007841   -0.981881
     20          6           0        3.835294   -1.301437   -1.198552
     21          1           0        4.267252   -3.227305   -0.326338
     22          1           0        3.499109   -2.569758    1.945891
     23          1           0        2.629329   -0.254225    2.348232
     24          1           0        3.298123    0.726639   -1.776315
     25          1           0        4.170086   -1.585695   -2.192110
     26          7           0        2.413959    1.696957    0.544197
     27          8           0        2.387270    2.468907   -0.411847
     28          8           0        2.047262    1.970248    1.685022
 ---------------------------------------------------------------------

 SCF Done:  E(RHF) =  -868.339020517     A.U. after   16 cycles
 E2 =    -0.2600625708D+01 EUMP2 =    -0.87093964622508D+03

 The electronic state is 1-A.
 Alpha  occ. eigenvalues --  -20.61794 -20.61721 -20.60482 -20.60467 -15.86788
 Alpha  occ. eigenvalues --  -15.85526 -11.32131 -11.30820 -11.28726 -11.28609
 Alpha  occ. eigenvalues --  -11.28368 -11.27706 -11.27621 -11.27412 -11.27304
 Alpha  occ. eigenvalues --  -11.27033 -11.26435 -11.26250  -1.60819  -1.59553
 Alpha  occ. eigenvalues --   -1.40377  -1.39109  -1.20288  -1.18968  -1.09677
 Alpha  occ. eigenvalues --   -1.08372  -1.05675  -1.04354  -0.96518  -0.95226
 Alpha  occ. eigenvalues --   -0.87068  -0.85747  -0.83345  -0.82060  -0.78409
 Alpha  occ. eigenvalues --   -0.77121  -0.73005  -0.72172  -0.71746  -0.71364
 Alpha  occ. eigenvalues --   -0.70874  -0.70037  -0.65926  -0.65650  -0.64615
 Alpha  occ. eigenvalues --   -0.64338  -0.63011  -0.61700  -0.56145  -0.54860
 Alpha  occ. eigenvalues --   -0.54008  -0.53741  -0.52689  -0.52431  -0.49779
 Alpha  occ. eigenvalues --   -0.49754  -0.48507  -0.48496  -0.45776  -0.44531
 Alpha  occ. eigenvalues --   -0.38277  -0.37288  -0.36919  -0.35949
 Alpha virt. eigenvalues --    0.04071   0.05398   0.10269   0.11695   0.15615
 Alpha virt. eigenvalues --    0.16898   0.20462   0.21852   0.26226   0.27167
 Alpha virt. eigenvalues --    0.27758   0.28499   0.30301   0.31018   0.32612

 Mulliken charges:
               1
     1  C   -0.178258
     2  C   -0.218762
     3  C   -0.172430
     4  C    0.158680
     5  C   -0.170923
     6  C   -0.215363
     7  H    0.228159
     8  H    0.219040
     9  H    0.272364
    10  H    0.276018
    11  H    0.232410
    12  N    0.488130
    13  O   -0.459903
    14  O   -0.462942
    15  C   -0.171992
    16  C   -0.218637
    17  C   -0.169295
    18  C    0.160002
    19  C   -0.180662
    20  C   -0.219984
    21  H    0.228885
    22  H    0.227752
    23  H    0.279503
    24  H    0.273569
    25  H    0.225632
    26  N    0.488987
    27  O   -0.467330
    28  O   -0.452651
 Sum of Mulliken charges =  -0.00000

 Dipole moment (field-independent basis, Debye):
    X=              6.5794    Y=             -3.5538    Z=             -2.8783  Tot=              8.0127
 Quadrupole moment (field-independent basis, Debye-Ang):
   XX=           -124.5717   YY=           -103.7248   ZZ=           -100.6785
   XY=            -20.1242   XZ=              4.0666   YZ=             -2.8334

 Normal termination of Gaussian 16 at Thu May  6 09:42:49 2021.
