 Gaussian 16, Revision A.03,
 Gaussian 16:  EM64L-G16RevA.03 25-Dec-2016

 -------------
 #p 6-31g* mp2
 -------------

 ------------------------------------------------------
 Input file generated by CHIRIPA (05-May-2021 14:55:21)
 ------------------------------------------------------
 Symbolic Z-matrix:
 Charge =  0 Multiplicity = 1

                         Standard orientation:
 ---------------------------------------------------------------------
 Center     Atomic      Atomic             Coordinates (Angstroms)
 Number     Number       Type             X           Y           Z
 ---------------------------------------------------------------------
      1          6           0        0.590194   -0.808117    0.431278
      2          6           0        0.988788   -0.320804   -0.817789
      3          6           0        2.328316   -0.003336   -1.061569
      4          6           0        3.246825   -0.186238   -0.029010
      5          6           0        2.880704   -0.669854    1.226124
      6          6           0        1.535756   -0.980782    1.447457
      7          1           0       -0.452489   -1.052193    0.611933
      8          1           0        0.256633   -0.185704   -1.608827
      9          1           0        2.664256    0.375607   -2.019151
     10          1           0        3.633532   -0.793932    1.995066
     11          1           0        1.229070   -1.359059    2.418485
     12          7           0        4.667792    0.146389   -0.275207
     13          8           0        5.457599   -0.023693    0.651029
     14          8           0        4.964831    0.570887   -1.389750
     15          6           0       -3.910406    1.046585   -0.204026
     16          6           0       -2.981207    1.950366    0.606995
     17          6           0       -3.101202    3.423883    0.216942
     18          1           0       -3.684728    1.163999   -1.272776
     19          1           0       -4.948084    1.380262   -0.065183
     20          1           0       -1.945717    1.614226    0.467760
     21          1           0       -3.208995    1.830641    1.673951
     22          1           0       -4.124130    3.781566    0.372762
     23          1           0       -2.853676    3.563921   -0.840282
     24          1           0       -2.428290    4.051983    0.809007
     25          6           0       -3.801933   -0.429473    0.174417
     26          6           0       -4.731132   -1.333254   -0.636604
     27          6           0       -4.611138   -2.806772   -0.246551
     28          1           0       -2.764255   -0.763151    0.035573
     29          1           0       -4.027611   -0.546888    1.243167
     30          1           0       -4.503345   -1.213530   -1.703560
     31          1           0       -5.766622   -0.997115   -0.497369
     32          1           0       -4.858664   -2.946811    0.810673
     33          1           0       -3.588209   -3.164455   -0.402371
     34          1           0       -5.284049   -3.434872   -0.838616
 ---------------------------------------------------------------------

 SCF Done:  E(RHF) =  -669.535606739     A.U. after   15 cycles
 E2 =    -0.2091715294D+01 EUMP2 =    -0.67162732203278D+03

 The electronic state is 1-A.
 Alpha  occ. eigenvalues --  -20.60760 -20.60755 -15.85814 -11.31185 -11.27758
 Alpha  occ. eigenvalues --  -11.27749 -11.27467 -11.26779 -11.26753 -11.22579
 Alpha  occ. eigenvalues --  -11.22509 -11.22427 -11.22291 -11.21936 -11.21706
 Alpha  occ. eigenvalues --   -1.59835  -1.39389  -1.19357  -1.09397  -1.08748
 Alpha  occ. eigenvalues --   -1.04761  -1.04381  -0.96836  -0.95584  -0.87844
 Alpha  occ. eigenvalues --   -0.86157  -0.82419  -0.80453  -0.79239  -0.77464
 Alpha  occ. eigenvalues --   -0.72031  -0.71158  -0.70479  -0.66040  -0.65006
 Alpha  occ. eigenvalues --   -0.64757  -0.62109  -0.61775  -0.60198  -0.58452
 Alpha  occ. eigenvalues --   -0.56160  -0.55257  -0.53477  -0.53250  -0.53085
 Alpha  occ. eigenvalues --   -0.52852  -0.50776  -0.48797  -0.48786  -0.48757
 Alpha  occ. eigenvalues --   -0.47500  -0.46736  -0.46683  -0.44793  -0.44672
 Alpha  occ. eigenvalues --   -0.37322  -0.36366
 Alpha virt. eigenvalues --    0.05053   0.11238   0.16496   0.18992   0.22732
 Alpha virt. eigenvalues --    0.23446   0.24816   0.26102   0.27043   0.27532
 Alpha virt. eigenvalues --    0.30213   0.30262   0.31070   0.31176   0.31520

 Mulliken charges:
               1
     1  C   -0.176561
     2  C   -0.221917
     3  C   -0.170764
     4  C    0.158339
     5  C   -0.170641
     6  C   -0.220216
     7  H    0.236523
     8  H    0.222725
     9  H    0.275613
    10  H    0.275593
    11  H    0.224354
    12  N    0.488013
    13  O   -0.460362
    14  O   -0.460469
    15  C   -0.298532
    16  C   -0.302638
    17  C   -0.475892
    18  H    0.149373
    19  H    0.153944
    20  H    0.149187
    21  H    0.153022
    22  H    0.157137
    23  H    0.155685
    24  H    0.163612
    25  C   -0.303003
    26  C   -0.299605
    27  C   -0.476189
    28  H    0.139672
    29  H    0.152241
    30  H    0.152846
    31  H    0.156210
    32  H    0.156471
    33  H    0.151849
    34  H    0.164381
 Sum of Mulliken charges =  -0.00000

 Dipole moment (field-independent basis, Debye):
    X=             -5.2104    Y=             -1.1185    Z=              0.8831  Tot=              5.4018
 Quadrupole moment (field-independent basis, Debye-Ang):
   XX=           -126.0920   YY=            -95.5720   ZZ=            -89.9996
   XY=             -3.4284   XZ=              3.7193   YZ=             -1.3187

 Normal termination of Gaussian 16 at Thu May  6 10:52:43 2021.
