 Gaussian 16, Revision A.03,
 Gaussian 16:  EM64L-G16RevA.03 25-Dec-2016

 -------------
 #p 6-31g* mp2
 -------------

 ------------------------------------------------------
 Input file generated by CHIRIPA (05-May-2021 14:55:19)
 ------------------------------------------------------
 Symbolic Z-matrix:
 Charge =  0 Multiplicity = 1

                         Standard orientation:
 ---------------------------------------------------------------------
 Center     Atomic      Atomic             Coordinates (Angstroms)
 Number     Number       Type             X           Y           Z
 ---------------------------------------------------------------------
      1          6           0       -5.327489   -1.469994   -0.480634
      2          6           0       -4.988134   -0.462046   -1.389149
      3          6           0       -3.969565    0.448278   -1.091869
      4          6           0       -3.308116    0.320887    0.128601
      5          6           0       -3.623148   -0.672495    1.054472
      6          6           0       -4.645116   -1.571822    0.736132
      7          1           0       -6.120058   -2.172884   -0.719748
      8          1           0       -5.516370   -0.380566   -2.334862
      9          1           0       -3.686485    1.238181   -1.776951
     10          1           0       -3.078627   -0.728441    1.989237
     11          1           0       -4.906529   -2.353603    1.443611
     12          7           0       -2.228004    1.278785    0.454466
     13          8           0       -1.660420    1.145214    1.536429
     14          8           0       -1.969447    2.145020   -0.378255
     15          6           0        5.125027   -0.142138   -0.469673
     16          6           0        6.345658   -0.434948    0.403429
     17          6           0        7.664125   -0.297735   -0.358550
     18          1           0        5.125520   -0.824883   -1.330372
     19          1           0        5.209910    0.874740   -0.877289
     20          1           0        6.257820   -1.450469    0.810392
     21          1           0        6.342155    0.248445    1.262252
     22          1           0        7.778263    0.717848   -0.751184
     23          1           0        7.693449   -0.990719   -1.205612
     24          1           0        8.523578   -0.511435    0.284517
     25          6           0        3.799470   -0.275179    0.277942
     26          6           0        2.578840    0.017633   -0.595159
     27          6           0        1.260373   -0.119581    0.166820
     28          1           0        3.714587   -1.292055    0.685559
     29          1           0        3.798977    0.407567    1.138642
     30          1           0        2.582342   -0.665761   -1.453982
     31          1           0        2.666677    1.033154   -1.002122
     32          1           0        1.231048    0.573402    1.013882
     33          1           0        1.146234   -1.135165    0.559455
     34          1           0        0.400920    0.094119   -0.476247
 ---------------------------------------------------------------------

 SCF Done:  E(RHF) =  -669.535710360     A.U. after   15 cycles
 E2 =    -0.2091643397D+01 EUMP2 =    -0.67162735375701D+03

 The electronic state is 1-A.
 Alpha  occ. eigenvalues --  -20.60861 -20.60842 -15.85861 -11.31224 -11.27794
 Alpha  occ. eigenvalues --  -11.27786 -11.27536 -11.26806 -11.26796 -11.21119
 Alpha  occ. eigenvalues --  -11.20797 -11.20684 -11.20672 -11.20620 -11.19850
 Alpha  occ. eigenvalues --   -1.59906  -1.39461  -1.19396  -1.08796  -1.07748
 Alpha  occ. eigenvalues --   -1.04797  -1.02793  -0.95637  -0.95228  -0.86251
 Alpha  occ. eigenvalues --   -0.86195  -0.82469  -0.78882  -0.77551  -0.77513
 Alpha  occ. eigenvalues --   -0.72101  -0.71231  -0.70506  -0.65052  -0.64802
 Alpha  occ. eigenvalues --   -0.64381  -0.62144  -0.60184  -0.58639  -0.56842
 Alpha  occ. eigenvalues --   -0.55304  -0.54509  -0.53130  -0.52890  -0.51925
 Alpha  occ. eigenvalues --   -0.51656  -0.49243  -0.48861  -0.48777  -0.47194
 Alpha  occ. eigenvalues --   -0.45917  -0.45152  -0.45016  -0.44731  -0.43052
 Alpha  occ. eigenvalues --   -0.37375  -0.36398
 Alpha virt. eigenvalues --    0.04998   0.11255   0.16470   0.21383   0.23516
 Alpha virt. eigenvalues --    0.25047   0.27286   0.27332   0.28147   0.28168
 Alpha virt. eigenvalues --    0.28794   0.30899   0.32151   0.32325   0.32407

 Mulliken charges:
               1
     1  C   -0.170669
     2  C   -0.218585
     3  C   -0.171155
     4  C    0.157760
     5  C   -0.170343
     6  C   -0.218647
     7  H    0.225720
     8  H    0.223559
     9  H    0.275664
    10  H    0.275985
    11  H    0.223590
    12  N    0.487945
    13  O   -0.456719
    14  O   -0.460040
    15  C   -0.297681
    16  C   -0.299169
    17  C   -0.475334
    18  H    0.147593
    19  H    0.149797
    20  H    0.150512
    21  H    0.152226
    22  H    0.155118
    23  H    0.154027
    24  H    0.158808
    25  C   -0.298028
    26  C   -0.300640
    27  C   -0.473290
    28  H    0.146518
    29  H    0.151338
    30  H    0.145864
    31  H    0.154472
    32  H    0.173010
    33  H    0.145337
    34  H    0.155458
 Sum of Mulliken charges =  -0.00000

 Dipole moment (field-independent basis, Debye):
    X=             -4.0068    Y=             -3.2537    Z=             -1.0510  Tot=              5.2674
 Quadrupole moment (field-independent basis, Debye-Ang):
   XX=            -71.9974   YY=            -95.5529   ZZ=            -91.4910
   XY=             10.1477   XZ=              4.7105   YZ=             -2.8269

 Normal termination of Gaussian 16 at Thu May  6 14:03:59 2021.
