 Gaussian 16, Revision A.03,
 Gaussian 16:  EM64L-G16RevA.03 25-Dec-2016

 -------------
 #p 6-31g* mp2
 -------------

 ------------------------------------------------------
 Input file generated by CHIRIPA (05-May-2021 14:55:20)
 ------------------------------------------------------
 Symbolic Z-matrix:
 Charge =  0 Multiplicity = 1

                         Standard orientation:
 ---------------------------------------------------------------------
 Center     Atomic      Atomic             Coordinates (Angstroms)
 Number     Number       Type             X           Y           Z
 ---------------------------------------------------------------------
      1          6           0        1.203788   -1.977602   -0.199961
      2          6           0        0.837601   -0.652088   -0.455774
      3          6           0        1.783003    0.374453   -0.372243
      4          6           0        3.091529    0.038190   -0.028765
      5          6           0        3.487226   -1.272822    0.231930
      6          6           0        2.525103   -2.283200    0.142471
      7          1           0        0.462883   -2.768765   -0.267153
      8          1           0       -0.187815   -0.411816   -0.721924
      9          1           0        1.526740    1.409120   -0.565148
     10          1           0        4.517143   -1.481357    0.494995
     11          1           0        2.812342   -3.311721    0.341677
     12          7           0        4.101235    1.116387    0.062803
     13          8           0        5.247521    0.793983    0.367304
     14          8           0        3.727238    2.263466   -0.171660
     15          6           0       -3.614497   -0.479815   -0.308757
     16          6           0       -3.818542   -1.712192    0.573058
     17          6           0       -3.555416   -3.021691   -0.171100
     18          1           0       -4.278573   -0.547165   -1.181347
     19          1           0       -2.586671   -0.481690   -0.697299
     20          1           0       -4.845256   -1.707263    0.960935
     21          1           0       -3.154041   -1.641806    1.443747
     22          1           0       -2.526665   -3.052675   -0.544349
     23          1           0       -4.227490   -3.118503   -1.029904
     24          1           0       -3.707112   -3.889774    0.477962
     25          6           0       -3.873803    0.836961    0.421031
     26          6           0       -3.669759    2.069338   -0.460783
     27          6           0       -3.932886    3.378838    0.283373
     28          1           0       -4.901630    0.838836    0.809573
     29          1           0       -3.209728    0.904311    1.293620
     30          1           0       -4.334260    1.998952   -1.331474
     31          1           0       -2.643045    2.064409   -0.848662
     32          1           0       -3.260811    3.475649    1.142177
     33          1           0       -4.961635    3.409821    0.656623
     34          1           0       -3.781188    4.246919   -0.365688
 ---------------------------------------------------------------------

 SCF Done:  E(RHF) =  -669.535435200     A.U. after   15 cycles
 E2 =    -0.2091623126D+01 EUMP2 =    -0.67162705832601D+03

 The electronic state is 1-A.
 Alpha  occ. eigenvalues --  -20.60758 -20.60753 -15.85811 -11.31179 -11.27749
 Alpha  occ. eigenvalues --  -11.27746 -11.27491 -11.26764 -11.26744 -11.22557
 Alpha  occ. eigenvalues --  -11.22428 -11.22296 -11.22148 -11.22145 -11.21548
 Alpha  occ. eigenvalues --   -1.59833  -1.39387  -1.19352  -1.09309  -1.08746
 Alpha  occ. eigenvalues --   -1.04757  -1.04345  -0.96801  -0.95581  -0.87811
 Alpha  occ. eigenvalues --   -0.86158  -0.82415  -0.80416  -0.79113  -0.77461
 Alpha  occ. eigenvalues --   -0.72030  -0.71156  -0.70463  -0.66015  -0.65004
 Alpha  occ. eigenvalues --   -0.64728  -0.62116  -0.61734  -0.60169  -0.58399
 Alpha  occ. eigenvalues --   -0.56140  -0.55234  -0.53463  -0.53229  -0.53085
 Alpha  occ. eigenvalues --   -0.52846  -0.50740  -0.48796  -0.48784  -0.48718
 Alpha  occ. eigenvalues --   -0.47464  -0.46639  -0.46557  -0.44792  -0.44612
 Alpha  occ. eigenvalues --   -0.37333  -0.36360
 Alpha virt. eigenvalues --    0.05075   0.11281   0.16564   0.17820   0.22393
 Alpha virt. eigenvalues --    0.23415   0.24634   0.25663   0.26440   0.28173
 Alpha virt. eigenvalues --    0.29272   0.30893   0.31120   0.31420   0.31558

 Mulliken charges:
               1
     1  C   -0.176034
     2  C   -0.226637
     3  C   -0.173294
     4  C    0.158950
     5  C   -0.171025
     6  C   -0.218746
     7  H    0.228351
     8  H    0.234913
     9  H    0.276046
    10  H    0.275561
    11  H    0.223663
    12  N    0.487993
    13  O   -0.460499
    14  O   -0.460418
    15  C   -0.302892
    16  C   -0.301212
    17  C   -0.475523
    18  H    0.154192
    19  H    0.141433
    20  H    0.156999
    21  H    0.153066
    22  H    0.144711
    23  H    0.159658
    24  H    0.163844
    25  C   -0.299584
    26  C   -0.298990
    27  C   -0.476479
    28  H    0.153302
    29  H    0.151249
    30  H    0.154081
    31  H    0.146143
    32  H    0.157112
    33  H    0.156795
    34  H    0.163272
 Sum of Mulliken charges =  -0.00000

 Dipole moment (field-independent basis, Debye):
    X=             -3.8076    Y=             -3.7519    Z=             -0.2570  Tot=              5.3517
 Quadrupole moment (field-independent basis, Debye-Ang):
   XX=           -112.4770   YY=            -93.8214   ZZ=            -95.3534
   XY=            -14.5569   XZ=              0.2954   YZ=             -1.3012

 Normal termination of Gaussian 16 at Thu May  6 19:08:26 2021.
