 Gaussian 16, Revision A.03,
 Gaussian 16:  EM64L-G16RevA.03 25-Dec-2016

 -------------
 #p 6-31g* mp2
 -------------

 ------------------------------------------------------
 Input file generated by CHIRIPA (05-May-2021 14:51:08)
 ------------------------------------------------------
 Symbolic Z-matrix:
 Charge =  0 Multiplicity = 1

                         Standard orientation:
 ---------------------------------------------------------------------
 Center     Atomic      Atomic             Coordinates (Angstroms)
 Number     Number       Type             X           Y           Z
 ---------------------------------------------------------------------
      1          6           0       -3.387152    0.267651   -0.588861
      2          6           0       -3.357118   -1.258120   -0.493433
      3          6           0       -4.503297   -1.920930   -1.258123
      4          1           0       -4.347997    0.634023   -0.202217
      5          1           0       -3.342725    0.562881   -1.646340
      6          1           0       -3.400193   -1.550351    0.563620
      7          1           0       -2.396157   -1.620889   -0.880172
      8          1           0       -4.460598   -1.658240   -2.320089
      9          1           0       -5.470340   -1.587302   -0.868094
     10          1           0       -4.462580   -3.011592   -1.176522
     11          6           0       -2.247572    0.944693    0.170545
     12          6           0       -2.277605    2.470464    0.075116
     13          6           0       -1.131426    3.133274    0.839806
     14          1           0       -2.291998    0.649463    1.228023
     15          1           0       -1.286726    0.578322   -0.216099
     16          1           0       -3.238567    2.833233    0.461855
     17          1           0       -2.234531    2.762696   -0.981937
     18          1           0       -0.164384    2.799646    0.449777
     19          1           0       -1.174126    2.870584    1.901772
     20          1           0       -1.172143    4.223936    0.758206
     21          6           0        2.186300   -0.519813    0.630744
     22          6           0        1.519282   -1.844591    1.002279
     23          6           0        0.258084   -1.655349    1.845702
     24          1           0        2.436748    0.027695    1.549686
     25          1           0        1.467020    0.103547    0.081695
     26          1           0        2.240044   -2.465825    1.549259
     27          1           0        1.270565   -2.389095    0.082349
     28          1           0       -0.481448   -1.056863    1.303939
     29          1           0        0.493539   -1.134028    2.779183
     30          1           0       -0.202588   -2.615033    2.099962
     31          6           0        3.448425   -0.692530   -0.212427
     32          6           0        4.115442    0.632246   -0.583963
     33          6           0        5.376640    0.443004   -1.427385
     34          1           0        4.167703   -1.315891    0.336621
     35          1           0        3.197976   -1.240039   -1.131369
     36          1           0        4.364158    1.176750    0.335968
     37          1           0        3.394680    1.253480   -1.130942
     38          1           0        5.141185   -0.078316   -2.360866
     39          1           0        6.116172   -0.155482   -0.885621
     40          1           0        5.837312    1.402688   -1.681644
 ---------------------------------------------------------------------

 SCF Done:  E(RHF) =  -470.732401898     A.U. after   11 cycles
 E2 =    -0.1584362241D+01 EUMP2 =    -0.47231676413856D+03

 The electronic state is 1-A.
 Alpha  occ. eigenvalues --  -11.21637 -11.21632 -11.21602 -11.21531 -11.21457
 Alpha  occ. eigenvalues --  -11.21397 -11.21390 -11.21330 -11.21097 -11.21076
 Alpha  occ. eigenvalues --  -11.21071 -11.20827  -1.08501  -1.08391  -1.03562
 Alpha  occ. eigenvalues --   -1.03477  -0.96033  -0.95908  -0.87039  -0.86935
 Alpha  occ. eigenvalues --   -0.79648  -0.79559  -0.78422  -0.78106  -0.65176
 Alpha  occ. eigenvalues --   -0.64980  -0.60961  -0.60886  -0.59406  -0.59272
 Alpha  occ. eigenvalues --   -0.57745  -0.57444  -0.55304  -0.55219  -0.52724
 Alpha  occ. eigenvalues --   -0.52609  -0.52532  -0.52247  -0.49955  -0.49890
 Alpha  occ. eigenvalues --   -0.48062  -0.47820  -0.46802  -0.46638  -0.46071
 Alpha  occ. eigenvalues --   -0.45772  -0.45692  -0.45104  -0.43819  -0.43738
 Alpha virt. eigenvalues --    0.20600   0.23273   0.23645   0.23982   0.25560
 Alpha virt. eigenvalues --    0.26044   0.27022   0.27618   0.28572   0.29852
 Alpha virt. eigenvalues --    0.30830   0.31416   0.31749   0.31817   0.32006

 Mulliken charges:
               1
     1  C   -0.297543
     2  C   -0.301298
     3  C   -0.475717
     4  H    0.149945
     5  H    0.149302
     6  H    0.153580
     7  H    0.152149
     8  H    0.155084
     9  H    0.155320
    10  H    0.160522
    11  C   -0.306310
    12  C   -0.298514
    13  C   -0.477060
    14  H    0.152888
    15  H    0.153231
    16  H    0.152155
    17  H    0.151658
    18  H    0.156529
    19  H    0.155673
    20  H    0.160310
    21  C   -0.302049
    22  C   -0.299135
    23  C   -0.486228
    24  H    0.150227
    25  H    0.151368
    26  H    0.151516
    27  H    0.150708
    28  H    0.169757
    29  H    0.153352
    30  H    0.158748
    31  C   -0.298126
    32  C   -0.299553
    33  C   -0.475673
    34  H    0.149826
    35  H    0.149295
    36  H    0.152217
    37  H    0.151229
    38  H    0.155069
    39  H    0.155284
    40  H    0.160264
 Sum of Mulliken charges =  -0.00000

 Dipole moment (field-independent basis, Debye):
    X=             -0.0599    Y=              0.0344    Z=             -0.0012  Tot=              0.0691
 Quadrupole moment (field-independent basis, Debye-Ang):
   XX=            -85.4902   YY=            -85.2665   ZZ=            -84.0358
   XY=             -0.5104   XZ=              0.1233   YZ=             -0.2087

 Normal termination of Gaussian 16 at Wed May  5 15:04:11 2021.
