 Gaussian 16, Revision A.03,
 Gaussian 16:  EM64L-G16RevA.03 25-Dec-2016

 -------------
 #p 6-31g* mp2
 -------------

 ------------------------------------------------------
 Input file generated by CHIRIPA (05-May-2021 14:53:18)
 ------------------------------------------------------
 Symbolic Z-matrix:
 Charge =  0 Multiplicity = 1

                         Standard orientation:
 ---------------------------------------------------------------------
 Center     Atomic      Atomic             Coordinates (Angstroms)
 Number     Number       Type             X           Y           Z
 ---------------------------------------------------------------------
      1          6           0        3.106892   -0.112616    0.149021
      2          6           0        2.249804   -0.511067    1.350945
      3          6           0        0.754054   -0.518316    1.033970
      4          1           0        2.799442    0.883202   -0.198495
      5          1           0        2.910031   -0.807283   -0.679277
      6          1           0        2.449249    0.183314    2.177185
      7          1           0        2.559459   -1.505970    1.695758
      8          1           0        0.534751   -1.224615    0.226722
      9          1           0        0.423915    0.474268    0.710883
     10          1           0        0.160037   -0.805894    1.907070
     11          6           0        4.604514   -0.100745    0.450211
     12          6           0        5.461602    0.297706   -0.751713
     13          6           0        6.957352    0.304955   -0.434738
     14          1           0        4.801375    0.593922    1.278509
     15          1           0        4.911964   -1.096563    0.797727
     16          1           0        5.151947    1.292609   -1.096526
     17          1           0        5.262157   -0.396675   -1.577953
     18          1           0        7.287491   -0.687629   -0.111651
     19          1           0        7.176655    1.011254    0.372510
     20          1           0        7.551369    0.592533   -1.307838
     21          6           0       -3.004698   -2.429210   -0.464161
     22          6           0       -3.863226   -1.812766    0.452053
     23          6           0       -3.875906   -0.421397    0.587987
     24          6           0       -3.013000    0.326249   -0.211831
     25          6           0       -2.146078   -0.258526   -1.133665
     26          6           0       -2.150371   -1.651493   -1.252705
     27          1           0       -3.001439   -3.510679   -0.563196
     28          1           0       -4.527791   -2.414235    1.065759
     29          1           0       -4.530359    0.081779    1.289360
     30          1           0       -1.495028    0.367569   -1.731625
     31          1           0       -1.482559   -2.127511   -1.965081
     32          7           0       -3.017440    1.800075   -0.076866
     33          8           0       -2.247576    2.436360   -0.793167
     34          8           0       -3.790701    2.291068    0.742664
 ---------------------------------------------------------------------

 SCF Done:  E(RHF) =  -669.535102978     A.U. after   15 cycles
 E2 =    -0.2092380530D+01 EUMP2 =    -0.67162748350783D+03

 The electronic state is 1-A.
 Alpha  occ. eigenvalues --  -20.60774 -20.60768 -15.85820 -11.31144 -11.27732
 Alpha  occ. eigenvalues --  -11.27727 -11.27481 -11.26734 -11.26724 -11.21630
 Alpha  occ. eigenvalues --  -11.21621 -11.21455 -11.21391 -11.21089 -11.21080
 Alpha  occ. eigenvalues --   -1.59844  -1.39399  -1.19334  -1.08734  -1.08470
 Alpha  occ. eigenvalues --   -1.04743  -1.03560  -0.96019  -0.95571  -0.87037
 Alpha  occ. eigenvalues --   -0.86139  -0.82411  -0.79633  -0.78291  -0.77456
 Alpha  occ. eigenvalues --   -0.72041  -0.71163  -0.70452  -0.65103  -0.64990
 Alpha  occ. eigenvalues --   -0.64747  -0.62093  -0.60958  -0.59382  -0.57642
 Alpha  occ. eigenvalues --   -0.55317  -0.55243  -0.53330  -0.52837  -0.52632
 Alpha  occ. eigenvalues --   -0.52257  -0.49958  -0.48798  -0.48796  -0.47944
 Alpha  occ. eigenvalues --   -0.46663  -0.45832  -0.45754  -0.44803  -0.43817
 Alpha  occ. eigenvalues --   -0.37300  -0.36254
 Alpha virt. eigenvalues --    0.05084   0.11255   0.16515   0.21211   0.22858
 Alpha virt. eigenvalues --    0.24212   0.26504   0.26816   0.27614   0.28018
 Alpha virt. eigenvalues --    0.28711   0.30218   0.31616   0.31883   0.31926

 Mulliken charges:
               1
     1  C   -0.298631
     2  C   -0.300275
     3  C   -0.477078
     4  H    0.153442
     5  H    0.144507
     6  H    0.154224
     7  H    0.149622
     8  H    0.149162
     9  H    0.159754
    10  H    0.160287
    11  C   -0.298178
    12  C   -0.299782
    13  C   -0.475744
    14  H    0.151149
    15  H    0.148539
    16  H    0.153650
    17  H    0.150210
    18  H    0.154490
    19  H    0.156055
    20  H    0.160403
    21  C   -0.170531
    22  C   -0.218914
    23  C   -0.170955
    24  C    0.159047
    25  C   -0.164806
    26  C   -0.218517
    27  H    0.225376
    28  H    0.223140
    29  H    0.275405
    30  H    0.275634
    31  H    0.222895
    32  N    0.488051
    33  O   -0.461330
    34  O   -0.460301
 Sum of Mulliken charges =  -0.00000

 Dipole moment (field-independent basis, Debye):
    X=             -0.0184    Y=             -5.1410    Z=             -0.4648  Tot=              5.1620
 Quadrupole moment (field-independent basis, Debye-Ang):
   XX=            -94.0476   YY=            -97.8794   ZZ=            -92.4569
   XY=             16.1996   XZ=             -1.5203   YZ=              1.0133

 Normal termination of Gaussian 16 at Thu May  6 04:25:30 2021.
