 Gaussian 16, Revision A.03,
 Gaussian 16:  EM64L-G16RevA.03 25-Dec-2016

 -------------
 #p 6-31g* mp2
 -------------

 ------------------------------------------------------
 Input file generated by CHIRIPA (05-May-2021 14:53:15)
 ------------------------------------------------------
 Symbolic Z-matrix:
 Charge =  0 Multiplicity = 1

                         Standard orientation:
 ---------------------------------------------------------------------
 Center     Atomic      Atomic             Coordinates (Angstroms)
 Number     Number       Type             X           Y           Z
 ---------------------------------------------------------------------
      1          6           0        4.146599    0.074205   -0.120924
      2          6           0        3.375280    1.251385    0.476822
      3          6           0        1.899667    1.255705    0.076393
      4          1           0        4.062406    0.106967   -1.215814
      5          1           0        3.675654   -0.864990    0.200817
      6          1           0        3.848369    2.188052    0.155173
      7          1           0        3.461478    1.215926    1.570407
      8          1           0        1.406902    0.337250    0.411390
      9          1           0        1.795991    1.314899   -1.011884
     10          1           0        1.367245    2.105604    0.514639
     11          6           0        5.623190    0.056141    0.270331
     12          6           0        6.394509   -1.121038   -0.327415
     13          6           0        7.870121   -1.125359    0.073014
     14          1           0        6.094135    0.995336   -0.051410
     15          1           0        5.707382    0.023379    1.365221
     16          1           0        6.308310   -1.085579   -1.421000
     17          1           0        5.921419   -2.057705   -0.005766
     18          1           0        7.973798   -1.184553    1.161292
     19          1           0        8.362886   -0.206904   -0.261983
     20          1           0        8.402543   -1.975258   -0.365231
     21          6           0       -2.318528    1.960719   -0.333777
     22          6           0       -1.802235    0.673477   -0.515349
     23          6           0       -2.622907   -0.448366   -0.365303
     24          6           0       -3.961125   -0.245394   -0.031736
     25          6           0       -4.505054    1.024358    0.155776
     26          6           0       -3.665915    2.131751    0.000616
     27          1           0       -1.673837    2.826581   -0.452323
     28          1           0       -0.756227    0.537640   -0.775081
     29          1           0       -2.249271   -1.456165   -0.500039
     30          1           0       -5.551878    1.128025    0.414298
     31          1           0       -4.069606    3.130260    0.142239
     32          7           0       -4.839710   -1.425390    0.129818
     33          8           0       -6.015210   -1.219773    0.424021
     34          8           0       -4.336206   -2.533544   -0.040817
 ---------------------------------------------------------------------

 SCF Done:  E(RHF) =  -669.535415425     A.U. after   15 cycles
 E2 =    -0.2091211964D+01 EUMP2 =    -0.67162662738896D+03

 The electronic state is 1-A.
 Alpha  occ. eigenvalues --  -20.60690 -20.60685 -15.85741 -11.31083 -11.27647
 Alpha  occ. eigenvalues --  -11.27622 -11.27364 -11.26667 -11.26554 -11.22481
 Alpha  occ. eigenvalues --  -11.22339 -11.22071 -11.22017 -11.21891 -11.21406
 Alpha  occ. eigenvalues --   -1.59766  -1.39320  -1.19244  -1.09080  -1.08642
 Alpha  occ. eigenvalues --   -1.04644  -1.04227  -0.96718  -0.95484  -0.87767
 Alpha  occ. eigenvalues --   -0.86027  -0.82318  -0.80325  -0.78847  -0.77363
 Alpha  occ. eigenvalues --   -0.71960  -0.71088  -0.70355  -0.65702  -0.64892
 Alpha  occ. eigenvalues --   -0.64650  -0.62011  -0.61614  -0.60102  -0.58292
 Alpha  occ. eigenvalues --   -0.56003  -0.55146  -0.53515  -0.53230  -0.52965
 Alpha  occ. eigenvalues --   -0.52541  -0.50650  -0.48750  -0.48717  -0.48563
 Alpha  occ. eigenvalues --   -0.47313  -0.46397  -0.46288  -0.44731  -0.44463
 Alpha  occ. eigenvalues --   -0.37222  -0.36239
 Alpha virt. eigenvalues --    0.05152   0.11369   0.16631   0.20605   0.22319
 Alpha virt. eigenvalues --    0.23795   0.25748   0.26001   0.26704   0.27701
 Alpha virt. eigenvalues --    0.28916   0.29956   0.30537   0.31612   0.32285

 Mulliken charges:
               1
     1  C   -0.299440
     2  C   -0.299569
     3  C   -0.484198
     4  H    0.149854
     5  H    0.150768
     6  H    0.154178
     7  H    0.155982
     8  H    0.156039
     9  H    0.152600
    10  H    0.159821
    11  C   -0.298928
    12  C   -0.300227
    13  C   -0.476097
    14  H    0.150227
    15  H    0.151077
    16  H    0.152324
    17  H    0.153050
    18  H    0.155956
    19  H    0.155484
    20  H    0.161771
    21  C   -0.174252
    22  C   -0.224247
    23  C   -0.173452
    24  C    0.158998
    25  C   -0.171608
    26  C   -0.218440
    27  H    0.225312
    28  H    0.237551
    29  H    0.275131
    30  H    0.275090
    31  H    0.222793
    32  N    0.488007
    33  O   -0.460797
    34  O   -0.460757
 Sum of Mulliken charges =  -0.00000

 Dipole moment (field-independent basis, Debye):
    X=              3.3730    Y=              4.1573    Z=             -0.5333  Tot=              5.3800
 Quadrupole moment (field-independent basis, Debye-Ang):
   XX=           -117.0189   YY=            -95.1291   ZZ=            -94.7103
   XY=            -19.7843   XZ=              0.9293   YZ=              0.3381

 Normal termination of Gaussian 16 at Thu May  6 10:35:29 2021.
