 Gaussian 16, Revision A.03,
 Gaussian 16:  EM64L-G16RevA.03 25-Dec-2016

 -------------
 #p 6-31g* mp2
 -------------

 ------------------------------------------------------
 Input file generated by CHIRIPA (05-May-2021 14:53:17)
 ------------------------------------------------------
 Symbolic Z-matrix:
 Charge =  0 Multiplicity = 1

                         Standard orientation:
 ---------------------------------------------------------------------
 Center     Atomic      Atomic             Coordinates (Angstroms)
 Number     Number       Type             X           Y           Z
 ---------------------------------------------------------------------
      1          6           0        3.561790   -0.382371    0.027713
      2          6           0        2.900591   -1.254828    1.095243
      3          6           0        1.505187   -1.730061    0.689296
      4          1           0        2.921267    0.486954   -0.174646
      5          1           0        3.625283   -0.949216   -0.911463
      6          1           0        2.839619   -0.686991    2.032505
      7          1           0        3.542855   -2.122077    1.295222
      8          1           0        1.551804   -2.319069   -0.232386
      9          1           0        0.844572   -0.875828    0.509086
     10          1           0        1.050945   -2.352119    1.466837
     11          6           0        4.957322    0.100476    0.418962
     12          6           0        5.618520    0.972932   -0.648569
     13          6           0        7.013925    1.448166   -0.242622
     14          1           0        4.893829    0.667321    1.358137
     15          1           0        5.597845   -0.768849    0.621321
     16          1           0        4.976257    1.840182   -0.848548
     17          1           0        5.679493    0.405096   -1.585831
     18          1           0        7.674539    0.593933   -0.062412
     19          1           0        6.967308    2.037173    0.679060
     20          1           0        7.468167    2.070223   -1.020162
     21          6           0       -2.114932   -2.004788   -0.824184
     22          6           0       -1.524212   -0.758809   -1.058934
     23          6           0       -2.187044    0.419560   -0.703056
     24          6           0       -3.445031    0.314577   -0.111672
     25          6           0       -4.059841   -0.911950    0.135173
     26          6           0       -3.378633   -2.077254   -0.228929
     27          1           0       -1.592890   -2.915098   -1.103833
     28          1           0       -0.542904   -0.699498   -1.521062
     29          1           0       -1.752900    1.397279   -0.873359
     30          1           0       -5.039099   -0.939123    0.597485
     31          1           0       -3.839823   -3.043522   -0.045420
     32          7           0       -4.156469    1.555147    0.269434
     33          8           0       -5.263877    1.435682    0.789060
     34          8           0       -3.593214    2.623481    0.041302
 ---------------------------------------------------------------------

 SCF Done:  E(RHF) =  -669.534704438     A.U. after   15 cycles
 E2 =    -0.2092075537D+01 EUMP2 =    -0.67162677997495D+03

 The electronic state is 1-A.
 Alpha  occ. eigenvalues --  -20.60745 -20.60740 -15.85798 -11.31159 -11.27714
 Alpha  occ. eigenvalues --  -11.27706 -11.27434 -11.26738 -11.26685 -11.22188
 Alpha  occ. eigenvalues --  -11.21981 -11.21966 -11.21829 -11.21803 -11.21353
 Alpha  occ. eigenvalues --   -1.59821  -1.39374  -1.19326  -1.08942  -1.08716
 Alpha  occ. eigenvalues --   -1.04737  -1.04036  -0.96512  -0.95552  -0.87547
 Alpha  occ. eigenvalues --   -0.86114  -0.82391  -0.80120  -0.78750  -0.77438
 Alpha  occ. eigenvalues --   -0.72016  -0.71144  -0.70418  -0.65570  -0.64974
 Alpha  occ. eigenvalues --   -0.64748  -0.62106  -0.61425  -0.59871  -0.58112
 Alpha  occ. eigenvalues --   -0.55833  -0.55203  -0.53378  -0.53136  -0.52898
 Alpha  occ. eigenvalues --   -0.52595  -0.50436  -0.48784  -0.48772  -0.48401
 Alpha  occ. eigenvalues --   -0.47134  -0.46290  -0.46200  -0.44782  -0.44289
 Alpha  occ. eigenvalues --   -0.37266  -0.36287
 Alpha virt. eigenvalues --    0.05071   0.11283   0.16496   0.20645   0.22530
 Alpha virt. eigenvalues --    0.23917   0.25942   0.26290   0.27168   0.27897
 Alpha virt. eigenvalues --    0.29016   0.30551   0.31280   0.31419   0.31745

 Mulliken charges:
               1
     1  C   -0.298894
     2  C   -0.299781
     3  C   -0.480075
     4  H    0.147739
     5  H    0.147237
     6  H    0.155817
     7  H    0.153112
     8  H    0.145522
     9  H    0.158986
    10  H    0.163058
    11  C   -0.298514
    12  C   -0.300109
    13  C   -0.476042
    14  H    0.151691
    15  H    0.150555
    16  H    0.152525
    17  H    0.151315
    18  H    0.155474
    19  H    0.156419
    20  H    0.161374
    21  C   -0.170169
    22  C   -0.215833
    23  C   -0.174038
    24  C    0.159031
    25  C   -0.171174
    26  C   -0.218794
    27  H    0.226191
    28  H    0.226672
    29  H    0.275092
    30  H    0.275395
    31  H    0.223283
    32  N    0.488086
    33  O   -0.460487
    34  O   -0.460663
 Sum of Mulliken charges =  -0.00000

 Dipole moment (field-independent basis, Debye):
    X=              2.6017    Y=             -4.3687    Z=             -1.2857  Tot=              5.2447
 Quadrupole moment (field-independent basis, Debye-Ang):
   XX=           -109.8898   YY=            -96.0243   ZZ=            -94.4139
   XY=             17.8389   XZ=              2.7011   YZ=             -0.7360

 Normal termination of Gaussian 16 at Thu May  6 20:33:28 2021.
