 Gaussian 16, Revision A.03,
 Gaussian 16:  EM64L-G16RevA.03 25-Dec-2016

 -------------
 #p 6-31g* mp2
 -------------

 ------------------------------------------------------
 Input file generated by CHIRIPA (05-May-2021 14:55:20)
 ------------------------------------------------------
 Symbolic Z-matrix:
 Charge =  0 Multiplicity = 1

                         Standard orientation:
 ---------------------------------------------------------------------
 Center     Atomic      Atomic             Coordinates (Angstroms)
 Number     Number       Type             X           Y           Z
 ---------------------------------------------------------------------
      1          6           0       -2.793036   -2.227997   -0.294745
      2          6           0       -1.932887   -1.130868   -0.408642
      3          6           0       -2.424698    0.172342   -0.289004
      4          6           0       -3.788264    0.342627   -0.054526
      5          6           0       -4.670582   -0.730130    0.063793
      6          6           0       -4.156735   -2.024485   -0.059307
      7          1           0       -2.402427   -3.236923   -0.389027
      8          1           0       -0.873370   -1.285915   -0.591478
      9          1           0       -1.781149    1.039650   -0.372908
     10          1           0       -5.722005   -0.543918    0.246145
     11          1           0       -4.827081   -2.874648    0.029595
     12          7           0       -4.320587    1.717590    0.073961
     13          8           0       -5.525906    1.840887    0.280459
     14          8           0       -3.522423    2.645954   -0.034261
     15          6           0        4.348121   -0.804675    0.053433
     16          6           0        2.883344   -0.670812    0.471156
     17          6           0        2.119192   -1.991928    0.378837
     18          1           0        4.395912   -1.186415   -0.975612
     19          1           0        4.836086   -1.556747    0.688787
     20          1           0        2.398639    0.081783   -0.163885
     21          1           0        2.839031   -0.289165    1.499260
     22          1           0        2.576560   -2.747531    1.025737
     23          1           0        2.133666   -2.374475   -0.646858
     24          1           0        1.074253   -1.873338    0.681982
     25          6           0        5.125238    0.507674    0.140365
     26          6           0        6.590016    0.373811   -0.277358
     27          6           0        7.354166    1.694927   -0.185038
     28          1           0        4.637273    1.259746   -0.494989
     29          1           0        5.077446    0.889413    1.169411
     30          1           0        6.634328   -0.007836   -1.305462
     31          1           0        7.074720   -0.378785    0.357683
     32          1           0        7.339694    2.077474    0.840656
     33          1           0        6.896799    2.450530   -0.831939
     34          1           0        8.399106    1.576336   -0.488184
 ---------------------------------------------------------------------

 SCF Done:  E(RHF) =  -669.535592427     A.U. after   15 cycles
 E2 =    -0.2090806000D+01 EUMP2 =    -0.67162639842683D+03

 The electronic state is 1-A.
 Alpha  occ. eigenvalues --  -20.60739 -20.60734 -15.85792 -11.31154 -11.27729
 Alpha  occ. eigenvalues --  -11.27718 -11.27462 -11.26738 -11.26688 -11.22362
 Alpha  occ. eigenvalues --  -11.22084 -11.21948 -11.21922 -11.21772 -11.21306
 Alpha  occ. eigenvalues --   -1.59815  -1.39369  -1.19326  -1.08956  -1.08721
 Alpha  occ. eigenvalues --   -1.04729  -1.04097  -0.96561  -0.95556  -0.87585
 Alpha  occ. eigenvalues --   -0.86124  -0.82388  -0.80166  -0.78725  -0.77439
 Alpha  occ. eigenvalues --   -0.72011  -0.71138  -0.70433  -0.65586  -0.64976
 Alpha  occ. eigenvalues --   -0.64762  -0.62127  -0.61478  -0.59942  -0.58149
 Alpha  occ. eigenvalues --   -0.55839  -0.55225  -0.53394  -0.53064  -0.53013
 Alpha  occ. eigenvalues --   -0.52637  -0.50486  -0.48770  -0.48766  -0.48471
 Alpha  occ. eigenvalues --   -0.47186  -0.46277  -0.46176  -0.44775  -0.44336
 Alpha  occ. eigenvalues --   -0.37306  -0.36329
 Alpha virt. eigenvalues --    0.05097   0.11242   0.16559   0.20148   0.22605
 Alpha virt. eigenvalues --    0.23765   0.26054   0.26526   0.26951   0.28261
 Alpha virt. eigenvalues --    0.28779   0.30796   0.30902   0.31449   0.31697

 Mulliken charges:
               1
     1  C   -0.172301
     2  C   -0.224889
     3  C   -0.172199
     4  C    0.158679
     5  C   -0.171021
     6  C   -0.218516
     7  H    0.226065
     8  H    0.232628
     9  H    0.275619
    10  H    0.275502
    11  H    0.223285
    12  N    0.488084
    13  O   -0.460576
    14  O   -0.460496
    15  C   -0.298714
    16  C   -0.299980
    17  C   -0.482923
    18  H    0.149911
    19  H    0.150980
    20  H    0.149955
    21  H    0.156249
    22  H    0.160747
    23  H    0.153931
    24  H    0.155575
    25  C   -0.299002
    26  C   -0.300094
    27  C   -0.476084
    28  H    0.150637
    29  H    0.151223
    30  H    0.152101
    31  H    0.152273
    32  H    0.156044
    33  H    0.156116
    34  H    0.161190
 Sum of Mulliken charges =  -0.00000

 Dipole moment (field-independent basis, Debye):
    X=              2.0633    Y=             -4.8389    Z=             -0.4221  Tot=              5.2773
 Quadrupole moment (field-independent basis, Debye-Ang):
   XX=           -104.4475   YY=            -98.6618   ZZ=            -94.5214
   XY=             20.5338   XZ=              1.2195   YZ=             -0.4501

 Normal termination of Gaussian 16 at Wed May  5 18:56:14 2021.
