 Gaussian 16, Revision A.03,
 Gaussian 16:  EM64L-G16RevA.03 25-Dec-2016

 -------------
 #p 6-31g* mp2
 -------------

 ------------------------------------------------------
 Input file generated by CHIRIPA (05-May-2021 14:55:24)
 ------------------------------------------------------
 Symbolic Z-matrix:
 Charge =  0 Multiplicity = 1

                         Standard orientation:
 ---------------------------------------------------------------------
 Center     Atomic      Atomic             Coordinates (Angstroms)
 Number     Number       Type             X           Y           Z
 ---------------------------------------------------------------------
      1          6           0       -0.099564   -2.278439    1.201507
      2          6           0       -0.164021   -2.255750   -0.195580
      3          6           0       -1.089902   -1.438165   -0.850444
      4          6           0       -1.939986   -0.652606   -0.073563
      5          6           0       -1.900123   -0.653229    1.319886
      6          6           0       -0.966292   -1.478516    1.953455
      7          1           0        0.622770   -2.916550    1.701950
      8          1           0        0.507846   -2.875924   -0.782114
      9          1           0       -1.161295   -1.401204   -1.930701
     10          1           0       -2.582991   -0.023875    1.877580
     11          1           0       -0.918486   -1.494102    3.038589
     12          7           0       -2.924383    0.217011   -0.755567
     13          8           0       -3.662234    0.899690   -0.048346
     14          8           0       -2.939462    0.199472   -1.984429
     15          6           0        2.990638    0.750642   -0.038424
     16          6           0        3.128788   -0.634782   -0.670484
     17          6           0        4.565247   -1.157727   -0.640348
     18          1           0        3.649669    1.454341   -0.565140
     19          1           0        3.344878    0.708825    1.000883
     20          1           0        2.773101   -0.590686   -1.707865
     21          1           0        2.469207   -1.335223   -0.142326
     22          1           0        4.927246   -1.230321    0.390326
     23          1           0        5.232867   -0.481554   -1.184109
     24          1           0        4.641145   -2.149375   -1.097221
     25          6           0        1.560392    1.286939   -0.061004
     26          6           0        1.422241    2.672363    0.571056
     27          6           0       -0.014217    3.195307    0.540921
     28          1           0        1.206152    1.328756   -1.100312
     29          1           0        0.901360    0.583240    0.465712
     30          1           0        2.081823    3.372804    0.042897
     31          1           0        1.777929    2.628267    1.608437
     32          1           0       -0.681837    2.519135    1.084681
     33          1           0       -0.376216    3.267902   -0.489754
     34          1           0       -0.090116    4.186956    0.997793
 ---------------------------------------------------------------------

 SCF Done:  E(RHF) =  -669.533728518     A.U. after   15 cycles
 E2 =    -0.2096958176D+01 EUMP2 =    -0.67163068669304D+03

 The electronic state is 1-A.
 Alpha  occ. eigenvalues --  -20.60835 -20.60828 -15.85882 -11.31297 -11.27875
 Alpha  occ. eigenvalues --  -11.27814 -11.27604 -11.26929 -11.26855 -11.21988
 Alpha  occ. eigenvalues --  -11.21598 -11.21542 -11.21518 -11.21283 -11.20833
 Alpha  occ. eigenvalues --   -1.59901  -1.39455  -1.19491  -1.08883  -1.08559
 Alpha  occ. eigenvalues --   -1.04892  -1.03679  -0.96103  -0.95692  -0.87127
 Alpha  occ. eigenvalues --   -0.86281  -0.82518  -0.79785  -0.78382  -0.77552
 Alpha  occ. eigenvalues --   -0.72103  -0.71216  -0.70582  -0.65283  -0.65114
 Alpha  occ. eigenvalues --   -0.64873  -0.62242  -0.61078  -0.59517  -0.57729
 Alpha  occ. eigenvalues --   -0.55423  -0.55365  -0.53470  -0.52985  -0.52754
 Alpha  occ. eigenvalues --   -0.52467  -0.50051  -0.48868  -0.48854  -0.48103
 Alpha  occ. eigenvalues --   -0.46861  -0.45867  -0.45588  -0.44837  -0.43901
 Alpha  occ. eigenvalues --   -0.37406  -0.36418
 Alpha virt. eigenvalues --    0.04937   0.10997   0.16397   0.20811   0.22955
 Alpha virt. eigenvalues --    0.23843   0.26343   0.26772   0.27597   0.28096
 Alpha virt. eigenvalues --    0.28162   0.30397   0.31276   0.31766   0.32093

 Mulliken charges:
               1
     1  C   -0.173119
     2  C   -0.214005
     3  C   -0.170765
     4  C    0.162436
     5  C   -0.174161
     6  C   -0.218378
     7  H    0.226445
     8  H    0.226187
     9  H    0.275856
    10  H    0.276303
    11  H    0.224342
    12  N    0.488571
    13  O   -0.459864
    14  O   -0.460186
    15  C   -0.296655
    16  C   -0.303066
    17  C   -0.475155
    18  H    0.150787
    19  H    0.146869
    20  H    0.149904
    21  H    0.148478
    22  H    0.154132
    23  H    0.158192
    24  H    0.156489
    25  C   -0.306614
    26  C   -0.299246
    27  C   -0.477569
    28  H    0.149295
    29  H    0.159428
    30  H    0.151715
    31  H    0.148306
    32  H    0.153273
    33  H    0.160893
    34  H    0.160881
 Sum of Mulliken charges =  -0.00000

 Dipole moment (field-independent basis, Debye):
    X=              3.2992    Y=             -3.0724    Z=              2.3727  Tot=              5.0945
 Quadrupole moment (field-independent basis, Debye-Ang):
   XX=           -109.7372   YY=            -90.8910   ZZ=            -90.4887
   XY=              3.7101   XZ=             -6.7570   YZ=             -0.3225

 Normal termination of Gaussian 16 at Thu May  6 07:57:23 2021.
