 Gaussian 16, Revision A.03,
 Gaussian 16:  EM64L-G16RevA.03 25-Dec-2016

 -------------
 #p 6-31g* mp2
 -------------

 ------------------------------------------------------
 Input file generated by CHIRIPA (05-May-2021 14:53:18)
 ------------------------------------------------------
 Symbolic Z-matrix:
 Charge =  0 Multiplicity = 1

                         Standard orientation:
 ---------------------------------------------------------------------
 Center     Atomic      Atomic             Coordinates (Angstroms)
 Number     Number       Type             X           Y           Z
 ---------------------------------------------------------------------
      1          6           0       -3.169499    1.031981    0.180062
      2          6           0       -3.323935    2.160519   -0.840005
      3          6           0       -2.444969    3.370214   -0.520866
      4          1           0       -3.417493    1.413626    1.179957
      5          1           0       -2.116062    0.721584    0.216382
      6          1           0       -4.377012    2.467754   -0.875394
      7          1           0       -3.075730    1.776092   -1.837616
      8          1           0       -1.388060    3.085079   -0.505325
      9          1           0       -2.696735    3.780670    0.462364
     10          1           0       -2.571073    4.164977   -1.262694
     11          6           0       -4.041868   -0.184320   -0.125408
     12          6           0       -3.887432   -1.312858    0.894659
     13          6           0       -4.766398   -2.522553    0.575519
     14          1           0       -5.095305    0.126078   -0.161729
     15          1           0       -3.793875   -0.565965   -1.125304
     16          1           0       -4.135637   -0.928431    1.892269
     17          1           0       -2.834356   -1.620092    0.930047
     18          1           0       -4.514632   -2.933009   -0.407711
     19          1           0       -5.823307   -2.237418    0.559978
     20          1           0       -4.640295   -3.317316    1.317347
     21          6           0        4.980052    0.786717    0.639947
     22          6           0        4.968403   -0.163542   -0.386402
     23          6           0        3.775686   -0.789261   -0.761168
     24          6           0        2.607818   -0.439186   -0.085281
     25          6           0        2.587060    0.503682    0.941295
     26          6           0        3.791441    1.116715    1.299358
     27          1           0        5.911115    1.267862    0.924587
     28          1           0        5.889980   -0.421792   -0.900256
     29          1           0        3.738108   -1.528360   -1.552204
     30          1           0        1.652425    0.740370    1.435112
     31          1           0        3.797495    1.854338    2.096804
     32          7           0        1.338969   -1.094891   -0.473187
     33          8           0        0.323552   -0.768956    0.137822
     34          8           0        1.383888   -1.922351   -1.380893
 ---------------------------------------------------------------------

 SCF Done:  E(RHF) =  -669.536529018     A.U. after   15 cycles
 E2 =    -0.2091252154D+01 EUMP2 =    -0.67162778117204D+03

 The electronic state is 1-A.
 Alpha  occ. eigenvalues --  -20.61057 -20.61048 -15.86084 -11.31353 -11.27909
 Alpha  occ. eigenvalues --  -11.27906 -11.27639 -11.26907 -11.26896 -11.20724
 Alpha  occ. eigenvalues --  -11.20474 -11.20312 -11.20192 -11.20102 -11.20014
 Alpha  occ. eigenvalues --   -1.60111  -1.39669  -1.19517  -1.08930  -1.07298
 Alpha  occ. eigenvalues --   -1.04905  -1.02525  -0.95781  -0.94993  -0.86308
 Alpha  occ. eigenvalues --   -0.86024  -0.82618  -0.78584  -0.77683  -0.77081
 Alpha  occ. eigenvalues --   -0.72310  -0.71420  -0.70625  -0.65176  -0.64907
 Alpha  occ. eigenvalues --   -0.63895  -0.62252  -0.59916  -0.58381  -0.56604
 Alpha  occ. eigenvalues --   -0.55412  -0.54277  -0.53240  -0.52996  -0.51741
 Alpha  occ. eigenvalues --   -0.51439  -0.49076  -0.49065  -0.48935  -0.46920
 Alpha  occ. eigenvalues --   -0.45617  -0.45095  -0.44667  -0.44402  -0.42736
 Alpha  occ. eigenvalues --   -0.37493  -0.36504
 Alpha virt. eigenvalues --    0.04827   0.11150   0.16315   0.21215   0.23960
 Alpha virt. eigenvalues --    0.25204   0.27037   0.27450   0.28107   0.28776
 Alpha virt. eigenvalues --    0.29103   0.30928   0.32076   0.32508   0.32775

 Mulliken charges:
               1
     1  C   -0.310092
     2  C   -0.298257
     3  C   -0.474704
     4  H    0.141941
     5  H    0.174850
     6  H    0.148146
     7  H    0.152906
     8  H    0.153088
     9  H    0.151794
    10  H    0.156855
    11  C   -0.295526
    12  C   -0.304812
    13  C   -0.475169
    14  H    0.142914
    15  H    0.152395
    16  H    0.145210
    17  H    0.170091
    18  H    0.156660
    19  H    0.150347
    20  H    0.157046
    21  C   -0.170437
    22  C   -0.218582
    23  C   -0.170562
    24  C    0.157416
    25  C   -0.170778
    26  C   -0.218497
    27  H    0.226280
    28  H    0.224026
    29  H    0.275920
    30  H    0.276097
    31  H    0.224287
    32  N    0.493926
    33  O   -0.466478
    34  O   -0.458302
 Sum of Mulliken charges =  -0.00000

 Dipole moment (field-independent basis, Debye):
    X=              4.8494    Y=              2.1606    Z=              1.3245  Tot=              5.4716
 Quadrupole moment (field-independent basis, Debye-Ang):
   XX=            -71.7496   YY=            -97.3474   ZZ=            -92.8094
   XY=              2.1545   XZ=              1.0615   YZ=              1.7118

 Normal termination of Gaussian 16 at Thu May  6 09:11:26 2021.
