 Gaussian 16, Revision A.03,
 Gaussian 16:  EM64L-G16RevA.03 25-Dec-2016

 -------------
 #p 6-31g* mp2
 -------------

 ------------------------------------------------------
 Input file generated by CHIRIPA (05-May-2021 14:57:21)
 ------------------------------------------------------
 Symbolic Z-matrix:
 Charge =  0 Multiplicity = 1

                         Standard orientation:
 ---------------------------------------------------------------------
 Center     Atomic      Atomic             Coordinates (Angstroms)
 Number     Number       Type             X           Y           Z
 ---------------------------------------------------------------------
      1          6           0       -6.725797    0.147546   -0.611768
      2          6           0       -6.209835   -1.135446   -0.401449
      3          6           0       -4.872513   -1.311448   -0.033834
      4          6           0       -4.075865   -0.177254    0.115319
      5          6           0       -4.560608    1.113999   -0.087116
      6          6           0       -5.900991    1.266202   -0.454207
      7          1           0       -7.765850    0.275025   -0.897137
      8          1           0       -6.848066   -2.006027   -0.523088
      9          1           0       -4.447199   -2.293248    0.135262
     10          1           0       -3.899900    1.962687    0.041770
     11          1           0       -6.298982    2.263791   -0.616886
     12          7           0       -2.658482   -0.350981    0.504219
     13          8           0       -1.977308    0.664412    0.629182
     14          8           0       -2.255548   -1.499253    0.676712
     15          6           0        2.591009    1.974087    0.232502
     16          6           0        2.212405    0.632404    0.346797
     17          6           0        3.156101   -0.387336    0.191502
     18          6           0        4.475601   -0.027858   -0.078653
     19          6           0        4.883796    1.299673   -0.198346
     20          6           0        3.923148    2.302861   -0.039226
     21          1           0        1.851339    2.759817    0.354624
     22          1           0        1.178565    0.374122    0.557772
     23          1           0        2.890334   -1.434160    0.274851
     24          1           0        5.921924    1.526039   -0.409217
     25          1           0        4.220043    3.343977   -0.128528
     26          7           0        5.483623   -1.098650   -0.245081
     27          8           0        6.639734   -0.755690   -0.482615
     28          8           0        5.098511   -2.260619   -0.134843
 ---------------------------------------------------------------------

 SCF Done:  E(RHF) =  -868.340948394     A.U. after   16 cycles
 E2 =    -0.2598301560D+01 EUMP2 =    -0.87093924995416D+03

 The electronic state is 1-A.
 Alpha  occ. eigenvalues --  -20.61844 -20.61834 -20.59925 -20.59912 -15.86836
 Alpha  occ. eigenvalues --  -15.84962 -11.31898 -11.30138 -11.28443 -11.28407
 Alpha  occ. eigenvalues --  -11.28108 -11.27377 -11.27353 -11.26723 -11.26556
 Alpha  occ. eigenvalues --  -11.26314 -11.25734 -11.25361  -1.60885  -1.59000
 Alpha  occ. eigenvalues --   -1.40446  -1.38559  -1.20038  -1.18264  -1.09491
 Alpha  occ. eigenvalues --   -1.07690  -1.05394  -1.03610  -0.96377  -0.94567
 Alpha  occ. eigenvalues --   -0.86806  -0.85009  -0.83222  -0.81388  -0.78303
 Alpha  occ. eigenvalues --   -0.76464  -0.73072  -0.72170  -0.71187  -0.71141
 Alpha  occ. eigenvalues --   -0.70321  -0.69369  -0.65695  -0.65394  -0.63898
 Alpha  occ. eigenvalues --   -0.63554  -0.62745  -0.60933  -0.55905  -0.54114
 Alpha  occ. eigenvalues --   -0.53738  -0.53481  -0.51991  -0.51667  -0.49833
 Alpha  occ. eigenvalues --   -0.49799  -0.47953  -0.47920  -0.45912  -0.44007
 Alpha  occ. eigenvalues --   -0.37997  -0.36981  -0.36249  -0.35219
 Alpha virt. eigenvalues --    0.04212   0.06016   0.10679   0.12431   0.15772
 Alpha virt. eigenvalues --    0.17575   0.20845   0.22709   0.26779   0.27697
 Alpha virt. eigenvalues --    0.28772   0.29416   0.30446   0.31901   0.32363

 Mulliken charges:
               1
     1  C   -0.169598
     2  C   -0.218518
     3  C   -0.170031
     4  C    0.157835
     5  C   -0.170324
     6  C   -0.218461
     7  H    0.228091
     8  H    0.226079
     9  H    0.277251
    10  H    0.274010
    11  H    0.225044
    12  N    0.490059
    13  O   -0.469544
    14  O   -0.457410
    15  C   -0.173333
    16  C   -0.228774
    17  C   -0.173824
    18  C    0.158126
    19  C   -0.173680
    20  C   -0.218950
    21  H    0.225830
    22  H    0.250769
    23  H    0.276693
    24  H    0.271527
    25  H    0.218625
    26  N    0.488047
    27  O   -0.464120
    28  O   -0.461418
 Sum of Mulliken charges =  -0.00000

 Dipole moment (field-independent basis, Debye):
    X=             -9.2387    Y=              4.2697    Z=             -0.7607  Tot=             10.2060
 Quadrupole moment (field-independent basis, Debye-Ang):
   XX=            -94.5541   YY=            -98.3836   ZZ=           -106.8609
   XY=             18.8744   XZ=              7.7025   YZ=             -0.7804

 Normal termination of Gaussian 16 at Wed May  5 19:15:11 2021.
