 Gaussian 16, Revision A.03,
 Gaussian 16:  EM64L-G16RevA.03 25-Dec-2016

 -------------
 #p 6-31g* mp2
 -------------

 ------------------------------------------------------
 Input file generated by CHIRIPA (05-May-2021 14:57:25)
 ------------------------------------------------------
 Symbolic Z-matrix:
 Charge =  0 Multiplicity = 1

                         Standard orientation:
 ---------------------------------------------------------------------
 Center     Atomic      Atomic             Coordinates (Angstroms)
 Number     Number       Type             X           Y           Z
 ---------------------------------------------------------------------
      1          6           0        0.499625    0.373057   -0.819749
      2          6           0        1.010761   -0.928078   -0.771686
      3          6           0        2.349518   -1.153100   -0.437558
      4          6           0        3.152506   -0.048896   -0.156072
      5          6           0        2.672676    1.259346   -0.195512
      6          6           0        1.330748    1.460698   -0.532016
      7          1           0       -0.541586    0.538666   -1.080231
      8          1           0        0.367620   -1.774656   -0.994664
      9          1           0        2.771190   -2.149904   -0.392896
     10          1           0        3.338235    2.083220    0.031821
     11          1           0        0.936514    2.472276   -0.568561
     12          7           0        4.571466   -0.274588    0.198912
     13          8           0        5.258262    0.715134    0.442630
     14          8           0        4.969984   -1.436934    0.226709
     15          6           0       -2.570378    2.509529    0.288599
     16          6           0       -3.236698    1.927462   -0.794792
     17          6           0       -3.435313    0.544551   -0.846338
     18          6           0       -2.952313   -0.229782    0.207422
     19          6           0       -2.284626    0.320496    1.300436
     20          6           0       -2.097303    1.705606    1.330918
     21          1           0       -2.420476    3.584662    0.320459
     22          1           0       -3.605173    2.549336   -1.605683
     23          1           0       -3.947788    0.067772   -1.673059
     24          1           0       -1.928678   -0.325377    2.093889
     25          1           0       -1.579477    2.154904    2.173552
     26          7           0       -3.156600   -1.694971    0.164002
     27          8           0       -2.721481   -2.355243    1.104933
     28          8           0       -3.747971   -2.155372   -0.810138
 ---------------------------------------------------------------------

 SCF Done:  E(RHF) =  -868.336517245     A.U. after   16 cycles
 E2 =    -0.2604494277D+01 EUMP2 =    -0.87094101152162D+03

 The electronic state is 1-A.
 Alpha  occ. eigenvalues --  -20.61925 -20.61912 -20.60722 -20.60709 -15.86977
 Alpha  occ. eigenvalues --  -15.85775 -11.32468 -11.31100 -11.29081 -11.28961
 Alpha  occ. eigenvalues --  -11.28807 -11.28139 -11.28005 -11.27754 -11.27665
 Alpha  occ. eigenvalues --  -11.27287 -11.26719 -11.26577  -1.61007  -1.59797
 Alpha  occ. eigenvalues --   -1.40546  -1.39352  -1.20730  -1.19289  -1.10056
 Alpha  occ. eigenvalues --   -1.08676  -1.06074  -1.04695  -0.96852  -0.95516
 Alpha  occ. eigenvalues --   -0.87442  -0.86087  -0.83640  -0.82359  -0.78676
 Alpha  occ. eigenvalues --   -0.77415  -0.73169  -0.72403  -0.71990  -0.71724
 Alpha  occ. eigenvalues --   -0.71125  -0.70417  -0.66294  -0.66003  -0.64931
 Alpha  occ. eigenvalues --   -0.64710  -0.63361  -0.62047  -0.56534  -0.56026
 Alpha  occ. eigenvalues --   -0.54094  -0.53659  -0.52863  -0.52767  -0.49950
 Alpha  occ. eigenvalues --   -0.49925  -0.48750  -0.48743  -0.45910  -0.44767
 Alpha  occ. eigenvalues --   -0.38771  -0.38233  -0.36685  -0.36308
 Alpha virt. eigenvalues --    0.03764   0.05158   0.09709   0.11524   0.15220
 Alpha virt. eigenvalues --    0.16646   0.20212   0.21697   0.26236   0.26684
 Alpha virt. eigenvalues --    0.27686   0.28620   0.30032   0.31346   0.31580

 Mulliken charges:
               1
     1  C   -0.171329
     2  C   -0.226374
     3  C   -0.169621
     4  C    0.156565
     5  C   -0.171890
     6  C   -0.224055
     7  H    0.234569
     8  H    0.229889
     9  H    0.277685
    10  H    0.273255
    11  H    0.215168
    12  N    0.488126
    13  O   -0.462407
    14  O   -0.459395
    15  C   -0.178829
    16  C   -0.220285
    17  C   -0.181320
    18  C    0.150856
    19  C   -0.167674
    20  C   -0.215658
    21  H    0.229785
    22  H    0.229022
    23  H    0.279833
    24  H    0.281597
    25  H    0.230210
    26  N    0.486291
    27  O   -0.456015
    28  O   -0.458000
 Sum of Mulliken charges =  -0.00000

 Dipole moment (field-independent basis, Debye):
    X=             -4.6184    Y=              5.8610    Z=             -0.9400  Tot=              7.5210
 Quadrupole moment (field-independent basis, Debye-Ang):
   XX=           -140.4405   YY=           -102.7127   ZZ=           -101.2007
   XY=            -12.6857   XZ=             -1.2284   YZ=              1.2274

 Normal termination of Gaussian 16 at Fri May  7 11:09:28 2021.
