 Gaussian 16, Revision A.03,
 Gaussian 16:  EM64L-G16RevA.03 25-Dec-2016

 -------------
 #p 6-31g* mp2
 -------------

 ------------------------------------------------------
 Input file generated by CHIRIPA (05-May-2021 14:53:17)
 ------------------------------------------------------
 Symbolic Z-matrix:
 Charge =  0 Multiplicity = 1

                         Standard orientation:
 ---------------------------------------------------------------------
 Center     Atomic      Atomic             Coordinates (Angstroms)
 Number     Number       Type             X           Y           Z
 ---------------------------------------------------------------------
      1          6           0        2.919151    0.840171   -0.443145
      2          6           0        3.044422    2.118508    0.386402
      3          6           0        3.156865    3.375106   -0.477375
      4          1           0        3.790738    0.754153   -1.106381
      5          1           0        2.037493    0.918793   -1.094215
      6          1           0        3.924793    2.036924    1.036715
      7          1           0        2.172530    2.201393    1.047878
      8          1           0        2.274116    3.484042   -1.115723
      9          1           0        4.036335    3.318639   -1.126949
     10          1           0        3.245448    4.277252    0.135933
     11          6           0        2.805856   -0.424530    0.406223
     12          6           0        2.680585   -1.702867   -0.423323
     13          6           0        2.568142   -2.959465    0.440454
     14          1           0        3.687514   -0.503152    1.057293
     15          1           0        1.934269   -0.338512    1.069459
     16          1           0        3.552477   -1.785752   -1.084799
     17          1           0        1.800214   -1.621283   -1.073637
     18          1           0        1.688672   -2.902998    1.090027
     19          1           0        3.450891   -3.068401    1.078801
     20          1           0        2.479559   -3.861611   -0.172854
     21          6           0       -3.240439    2.136082    0.288021
     22          6           0       -3.224068    1.524555   -0.969870
     23          6           0       -2.670305    0.251281   -1.133179
     24          6           0       -2.139257   -0.384564   -0.012028
     25          6           0       -2.140694    0.198463    1.254213
     26          6           0       -2.699653    1.472255    1.394097
     27          1           0       -3.672634    3.125393    0.405784
     28          1           0       -3.643333    2.037729   -1.830633
     29          1           0       -2.644505   -0.245306   -2.095548
     30          1           0       -1.715196   -0.337986    2.093612
     31          1           0       -2.710992    1.944747    2.372191
     32          7           0       -1.550263   -1.732796   -0.172516
     33          8           0       -1.088787   -2.271962    0.830966
     34          8           0       -1.561237   -2.224846   -1.298752
 ---------------------------------------------------------------------

 SCF Done:  E(RHF) =  -669.536469867     A.U. after   15 cycles
 E2 =    -0.2092239863D+01 EUMP2 =    -0.67162870972962D+03

 The electronic state is 1-A.
 Alpha  occ. eigenvalues --  -20.61038 -20.61032 -15.86058 -11.31359 -11.27915
 Alpha  occ. eigenvalues --  -11.27909 -11.27641 -11.26913 -11.26903 -11.21435
 Alpha  occ. eigenvalues --  -11.21021 -11.21011 -11.20750 -11.20588 -11.19630
 Alpha  occ. eigenvalues --   -1.60087  -1.39645  -1.19519  -1.08927  -1.07901
 Alpha  occ. eigenvalues --   -1.04911  -1.02888  -0.95775  -0.95329  -0.86357
 Alpha  occ. eigenvalues --   -0.86308  -0.82607  -0.79023  -0.77686  -0.77623
 Alpha  occ. eigenvalues --   -0.72278  -0.71409  -0.70624  -0.65175  -0.64911
 Alpha  occ. eigenvalues --   -0.64535  -0.62257  -0.60270  -0.58795  -0.56922
 Alpha  occ. eigenvalues --   -0.55413  -0.54617  -0.53237  -0.53000  -0.52018
 Alpha  occ. eigenvalues --   -0.51762  -0.49374  -0.49034  -0.48935  -0.47303
 Alpha  occ. eigenvalues --   -0.46097  -0.45334  -0.45167  -0.44750  -0.43164
 Alpha  occ. eigenvalues --   -0.37493  -0.36510
 Alpha virt. eigenvalues --    0.04826   0.11122   0.16297   0.21233   0.23177
 Alpha virt. eigenvalues --    0.24926   0.26803   0.27254   0.27866   0.28335
 Alpha virt. eigenvalues --    0.28798   0.30830   0.31963   0.32073   0.32440

 Mulliken charges:
               1
     1  C   -0.297258
     2  C   -0.298296
     3  C   -0.475084
     4  H    0.149531
     5  H    0.146993
     6  H    0.151992
     7  H    0.148099
     8  H    0.152999
     9  H    0.155927
    10  H    0.157837
    11  C   -0.298807
    12  C   -0.300092
    13  C   -0.481030
    14  H    0.147515
    15  H    0.147613
    16  H    0.147137
    17  H    0.156368
    18  H    0.176554
    19  H    0.145182
    20  H    0.161114
    21  C   -0.170425
    22  C   -0.218538
    23  C   -0.170899
    24  C    0.158029
    25  C   -0.171293
    26  C   -0.218492
    27  H    0.226398
    28  H    0.224171
    29  H    0.276072
    30  H    0.275874
    31  H    0.224234
    32  N    0.489335
    33  O   -0.460146
    34  O   -0.458613
 Sum of Mulliken charges =  -0.00000

 Dipole moment (field-independent basis, Debye):
    X=             -2.3256    Y=              4.6333    Z=              0.5652  Tot=              5.2149
 Quadrupole moment (field-independent basis, Debye-Ang):
   XX=            -85.9146   YY=           -100.0593   ZZ=            -90.2645
   XY=             -9.8423   XZ=              0.0427   YZ=              0.0975

 Normal termination of Gaussian 16 at Thu May  6 17:17:37 2021.
