 Gaussian 16, Revision A.03,
 Gaussian 16:  EM64L-G16RevA.03 25-Dec-2016

 -------------
 #p 6-31g* mp2
 -------------

 ------------------------------------------------------
 Input file generated by CHIRIPA (05-May-2021 14:51:11)
 ------------------------------------------------------
 Symbolic Z-matrix:
 Charge =  0 Multiplicity = 1

                         Standard orientation:
 ---------------------------------------------------------------------
 Center     Atomic      Atomic             Coordinates (Angstroms)
 Number     Number       Type             X           Y           Z
 ---------------------------------------------------------------------
      1          6           0        2.538509   -0.539033    0.977463
      2          6           0        1.401832   -1.546436    1.153789
      3          6           0        1.323875   -2.107131    2.574119
      4          1           0        3.491068   -1.021764    1.235429
      5          1           0        2.402506    0.285327    1.691137
      6          1           0        1.539179   -2.367957    0.439048
      7          1           0        0.451890   -1.061306    0.895189
      8          1           0        1.162946   -1.301675    3.297958
      9          1           0        2.256413   -2.615750    2.839225
     10          1           0        0.504444   -2.825207    2.677850
     11          6           0        2.629335    0.030389   -0.437188
     12          6           0        3.766011    1.037792   -0.613513
     13          6           0        3.843968    1.598487   -2.033844
     14          1           0        2.765337   -0.793971   -1.150861
     15          1           0        1.676776    0.513120   -0.695154
     16          1           0        4.715954    0.552662   -0.354914
     17          1           0        3.628665    1.859313    0.101227
     18          1           0        2.911431    2.107106   -2.298950
     19          1           0        4.004898    0.793031   -2.757682
     20          1           0        4.663399    2.316563   -2.137574
     21          6           0       -2.950093   -0.311994   -0.628797
     22          6           0       -2.019311   -1.422640   -1.116747
     23          6           0       -2.766613   -2.548419   -1.832258
     24          1           0       -3.701571   -0.742632    0.047057
     25          1           0       -3.500182    0.099099   -1.486585
     26          1           0       -1.470126   -1.830575   -0.258492
     27          1           0       -1.269844   -0.989276   -1.791366
     28          1           0       -3.301110   -2.161563   -2.705903
     29          1           0       -3.502530   -3.007642   -1.164319
     30          1           0       -2.082143   -3.331657   -2.172696
     31          6           0       -2.217750    0.820638    0.088521
     32          6           0       -3.148533    1.931284    0.576471
     33          6           0       -2.401231    3.057063    1.291982
     34          1           0       -1.667661    0.409546    0.946309
     35          1           0       -1.466272    1.251275   -0.587332
     36          1           0       -3.897999    1.497920    1.251091
     37          1           0       -3.697716    2.339220   -0.281783
     38          1           0       -1.665313    3.516286    0.624044
     39          1           0       -1.866734    2.670207    2.165628
     40          1           0       -3.085701    3.840300    1.632421
 ---------------------------------------------------------------------

 SCF Done:  E(RHF) =  -470.732835534     A.U. after   11 cycles
 E2 =    -0.1584022756D+01 EUMP2 =    -0.47231685829034D+03

 The electronic state is 1-A.
 Alpha  occ. eigenvalues --  -11.21663 -11.21580 -11.21553 -11.21506 -11.21471
 Alpha  occ. eigenvalues --  -11.21388 -11.21365 -11.21306 -11.21132 -11.21071
 Alpha  occ. eigenvalues --  -11.21066 -11.21057  -1.08489  -1.08382  -1.03565
 Alpha  occ. eigenvalues --   -1.03498  -0.96013  -0.95961  -0.87030  -0.86974
 Alpha  occ. eigenvalues --   -0.79704  -0.79518  -0.78445  -0.78047  -0.65169
 Alpha  occ. eigenvalues --   -0.64976  -0.60986  -0.60883  -0.59432  -0.59279
 Alpha  occ. eigenvalues --   -0.57630  -0.57564  -0.55315  -0.55238  -0.52717
 Alpha  occ. eigenvalues --   -0.52645  -0.52442  -0.52382  -0.49957  -0.49911
 Alpha  occ. eigenvalues --   -0.48140  -0.47791  -0.46809  -0.46618  -0.46187
 Alpha  occ. eigenvalues --   -0.45721  -0.45694  -0.45056  -0.43815  -0.43746
 Alpha virt. eigenvalues --    0.20911   0.23238   0.23618   0.24217   0.24824
 Alpha virt. eigenvalues --    0.26250   0.26934   0.27759   0.28167   0.30355
 Alpha virt. eigenvalues --    0.30576   0.31491   0.31543   0.31894   0.31980

 Mulliken charges:
               1
     1  C   -0.297272
     2  C   -0.310028
     3  C   -0.475946
     4  H    0.149257
     5  H    0.149210
     6  H    0.151534
     7  H    0.163459
     8  H    0.154612
     9  H    0.155462
    10  H    0.159390
    11  C   -0.299903
    12  C   -0.299657
    13  C   -0.475580
    14  H    0.149318
    15  H    0.151261
    16  H    0.151922
    17  H    0.152014
    18  H    0.154688
    19  H    0.155115
    20  H    0.160243
    21  C   -0.298205
    22  C   -0.305072
    23  C   -0.475371
    24  H    0.149524
    25  H    0.149583
    26  H    0.158559
    27  H    0.152439
    28  H    0.154929
    29  H    0.154868
    30  H    0.160292
    31  C   -0.303071
    32  C   -0.299453
    33  C   -0.475753
    34  H    0.152351
    35  H    0.150010
    36  H    0.152319
    37  H    0.152355
    38  H    0.154965
    39  H    0.154976
    40  H    0.160655
 Sum of Mulliken charges =  -0.00000

 Dipole moment (field-independent basis, Debye):
    X=             -0.0299    Y=              0.0038    Z=             -0.0050  Tot=              0.0306
 Quadrupole moment (field-independent basis, Debye-Ang):
   XX=            -84.6082   YY=            -85.0298   ZZ=            -85.2456
   XY=             -0.8910   XZ=             -0.3582   YZ=             -0.1941

 Normal termination of Gaussian 16 at Wed May  5 23:06:52 2021.
