 Gaussian 16, Revision A.03,
 Gaussian 16:  EM64L-G16RevA.03 25-Dec-2016

 -------------
 #p 6-31g* mp2
 -------------

 ------------------------------------------------------
 Input file generated by CHIRIPA (05-May-2021 14:51:10)
 ------------------------------------------------------
 Symbolic Z-matrix:
 Charge =  0 Multiplicity = 1

                         Standard orientation:
 ---------------------------------------------------------------------
 Center     Atomic      Atomic             Coordinates (Angstroms)
 Number     Number       Type             X           Y           Z
 ---------------------------------------------------------------------
      1          6           0        4.788003   -0.358435   -0.453799
      2          6           0        6.087435    0.345641   -0.061704
      3          6           0        7.123973    0.342376   -1.185702
      4          1           0        5.012681   -1.393842   -0.744312
      5          1           0        4.367573    0.131466   -1.342973
      6          1           0        6.504568   -0.144572    0.827288
      7          1           0        5.859613    1.379435    0.228093
      8          1           0        6.731547    0.849444   -2.073106
      9          1           0        7.380166   -0.683223   -1.470506
     10          1           0        8.045004    0.850801   -0.883931
     11          6           0        3.741917   -0.363423    0.659488
     12          6           0        2.442485   -1.067499    0.267393
     13          6           0        1.405947   -1.064235    1.391391
     14          1           0        4.162347   -0.853324    1.548662
     15          1           0        3.517239    0.671983    0.950001
     16          1           0        2.670307   -2.101293   -0.022404
     17          1           0        2.025352   -0.577286   -0.621599
     18          1           0        1.149754   -0.038636    1.676195
     19          1           0        1.798373   -1.571302    2.278795
     20          1           0        0.484916   -1.572660    1.089620
     21          6           0       -3.504904    0.379512   -0.176342
     22          6           0       -2.863882    1.611945    0.462550
     23          6           0       -1.342978    1.634822    0.307238
     24          1           0       -3.075144   -0.525134    0.275175
     25          1           0       -3.243883    0.350565   -1.243312
     26          1           0       -3.127177    1.639307    1.527699
     27          1           0       -3.295357    2.513764    0.009595
     28          1           0       -1.063755    1.631962   -0.751359
     29          1           0       -0.894620    0.752537    0.775371
     30          1           0       -0.905387    2.524308    0.771121
     31          6           0       -5.025015    0.342346   -0.029348
     32          6           0       -5.666038   -0.890087   -0.668239
     33          6           0       -7.186942   -0.912963   -0.512926
     34          1           0       -5.286037    0.371294    1.037623
     35          1           0       -5.454776    1.246992   -0.480864
     36          1           0       -5.234564   -1.791906   -0.215284
     37          1           0       -5.402743   -0.917449   -1.733388
     38          1           0       -7.635301   -0.030677   -0.981059
     39          1           0       -7.466165   -0.910104    0.545670
     40          1           0       -7.624533   -1.802449   -0.976810
 ---------------------------------------------------------------------

 SCF Done:  E(RHF) =  -470.732921352     A.U. after   11 cycles
 E2 =    -0.1582583836D+01 EUMP2 =    -0.47231550518837D+03

 The electronic state is 1-A.
 Alpha  occ. eigenvalues --  -11.21592 -11.21587 -11.21580 -11.21564 -11.21389
 Alpha  occ. eigenvalues --  -11.21385 -11.21329 -11.21326 -11.21063 -11.21059
 Alpha  occ. eigenvalues --  -11.21054 -11.20969  -1.08419  -1.08402  -1.03541
 Alpha  occ. eigenvalues --   -1.03479  -0.96024  -0.95905  -0.87066  -0.86902
 Alpha  occ. eigenvalues --   -0.79640  -0.79513  -0.78234  -0.78212  -0.65081
 Alpha  occ. eigenvalues --   -0.65006  -0.61061  -0.60786  -0.59379  -0.59289
 Alpha  occ. eigenvalues --   -0.57600  -0.57547  -0.55513  -0.55027  -0.52713
 Alpha  occ. eigenvalues --   -0.52653  -0.52404  -0.52318  -0.50159  -0.49635
 Alpha  occ. eigenvalues --   -0.47921  -0.47842  -0.46742  -0.46436  -0.45795
 Alpha  occ. eigenvalues --   -0.45730  -0.45710  -0.45634  -0.43776  -0.43752
 Alpha virt. eigenvalues --    0.22025   0.22992   0.23614   0.24877   0.26411
 Alpha virt. eigenvalues --    0.26493   0.27256   0.27465   0.27725   0.29138
 Alpha virt. eigenvalues --    0.30713   0.31282   0.31572   0.31930   0.32089

 Mulliken charges:
               1
     1  C   -0.298335
     2  C   -0.299658
     3  C   -0.475698
     4  H    0.149558
     5  H    0.149648
     6  H    0.151864
     7  H    0.151996
     8  H    0.155188
     9  H    0.155135
    10  H    0.160204
    11  C   -0.298685
    12  C   -0.299866
    13  C   -0.479756
    14  H    0.149348
    15  H    0.150259
    16  H    0.151808
    17  H    0.153172
    18  H    0.159554
    19  H    0.155253
    20  H    0.159554
    21  C   -0.298341
    22  C   -0.299115
    23  C   -0.483857
    24  H    0.149439
    25  H    0.149369
    26  H    0.151778
    27  H    0.151507
    28  H    0.154139
    29  H    0.165819
    30  H    0.158792
    31  C   -0.298273
    32  C   -0.299644
    33  C   -0.475696
    34  H    0.149564
    35  H    0.149646
    36  H    0.151895
    37  H    0.151870
    38  H    0.155158
    39  H    0.155196
    40  H    0.160209
 Sum of Mulliken charges =  -0.00000

 Dipole moment (field-independent basis, Debye):
    X=              0.0206    Y=             -0.0115    Z=              0.0109  Tot=              0.0260
 Quadrupole moment (field-independent basis, Debye-Ang):
   XX=            -86.6838   YY=            -83.8590   ZZ=            -84.3928
   XY=             -0.5741   XZ=              0.8452   YZ=             -0.6969

 Normal termination of Gaussian 16 at Wed May  5 23:01:58 2021.
