 Gaussian 16, Revision A.03,
 Gaussian 16:  EM64L-G16RevA.03 25-Dec-2016

 -------------
 #p 6-31g* mp2
 -------------

 ------------------------------------------------------
 Input file generated by CHIRIPA (05-May-2021 14:57:26)
 ------------------------------------------------------
 Symbolic Z-matrix:
 Charge =  0 Multiplicity = 1

                         Standard orientation:
 ---------------------------------------------------------------------
 Center     Atomic      Atomic             Coordinates (Angstroms)
 Number     Number       Type             X           Y           Z
 ---------------------------------------------------------------------
      1          6           0       -1.144140    0.820475    0.042597
      2          6           0       -1.968537    1.187608   -1.026096
      3          6           0       -3.286972    0.727875   -1.096277
      4          6           0       -3.750422   -0.101227   -0.075937
      5          6           0       -2.953589   -0.484634    1.001721
      6          6           0       -1.638426   -0.013005    1.051316
      7          1           0       -0.121220    1.182227    0.089120
      8          1           0       -1.587352    1.834778   -1.810898
      9          1           0       -3.946840    0.996546   -1.912247
     10          1           0       -3.361853   -1.131046    1.769112
     11          1           0       -1.000458   -0.299755    1.882469
     12          7           0       -5.144458   -0.594222   -0.139338
     13          8           0       -5.528882   -1.323581    0.772194
     14          8           0       -5.826282   -0.241939   -1.099363
     15          6           0        2.382783    2.114787    0.891868
     16          6           0        2.393666    0.963971    1.686869
     17          6           0        3.021131   -0.202378    1.239132
     18          6           0        3.630675   -0.182544   -0.014403
     19          6           0        3.636792    0.948179   -0.829707
     20          6           0        3.003287    2.103239   -0.361671
     21          1           0        1.893006    3.016449    1.247565
     22          1           0        1.912578    0.970040    2.660810
     23          1           0        3.044523   -1.107300    1.834102
     24          1           0        4.124824    0.911586   -1.796094
     25          1           0        2.996402    2.995510   -0.981227
     26          7           0        4.298141   -1.411329   -0.499146
     27          8           0        4.828008   -1.368068   -1.607301
     28          8           0        4.278797   -2.394444    0.238245
 ---------------------------------------------------------------------

 SCF Done:  E(RHF) =  -868.336845311     A.U. after   16 cycles
 E2 =    -0.2601740027D+01 EUMP2 =    -0.87093858533731D+03

 The electronic state is 1-A.
 Alpha  occ. eigenvalues --  -20.61666 -20.61661 -20.60911 -20.60906 -15.86730
 Alpha  occ. eigenvalues --  -15.85970 -11.32389 -11.31367 -11.29004 -11.28974
 Alpha  occ. eigenvalues --  -11.28794 -11.28103 -11.28057 -11.27974 -11.27957
 Alpha  occ. eigenvalues --  -11.27563 -11.26993 -11.26955  -1.60735  -1.59987
 Alpha  occ. eigenvalues --   -1.40280  -1.39540  -1.20623  -1.19550  -1.09975
 Alpha  occ. eigenvalues --   -1.08925  -1.06045  -1.04973  -0.96738  -0.95754
 Alpha  occ. eigenvalues --   -0.87422  -0.86366  -0.83547  -0.82600  -0.78532
 Alpha  occ. eigenvalues --   -0.77651  -0.72941  -0.72185  -0.72064  -0.71700
 Alpha  occ. eigenvalues --   -0.71312  -0.70657  -0.66248  -0.66024  -0.65199
 Alpha  occ. eigenvalues --   -0.65006  -0.63350  -0.62331  -0.56531  -0.55804
 Alpha  occ. eigenvalues --   -0.54110  -0.54009  -0.53289  -0.53070  -0.49722
 Alpha  occ. eigenvalues --   -0.49678  -0.48948  -0.48938  -0.45620  -0.44938
 Alpha  occ. eigenvalues --   -0.38618  -0.37677  -0.37510  -0.36590
 Alpha virt. eigenvalues --    0.03948   0.04915   0.09909   0.11060   0.15286
 Alpha virt. eigenvalues --    0.16394   0.19668   0.21719   0.25233   0.27038
 Alpha virt. eigenvalues --    0.27607   0.28809   0.29602   0.31333   0.31751

 Mulliken charges:
               1
     1  C   -0.178169
     2  C   -0.222157
     3  C   -0.169725
     4  C    0.157957
     5  C   -0.169680
     6  C   -0.222836
     7  H    0.237415
     8  H    0.221488
     9  H    0.275885
    10  H    0.275799
    11  H    0.216776
    12  N    0.488069
    13  O   -0.460108
    14  O   -0.460057
    15  C   -0.187481
    16  C   -0.224114
    17  C   -0.169660
    18  C    0.160869
    19  C   -0.169387
    20  C   -0.219223
    21  H    0.230853
    22  H    0.226082
    23  H    0.279439
    24  H    0.280114
    25  H    0.227627
    26  N    0.488016
    27  O   -0.456812
    28  O   -0.456979
 Sum of Mulliken charges =  -0.00000

 Dipole moment (field-independent basis, Debye):
    X=              2.9333    Y=              5.9879    Z=              1.8507  Tot=              6.9198
 Quadrupole moment (field-independent basis, Debye-Ang):
   XX=           -158.5101   YY=           -105.3448   ZZ=            -97.9601
   XY=              9.4733   XZ=              4.3866   YZ=             -5.3412

 Normal termination of Gaussian 16 at Thu May  6 22:57:36 2021.
