 Gaussian 16, Revision A.03,
 Gaussian 16:  EM64L-G16RevA.03 25-Dec-2016

 -------------
 #p 6-31g* mp2
 -------------

 ------------------------------------------------------
 Input file generated by CHIRIPA (05-May-2021 14:53:15)
 ------------------------------------------------------
 Symbolic Z-matrix:
 Charge =  0 Multiplicity = 1

                         Standard orientation:
 ---------------------------------------------------------------------
 Center     Atomic      Atomic             Coordinates (Angstroms)
 Number     Number       Type             X           Y           Z
 ---------------------------------------------------------------------
      1          6           0       -2.939837   -0.530877   -0.319908
      2          6           0       -4.271171   -1.044195    0.229674
      3          6           0       -4.342418   -2.570820    0.275891
      4          1           0       -2.785824   -0.937270   -1.328902
      5          1           0       -2.120713   -0.918450    0.301557
      6          1           0       -5.087633   -0.654644   -0.391819
      7          1           0       -4.422123   -0.636380    1.237402
      8          1           0       -3.548003   -2.974471    0.911950
      9          1           0       -4.217294   -2.992838   -0.726528
     10          1           0       -5.302511   -2.916108    0.671944
     11          6           0       -2.853408    0.993430   -0.372300
     12          6           0       -1.522074    1.506749   -0.921882
     13          6           0       -1.450827    3.033373   -0.968099
     14          1           0       -3.672532    1.381004   -0.993765
     15          1           0       -3.007421    1.399823    0.636694
     16          1           0       -1.371122    1.098933   -1.929610
     17          1           0       -0.705612    1.117197   -0.300389
     18          1           0       -1.575951    3.455392    0.034320
     19          1           0       -2.245242    3.437024   -1.604158
     20          1           0       -0.490734    3.378661   -1.364152
     21          6           0        1.308287    1.801746    1.505076
     22          6           0        1.047347    0.503885    1.956726
     23          6           0        1.571120   -0.601961    1.280477
     24          6           0        2.355283   -0.372339    0.151029
     25          6           0        2.633165    0.908575   -0.323661
     26          6           0        2.098970    1.999600    0.368328
     27          1           0        0.897360    2.655038    2.036516
     28          1           0        0.433626    0.347224    2.839250
     29          1           0        1.384902   -1.617466    1.608335
     30          1           0        3.248473    1.033074   -1.206448
     31          1           0        2.303275    3.006409    0.015286
     32          7           0        2.915295   -1.535203   -0.573217
     33          8           0        3.603171   -1.306170   -1.565693
     34          8           0        2.655754   -2.653671   -0.134691
 ---------------------------------------------------------------------

 SCF Done:  E(RHF) =  -669.534412783     A.U. after   15 cycles
 E2 =    -0.2094699778D+01 EUMP2 =    -0.67162911256144D+03

 The electronic state is 1-A.
 Alpha  occ. eigenvalues --  -20.60850 -20.60845 -15.85905 -11.31328 -11.27915
 Alpha  occ. eigenvalues --  -11.27892 -11.27601 -11.26905 -11.26877 -11.21786
 Alpha  occ. eigenvalues --  -11.21664 -11.21612 -11.21549 -11.21540 -11.21183
 Alpha  occ. eigenvalues --   -1.59924  -1.39476  -1.19514  -1.08906  -1.08620
 Alpha  occ. eigenvalues --   -1.04910  -1.03749  -0.96237  -0.95705  -0.87249
 Alpha  occ. eigenvalues --   -0.86293  -0.82535  -0.79808  -0.78445  -0.77578
 Alpha  occ. eigenvalues --   -0.72121  -0.71246  -0.70592  -0.65308  -0.65146
 Alpha  occ. eigenvalues --   -0.64897  -0.62250  -0.61213  -0.59625  -0.57851
 Alpha  occ. eigenvalues --   -0.55592  -0.55366  -0.53326  -0.53011  -0.52852
 Alpha  occ. eigenvalues --   -0.52641  -0.50160  -0.48885  -0.48874  -0.48093
 Alpha  occ. eigenvalues --   -0.46790  -0.45978  -0.45850  -0.44870  -0.44006
 Alpha  occ. eigenvalues --   -0.37397  -0.36512
 Alpha virt. eigenvalues --    0.04924   0.11069   0.16343   0.20667   0.22929
 Alpha virt. eigenvalues --    0.24040   0.26123   0.26646   0.27104   0.27780
 Alpha virt. eigenvalues --    0.28961   0.29764   0.31380   0.31825   0.32057

 Mulliken charges:
               1
     1  C   -0.298207
     2  C   -0.299704
     3  C   -0.475503
     4  H    0.153083
     5  H    0.146451
     6  H    0.152704
     7  H    0.149029
     8  H    0.154436
     9  H    0.157761
    10  H    0.160369
    11  C   -0.296820
    12  C   -0.309370
    13  C   -0.474125
    14  H    0.149870
    15  H    0.143656
    16  H    0.153183
    17  H    0.166426
    18  H    0.146759
    19  H    0.157422
    20  H    0.154904
    21  C   -0.172595
    22  C   -0.220062
    23  C   -0.170744
    24  C    0.160189
    25  C   -0.170966
    26  C   -0.214925
    27  H    0.226970
    28  H    0.224215
    29  H    0.276352
    30  H    0.276362
    31  H    0.224633
    32  N    0.488165
    33  O   -0.459963
    34  O   -0.459958
 Sum of Mulliken charges =  -0.00000

 Dipole moment (field-independent basis, Debye):
    X=             -1.8478    Y=              4.0100    Z=              2.5314  Tot=              5.0894
 Quadrupole moment (field-independent basis, Debye-Ang):
   XX=           -103.7452   YY=            -97.7601   ZZ=            -91.3211
   XY=             12.0919   XZ=              4.6433   YZ=             -2.4106

 Normal termination of Gaussian 16 at Wed May  5 15:39:29 2021.
