 Gaussian 16, Revision A.03,
 Gaussian 16:  EM64L-G16RevA.03 25-Dec-2016

 -------------
 #p 6-31g* mp2
 -------------

 ------------------------------------------------------
 Input file generated by CHIRIPA (05-May-2021 14:51:08)
 ------------------------------------------------------
 Symbolic Z-matrix:
 Charge =  0 Multiplicity = 1

                         Standard orientation:
 ---------------------------------------------------------------------
 Center     Atomic      Atomic             Coordinates (Angstroms)
 Number     Number       Type             X           Y           Z
 ---------------------------------------------------------------------
      1          6           0        2.888560    0.430355   -0.060154
      2          6           0        3.203588   -0.370970   -1.323729
      3          6           0        4.436357   -1.261733   -1.166834
      4          1           0        3.758507    1.048455    0.200787
      5          1           0        2.736021   -0.264166    0.777561
      6          1           0        3.354124    0.324796   -2.159112
      7          1           0        2.332720   -0.987090   -1.581800
      8          1           0        4.292575   -1.978416   -0.351793
      9          1           0        5.319783   -0.659077   -0.932385
     10          1           0        4.643351   -1.825531   -2.081791
     11          6           0        1.658825    1.325635   -0.201416
     12          6           0        1.343798    2.126960    1.062159
     13          6           0        0.111029    3.017722    0.905265
     14          1           0        1.811365    2.020156   -1.039131
     15          1           0        0.788879    0.707534   -0.462356
     16          1           0        2.214666    2.743080    1.320231
     17          1           0        1.193261    1.431194    1.897542
     18          1           0       -0.772397    2.415066    0.670816
     19          1           0        0.254811    3.734406    0.090224
     20          1           0       -0.095965    3.581521    1.820221
     21          6           0       -2.793175   -0.318524    0.107046
     22          6           0       -3.624897   -0.317388   -1.176006
     23          6           0       -4.659773    0.807672   -1.208655
     24          1           0       -3.464649   -0.410841    0.971654
     25          1           0       -2.285607    0.650839    0.207572
     26          1           0       -4.129648   -1.286967   -1.274790
     27          1           0       -2.951349   -0.225257   -2.037668
     28          1           0       -4.169879    1.783980   -1.134989
     29          1           0       -5.354873    0.716237   -0.367776
     30          1           0       -5.243127    0.789811   -2.134527
     31          6           0       -1.754211   -1.437466    0.154523
     32          6           0       -0.922489   -1.438601    1.437575
     33          6           0        0.112387   -2.563661    1.470225
     34          1           0       -2.261778   -2.406828    0.053998
     35          1           0       -1.082736   -1.345150   -0.710083
     36          1           0       -1.596037   -1.530733    2.299238
     37          1           0       -0.417737   -0.469023    1.536360
     38          1           0        0.807488   -2.472227    0.629347
     39          1           0       -0.377506   -3.539970    1.396558
     40          1           0        0.695741   -2.545801    2.396097
 ---------------------------------------------------------------------

 SCF Done:  E(RHF) =  -470.732537849     A.U. after   11 cycles
 E2 =    -0.1585967703D+01 EUMP2 =    -0.47231850555231D+03

 The electronic state is 1-A.
 Alpha  occ. eigenvalues --  -11.21654 -11.21649 -11.21648 -11.21632 -11.21469
 Alpha  occ. eigenvalues --  -11.21442 -11.21406 -11.21378 -11.21156 -11.21117
 Alpha  occ. eigenvalues --  -11.21091 -11.21083  -1.08563  -1.08418  -1.03602
 Alpha  occ. eigenvalues --   -1.03563  -0.96058  -0.96003  -0.87103  -0.86992
 Alpha  occ. eigenvalues --   -0.79695  -0.79597  -0.78320  -0.78294  -0.65682
 Alpha  occ. eigenvalues --   -0.64660  -0.61067  -0.60875  -0.59398  -0.59390
 Alpha  occ. eigenvalues --   -0.57694  -0.57595  -0.55472  -0.55180  -0.52724
 Alpha  occ. eigenvalues --   -0.52714  -0.52502  -0.52419  -0.50291  -0.49689
 Alpha  occ. eigenvalues --   -0.48001  -0.47972  -0.46846  -0.46495  -0.46109
 Alpha  occ. eigenvalues --   -0.45808  -0.45683  -0.45446  -0.43840  -0.43825
 Alpha virt. eigenvalues --    0.18422   0.21598   0.23321   0.24797   0.25223
 Alpha virt. eigenvalues --    0.26014   0.26980   0.28622   0.28787   0.29708
 Alpha virt. eigenvalues --    0.30519   0.31580   0.31744   0.32140   0.32319

 Mulliken charges:
               1
     1  C   -0.300465
     2  C   -0.300901
     3  C   -0.476053
     4  H    0.150020
     5  H    0.152611
     6  H    0.152167
     7  H    0.151723
     8  H    0.155849
     9  H    0.155372
    10  H    0.160394
    11  C   -0.303874
    12  C   -0.302425
    13  C   -0.483671
    14  H    0.150066
    15  H    0.153849
    16  H    0.153165
    17  H    0.153579
    18  H    0.161350
    19  H    0.155568
    20  H    0.161050
    21  C   -0.308206
    22  C   -0.299033
    23  C   -0.475933
    24  H    0.150253
    25  H    0.157843
    26  H    0.152093
    27  H    0.152107
    28  H    0.155525
    29  H    0.155245
    30  H    0.160429
    31  C   -0.299578
    32  C   -0.308177
    33  C   -0.478119
    34  H    0.150423
    35  H    0.149942
    36  H    0.152613
    37  H    0.160239
    38  H    0.157027
    39  H    0.155824
    40  H    0.160106
 Sum of Mulliken charges =  -0.00000

 Dipole moment (field-independent basis, Debye):
    X=             -0.0028    Y=              0.0047    Z=              0.0110  Tot=              0.0123
 Quadrupole moment (field-independent basis, Debye-Ang):
   XX=            -85.2281   YY=            -84.8631   ZZ=            -84.4969
   XY=              2.0915   XZ=             -0.5923   YZ=             -0.4334

 Normal termination of Gaussian 16 at Thu May  6 03:41:22 2021.
