 Gaussian 16, Revision A.03,
 Gaussian 16:  EM64L-G16RevA.03 25-Dec-2016

 -------------
 #p 6-31g* mp2
 -------------

 ------------------------------------------------------
 Input file generated by CHIRIPA (05-May-2021 14:53:13)
 ------------------------------------------------------
 Symbolic Z-matrix:
 Charge =  0 Multiplicity = 1

                         Standard orientation:
 ---------------------------------------------------------------------
 Center     Atomic      Atomic             Coordinates (Angstroms)
 Number     Number       Type             X           Y           Z
 ---------------------------------------------------------------------
      1          6           0       -4.302333   -0.446131   -0.123942
      2          6           0       -3.481048   -0.994018    1.043661
      3          6           0       -2.025784   -1.270235    0.664573
      4          1           0       -4.268350   -1.162729   -0.955975
      5          1           0       -3.835614    0.479191   -0.489110
      6          1           0       -3.949954   -1.917289    1.407411
      7          1           0       -3.517147   -0.276121    1.873080
      8          1           0       -1.536249   -0.352964    0.321690
      9          1           0       -1.971514   -2.003456   -0.146625
     10          1           0       -1.456947   -1.661245    1.513923
     11          6           0       -5.759270   -0.165012    0.239424
     12          6           0       -6.580555    0.382875   -0.928179
     13          6           0       -8.035819    0.659091   -0.549091
     14          1           0       -6.225989   -1.090334    0.604592
     15          1           0       -5.793253    0.551585    1.071457
     16          1           0       -6.544456   -0.335022   -1.757598
     17          1           0       -6.111649    1.306145   -1.291929
     18          1           0       -8.090089    1.392312    0.262107
     19          1           0       -8.525354   -0.258180   -0.206208
     20          1           0       -8.604656    1.050101   -1.398441
     21          6           0        2.130150    1.946984    0.410076
     22          6           0        1.804556    0.588408    0.340911
     23          6           0        2.793825   -0.366877    0.089264
     24          6           0        4.104348    0.073580   -0.089116
     25          6           0        4.460233    1.419932   -0.026109
     26          6           0        3.454614    2.357685    0.226669
     27          1           0        1.355311    2.682262    0.606000
     28          1           0        0.776798    0.266560    0.482945
     29          1           0        2.569547   -1.425019    0.030509
     30          1           0        5.493597    1.710298   -0.171937
     31          1           0        3.710387    3.412104    0.279837
     32          7           0        5.160296   -0.928457   -0.356121
     33          8           0        6.307401   -0.514690   -0.509694
     34          8           0        4.820850   -2.108646   -0.406772
 ---------------------------------------------------------------------

 SCF Done:  E(RHF) =  -669.535574662     A.U. after   15 cycles
 E2 =    -0.2090752369D+01 EUMP2 =    -0.67162632703121D+03

 The electronic state is 1-A.
 Alpha  occ. eigenvalues --  -20.60705 -20.60700 -15.85757 -11.31110 -11.27681
 Alpha  occ. eigenvalues --  -11.27659 -11.27418 -11.26702 -11.26631 -11.22399
 Alpha  occ. eigenvalues --  -11.22157 -11.22052 -11.22040 -11.21896 -11.21444
 Alpha  occ. eigenvalues --   -1.59781  -1.39335  -1.19279  -1.09054  -1.08679
 Alpha  occ. eigenvalues --   -1.04677  -1.04186  -0.96658  -0.95517  -0.87686
 Alpha  occ. eigenvalues --   -0.86078  -0.82347  -0.80259  -0.78834  -0.77394
 Alpha  occ. eigenvalues --   -0.71976  -0.71104  -0.70395  -0.65693  -0.64930
 Alpha  occ. eigenvalues --   -0.64696  -0.62075  -0.61546  -0.60029  -0.58241
 Alpha  occ. eigenvalues --   -0.55972  -0.55183  -0.53391  -0.53128  -0.53010
 Alpha  occ. eigenvalues --   -0.52694  -0.50580  -0.48740  -0.48732  -0.48555
 Alpha  occ. eigenvalues --   -0.47270  -0.46384  -0.46289  -0.44743  -0.44425
 Alpha  occ. eigenvalues --   -0.37267  -0.36279
 Alpha virt. eigenvalues --    0.05134   0.11362   0.16626   0.20350   0.22403
 Alpha virt. eigenvalues --    0.23729   0.25401   0.26222   0.27015   0.28260
 Alpha virt. eigenvalues --    0.28726   0.30145   0.31016   0.31199   0.31962

 Mulliken charges:
               1
     1  C   -0.298889
     2  C   -0.299255
     3  C   -0.482555
     4  H    0.151877
     5  H    0.147806
     6  H    0.156313
     7  H    0.152425
     8  H    0.147086
     9  H    0.161241
    10  H    0.162190
    11  C   -0.298813
    12  C   -0.300010
    13  C   -0.476023
    14  H    0.151230
    15  H    0.149714
    16  H    0.153115
    17  H    0.151516
    18  H    0.155286
    19  H    0.156158
    20  H    0.161496
    21  C   -0.173112
    22  C   -0.226926
    23  C   -0.173701
    24  C    0.158874
    25  C   -0.171445
    26  C   -0.218412
    27  H    0.225071
    28  H    0.236637
    29  H    0.276092
    30  H    0.275265
    31  H    0.222959
    32  N    0.488065
    33  O   -0.460787
    34  O   -0.460488
 Sum of Mulliken charges =  -0.00000

 Dipole moment (field-independent basis, Debye):
    X=             -3.9668    Y=              3.4627    Z=              0.9449  Tot=              5.3496
 Quadrupole moment (field-independent basis, Debye-Ang):
   XX=           -123.7016   YY=            -90.8796   ZZ=            -95.7508
   XY=             17.8797   XZ=              4.2107   YZ=             -0.2188

 Normal termination of Gaussian 16 at Wed May  5 18:35:21 2021.
