 Gaussian 16, Revision A.03,
 Gaussian 16:  EM64L-G16RevA.03 25-Dec-2016

 -------------
 #p 6-31g* mp2
 -------------

 ------------------------------------------------------
 Input file generated by CHIRIPA (05-May-2021 14:55:25)
 ------------------------------------------------------
 Symbolic Z-matrix:
 Charge =  0 Multiplicity = 1

                         Standard orientation:
 ---------------------------------------------------------------------
 Center     Atomic      Atomic             Coordinates (Angstroms)
 Number     Number       Type             X           Y           Z
 ---------------------------------------------------------------------
      1          6           0       -4.020029    1.420947    0.829498
      2          6           0       -2.644179    1.495208    1.070419
      3          6           0       -1.791939    0.473717    0.640547
      4          6           0       -2.351936   -0.612392   -0.030320
      5          6           0       -3.718549   -0.715267   -0.285417
      6          6           0       -4.551885    0.317891    0.153541
      7          1           0       -4.674727    2.218998    1.166962
      8          1           0       -2.228349    2.350663    1.595135
      9          1           0       -0.723114    0.505719    0.813770
     10          1           0       -4.103740   -1.580592   -0.811019
     11          1           0       -5.620002    0.257547   -0.034954
     12          7           0       -1.459714   -1.699974   -0.490216
     13          8           0       -1.977833   -2.646229   -1.079106
     14          8           0       -0.259165   -1.585574   -0.253083
     15          6           0        3.387893   -0.173877   -0.189409
     16          6           0        4.168442   -0.813948    0.959086
     17          6           0        4.539724   -2.271008    0.681743
     18          1           0        2.475616   -0.757400   -0.374329
     19          1           0        3.987662   -0.231882   -1.108271
     20          1           0        3.567954   -0.753514    1.875807
     21          1           0        5.078871   -0.228722    1.141420
     22          1           0        5.159619   -2.346131   -0.217526
     23          1           0        3.640117   -2.873904    0.521034
     24          1           0        5.097146   -2.708971    1.515608
     25          6           0        3.009507    1.282728    0.072990
     26          6           0        2.228959    1.922798   -1.075505
     27          6           0        1.857677    3.379860   -0.798162
     28          1           0        2.409738    1.340733    0.991852
     29          1           0        3.921784    1.866251    0.257910
     30          1           0        1.318529    1.337573   -1.257839
     31          1           0        2.829447    1.862364   -1.992227
     32          1           0        2.757283    3.982755   -0.637452
     33          1           0        1.237781    3.454982    0.101107
     34          1           0        1.300255    3.817823   -1.632027
 ---------------------------------------------------------------------

 SCF Done:  E(RHF) =  -669.536370790     A.U. after   15 cycles
 E2 =    -0.2091984072D+01 EUMP2 =    -0.67162835486197D+03

 The electronic state is 1-A.
 Alpha  occ. eigenvalues --  -20.61005 -20.60987 -15.86036 -11.31320 -11.27879
 Alpha  occ. eigenvalues --  -11.27874 -11.27606 -11.26880 -11.26869 -11.21340
 Alpha  occ. eigenvalues --  -11.21122 -11.21010 -11.20869 -11.20443 -11.20237
 Alpha  occ. eigenvalues --   -1.60058  -1.39616  -1.19484  -1.08894  -1.07884
 Alpha  occ. eigenvalues --   -1.04875  -1.03050  -0.95744  -0.95501  -0.86520
 Alpha  occ. eigenvalues --   -0.86277  -0.82581  -0.79139  -0.77713  -0.77550
 Alpha  occ. eigenvalues --   -0.72267  -0.71368  -0.70593  -0.65148  -0.64894
 Alpha  occ. eigenvalues --   -0.64495  -0.62222  -0.60447  -0.58906  -0.57095
 Alpha  occ. eigenvalues --   -0.55379  -0.54797  -0.53206  -0.52966  -0.52237
 Alpha  occ. eigenvalues --   -0.51916  -0.49442  -0.49021  -0.48998  -0.47449
 Alpha  occ. eigenvalues --   -0.46192  -0.45239  -0.45169  -0.44815  -0.43265
 Alpha  occ. eigenvalues --   -0.37459  -0.36472
 Alpha virt. eigenvalues --    0.04863   0.11142   0.16376   0.19649   0.22859
 Alpha virt. eigenvalues --    0.24656   0.26351   0.27214   0.28134   0.28296
 Alpha virt. eigenvalues --    0.29218   0.31239   0.31762   0.31991   0.32509

 Mulliken charges:
               1
     1  C   -0.170443
     2  C   -0.218783
     3  C   -0.172871
     4  C    0.157300
     5  C   -0.170525
     6  C   -0.218558
     7  H    0.226236
     8  H    0.224406
     9  H    0.278523
    10  H    0.275853
    11  H    0.223946
    12  N    0.495595
    13  O   -0.458227
    14  O   -0.469050
    15  C   -0.312179
    16  C   -0.297526
    17  C   -0.477449
    18  H    0.180521
    19  H    0.146546
    20  H    0.149249
    21  H    0.146896
    22  H    0.153172
    23  H    0.165112
    24  H    0.156245
    25  C   -0.295943
    26  C   -0.303571
    27  C   -0.473601
    28  H    0.140652
    29  H    0.147463
    30  H    0.156312
    31  H    0.154116
    32  H    0.156236
    33  H    0.144772
    34  H    0.159574
 Sum of Mulliken charges =  -0.00000

 Dipole moment (field-independent basis, Debye):
    X=             -3.3345    Y=              3.6282    Z=              1.5137  Tot=              5.1550
 Quadrupole moment (field-independent basis, Debye-Ang):
   XX=            -76.8458   YY=           -100.0801   ZZ=            -94.7905
   XY=             -4.7017   XZ=             -2.7908   YZ=             -0.1263

 Normal termination of Gaussian 16 at Wed May  5 19:14:18 2021.
