 Gaussian 16, Revision A.03,
 Gaussian 16:  EM64L-G16RevA.03 25-Dec-2016

 -------------
 #p 6-31g* mp2
 -------------

 ------------------------------------------------------
 Input file generated by CHIRIPA (05-May-2021 14:55:25)
 ------------------------------------------------------
 Symbolic Z-matrix:
 Charge =  0 Multiplicity = 1

                         Standard orientation:
 ---------------------------------------------------------------------
 Center     Atomic      Atomic             Coordinates (Angstroms)
 Number     Number       Type             X           Y           Z
 ---------------------------------------------------------------------
      1          6           0        2.010198    1.946742   -1.511387
      2          6           0        3.334331    1.619457   -1.201422
      3          6           0        3.624156    0.495185   -0.422602
      4          6           0        2.560598   -0.283125    0.031675
      5          6           0        1.230890    0.016831   -0.260206
      6          6           0        0.964547    1.145797   -1.040620
      7          1           0        1.794176    2.821927   -2.117013
      8          1           0        4.148408    2.239661   -1.565661
      9          1           0        4.640042    0.218759   -0.167685
     10          1           0        0.440575   -0.620609    0.117271
     11          1           0       -0.064757    1.397554   -1.279776
     12          7           0        2.854993   -1.475826    0.857021
     13          8           0        1.900100   -2.145316    1.245094
     14          8           0        4.035058   -1.718591    1.100226
     15          6           0       -3.355951    0.658295    0.647312
     16          6           0       -2.354677    1.812604    0.592492
     17          6           0       -2.648974    2.900044    1.626251
     18          1           0       -4.369143    1.052326    0.488802
     19          1           0       -3.345052    0.220191    1.654954
     20          1           0       -2.366459    2.247511   -0.415145
     21          1           0       -1.343731    1.415752    0.750962
     22          1           0       -2.617426    2.486896    2.639619
     23          1           0       -3.645965    3.323380    1.466887
     24          1           0       -1.921127    3.715445    1.569504
     25          6           0       -3.074967   -0.436719   -0.380171
     26          6           0       -4.076242   -1.591028   -0.325351
     27          6           0       -3.781945   -2.678468   -1.359110
     28          1           0       -3.085867    0.001385   -1.387812
     29          1           0       -2.061776   -0.830750   -0.221660
     30          1           0       -5.087188   -1.194176   -0.483820
     31          1           0       -4.064460   -2.025935    0.682287
     32          1           0       -2.784954   -3.101804   -1.199746
     33          1           0       -3.813493   -2.265320   -2.372478
     34          1           0       -4.509791   -3.493869   -1.302363
 ---------------------------------------------------------------------

 SCF Done:  E(RHF) =  -669.534507032     A.U. after   15 cycles
 E2 =    -0.2093539748D+01 EUMP2 =    -0.67162804677965D+03

 The electronic state is 1-A.
 Alpha  occ. eigenvalues --  -20.60750 -20.60745 -15.85799 -11.31140 -11.27696
 Alpha  occ. eigenvalues --  -11.27670 -11.27408 -11.26722 -11.26600 -11.22432
 Alpha  occ. eigenvalues --  -11.22135 -11.22006 -11.21989 -11.21675 -11.21316
 Alpha  occ. eigenvalues --   -1.59824  -1.39379  -1.19301  -1.09088  -1.08696
 Alpha  occ. eigenvalues --   -1.04705  -1.04083  -0.96510  -0.95543  -0.87532
 Alpha  occ. eigenvalues --   -0.86094  -0.82401  -0.80210  -0.78974  -0.77381
 Alpha  occ. eigenvalues --   -0.72020  -0.71146  -0.70419  -0.65731  -0.64939
 Alpha  occ. eigenvalues --   -0.64699  -0.62073  -0.61467  -0.59883  -0.58143
 Alpha  occ. eigenvalues --   -0.55783  -0.55198  -0.53236  -0.53062  -0.52971
 Alpha  occ. eigenvalues --   -0.52691  -0.50447  -0.48789  -0.48778  -0.48440
 Alpha  occ. eigenvalues --   -0.47227  -0.46400  -0.46348  -0.44790  -0.44362
 Alpha  occ. eigenvalues --   -0.37279  -0.36256
 Alpha virt. eigenvalues --    0.05060   0.11341   0.16462   0.19755   0.22757
 Alpha virt. eigenvalues --    0.23653   0.24511   0.25054   0.27484   0.28397
 Alpha virt. eigenvalues --    0.30152   0.30654   0.31267   0.31464   0.32075

 Mulliken charges:
               1
     1  C   -0.173318
     2  C   -0.218445
     3  C   -0.171068
     4  C    0.159891
     5  C   -0.181173
     6  C   -0.221776
     7  H    0.225434
     8  H    0.223157
     9  H    0.275304
    10  H    0.281369
    11  H    0.233475
    12  N    0.487902
    13  O   -0.461087
    14  O   -0.460382
    15  C   -0.297521
    16  C   -0.309598
    17  C   -0.474888
    18  H    0.152381
    19  H    0.155326
    20  H    0.144882
    21  H    0.154524
    22  H    0.160056
    23  H    0.157037
    24  H    0.160398
    25  C   -0.305278
    26  C   -0.299634
    27  C   -0.477272
    28  H    0.146900
    29  H    0.147549
    30  H    0.153214
    31  H    0.156665
    32  H    0.159176
    33  H    0.153812
    34  H    0.162986
 Sum of Mulliken charges =  -0.00000

 Dipole moment (field-independent basis, Debye):
    X=             -1.2210    Y=              4.1629    Z=             -2.8206  Tot=              5.1746
 Quadrupole moment (field-independent basis, Debye-Ang):
   XX=            -94.2886   YY=            -97.8791   ZZ=            -95.5963
   XY=             12.2782   XZ=             -7.7974   YZ=              0.0347

 Normal termination of Gaussian 16 at Wed May  5 20:49:49 2021.
