 Gaussian 16, Revision A.03,
 Gaussian 16:  EM64L-G16RevA.03 25-Dec-2016

 -------------
 #p 6-31g* mp2
 -------------

 ------------------------------------------------------
 Input file generated by CHIRIPA (05-May-2021 14:55:22)
 ------------------------------------------------------
 Symbolic Z-matrix:
 Charge =  0 Multiplicity = 1

                         Standard orientation:
 ---------------------------------------------------------------------
 Center     Atomic      Atomic             Coordinates (Angstroms)
 Number     Number       Type             X           Y           Z
 ---------------------------------------------------------------------
      1          6           0        1.891419    2.147138    0.765577
      2          6           0        1.308510    1.057297    1.420546
      3          6           0        1.682969   -0.249785    1.095181
      4          6           0        2.647755   -0.431332    0.105474
      5          6           0        3.246810    0.633957   -0.565035
      6          6           0        2.857007    1.932368   -0.223380
      7          1           0        1.594570    3.159144    1.024656
      8          1           0        0.558368    1.221091    2.188989
      9          1           0        1.247837   -1.111634    1.586399
     10          1           0        3.991911    0.439070   -1.326784
     11          1           0        3.311393    2.776853   -0.733697
     12          7           0        3.052300   -1.810492   -0.247599
     13          8           0        3.904538   -1.943748   -1.123138
     14          8           0        2.509485   -2.732107    0.357888
     15          6           0       -3.654618   -0.352015   -0.499950
     16          6           0       -4.317036   -1.231096    0.561371
     17          6           0       -5.014760   -2.453826   -0.035210
     18          1           0       -4.414536   -0.025800   -1.223175
     19          1           0       -2.926291   -0.953240   -1.061611
     20          1           0       -5.042901   -0.628037    1.121778
     21          1           0       -3.555487   -1.555100    1.282262
     22          1           0       -4.298754   -3.079184   -0.578221
     23          1           0       -5.794618   -2.146855   -0.739617
     24          1           0       -5.481467   -3.068255    0.741013
     25          6           0       -2.952950    0.874331    0.080968
     26          6           0       -2.290531    1.753413   -0.980354
     27          6           0       -1.592808    2.976142   -0.383772
     28          1           0       -3.681276    1.475556    0.642628
     29          1           0       -2.193031    0.548116    0.804192
     30          1           0       -3.052080    2.077416   -1.701243
     31          1           0       -1.564667    1.150354   -1.540760
     32          1           0       -0.812949    2.669171    0.320635
     33          1           0       -2.308814    3.601501    0.159239
     34          1           0       -1.126101    3.590571   -1.159995
 ---------------------------------------------------------------------

 SCF Done:  E(RHF) =  -669.534489502     A.U. after   15 cycles
 E2 =    -0.2093083994D+01 EUMP2 =    -0.67162757349609D+03

 The electronic state is 1-A.
 Alpha  occ. eigenvalues --  -20.60823 -20.60818 -15.85879 -11.31256 -11.27850
 Alpha  occ. eigenvalues --  -11.27843 -11.27567 -11.26848 -11.26829 -11.22032
 Alpha  occ. eigenvalues --  -11.21828 -11.21815 -11.21653 -11.21627 -11.21164
 Alpha  occ. eigenvalues --   -1.59900  -1.39453  -1.19448  -1.08859  -1.08755
 Alpha  occ. eigenvalues --   -1.04854  -1.03866  -0.96347  -0.95661  -0.87364
 Alpha  occ. eigenvalues --   -0.86251  -0.82496  -0.79949  -0.78584  -0.77538
 Alpha  occ. eigenvalues --   -0.72098  -0.71225  -0.70563  -0.65430  -0.65101
 Alpha  occ. eigenvalues --   -0.64842  -0.62206  -0.61263  -0.59709  -0.57944
 Alpha  occ. eigenvalues --   -0.55746  -0.55291  -0.53223  -0.53014  -0.52937
 Alpha  occ. eigenvalues --   -0.52712  -0.50260  -0.48857  -0.48851  -0.48259
 Alpha  occ. eigenvalues --   -0.46968  -0.46134  -0.46029  -0.44856  -0.44128
 Alpha  occ. eigenvalues --   -0.37333  -0.36438
 Alpha virt. eigenvalues --    0.04972   0.11061   0.16380   0.20495   0.22754
 Alpha virt. eigenvalues --    0.24150   0.25550   0.26829   0.26872   0.28408
 Alpha virt. eigenvalues --    0.28785   0.30398   0.31324   0.31421   0.31853

 Mulliken charges:
               1
     1  C   -0.168131
     2  C   -0.219051
     3  C   -0.172072
     4  C    0.157962
     5  C   -0.170590
     6  C   -0.220005
     7  H    0.228324
     8  H    0.225035
     9  H    0.275765
    10  H    0.276005
    11  H    0.224018
    12  N    0.488115
    13  O   -0.460213
    14  O   -0.460457
    15  C   -0.299311
    16  C   -0.299484
    17  C   -0.476259
    18  H    0.150724
    19  H    0.152998
    20  H    0.151175
    21  H    0.150620
    22  H    0.158119
    23  H    0.155301
    24  H    0.161010
    25  C   -0.297931
    26  C   -0.298548
    27  C   -0.479974
    28  H    0.149080
    29  H    0.143379
    30  H    0.153752
    31  H    0.155923
    32  H    0.151768
    33  H    0.154158
    34  H    0.158795
 Sum of Mulliken charges =  -0.00000

 Dipole moment (field-independent basis, Debye):
    X=             -1.4084    Y=              4.7995    Z=              1.1728  Tot=              5.1376
 Quadrupole moment (field-independent basis, Debye-Ang):
   XX=           -100.0560   YY=            -99.5582   ZZ=            -92.6929
   XY=             14.3222   XZ=              0.7444   YZ=             -1.7451

 Normal termination of Gaussian 16 at Thu May  6 04:38:49 2021.
