 Gaussian 16, Revision A.03,
 Gaussian 16:  EM64L-G16RevA.03 25-Dec-2016

 -------------
 #p 6-31g* mp2
 -------------

 ------------------------------------------------------
 Input file generated by CHIRIPA (05-May-2021 14:53:16)
 ------------------------------------------------------
 Symbolic Z-matrix:
 Charge =  0 Multiplicity = 1

                         Standard orientation:
 ---------------------------------------------------------------------
 Center     Atomic      Atomic             Coordinates (Angstroms)
 Number     Number       Type             X           Y           Z
 ---------------------------------------------------------------------
      1          6           0       -3.151497    0.307234    0.902969
      2          6           0       -2.552265    1.713969    0.902539
      3          6           0       -1.604381    1.953106    2.078177
      4          1           0       -3.688299    0.144527    1.847594
      5          1           0       -2.337615   -0.430467    0.874887
      6          1           0       -3.367072    2.448812    0.929216
      7          1           0       -2.016990    1.873415   -0.042275
      8          1           0       -0.771958    1.242460    2.052592
      9          1           0       -2.129711    1.821127    3.029603
     10          1           0       -1.187450    2.964855    2.058346
     11          6           0       -4.101223    0.052948   -0.266257
     12          6           0       -4.700455   -1.353787   -0.265827
     13          6           0       -5.648339   -1.592924   -1.441465
     14          1           0       -4.915105    0.790649   -0.238175
     15          1           0       -3.564422    0.215655   -1.210881
     16          1           0       -5.235730   -1.513233    0.678988
     17          1           0       -3.885648   -2.088629   -0.292504
     18          1           0       -5.123009   -1.460944   -2.392890
     19          1           0       -6.480762   -0.882278   -1.415879
     20          1           0       -6.065270   -2.604672   -1.421634
     21          6           0        2.029938    1.999062   -1.317499
     22          6           0        3.398472    1.783818   -1.124347
     23          6           0        3.854841    0.601959   -0.533175
     24          6           0        2.910740   -0.347560   -0.145390
     25          6           0        1.540722   -0.162356   -0.324386
     26          6           0        1.107058    1.027003   -0.917606
     27          1           0        1.684239    2.920072   -1.777531
     28          1           0        4.117468    2.536977   -1.433924
     29          1           0        4.908566    0.409515   -0.371779
     30          1           0        0.847977   -0.931628   -0.005416
     31          1           0        0.043635    1.191460   -1.066367
     32          7           0        3.381859   -1.602710    0.481542
     33          8           0        2.529854   -2.423631    0.814428
     34          8           0        4.594207   -1.741810    0.628174
 ---------------------------------------------------------------------

 SCF Done:  E(RHF) =  -669.535448245     A.U. after   15 cycles
 E2 =    -0.2091931128D+01 EUMP2 =    -0.67162737937262D+03

 The electronic state is 1-A.
 Alpha  occ. eigenvalues --  -20.60779 -20.60774 -15.85832 -11.31207 -11.27780
 Alpha  occ. eigenvalues --  -11.27771 -11.27508 -11.26791 -11.26769 -11.22424
 Alpha  occ. eigenvalues --  -11.22059 -11.22008 -11.21939 -11.21646 -11.21398
 Alpha  occ. eigenvalues --   -1.59854  -1.39407  -1.19378  -1.09047  -1.08768
 Alpha  occ. eigenvalues --   -1.04786  -1.04085  -0.96509  -0.95604  -0.87522
 Alpha  occ. eigenvalues --   -0.86181  -0.82438  -0.80163  -0.78843  -0.77487
 Alpha  occ. eigenvalues --   -0.72050  -0.71177  -0.70484  -0.65764  -0.65028
 Alpha  occ. eigenvalues --   -0.64764  -0.62217  -0.61389  -0.59885  -0.58119
 Alpha  occ. eigenvalues --   -0.55804  -0.55276  -0.53197  -0.53102  -0.52936
 Alpha  occ. eigenvalues --   -0.52856  -0.50450  -0.48816  -0.48805  -0.48453
 Alpha  occ. eigenvalues --   -0.47211  -0.46374  -0.46307  -0.44811  -0.44347
 Alpha  occ. eigenvalues --   -0.37351  -0.36371
 Alpha virt. eigenvalues --    0.05027   0.11235   0.16422   0.18766   0.22946
 Alpha virt. eigenvalues --    0.23873   0.25141   0.25345   0.27460   0.28464
 Alpha virt. eigenvalues --    0.29365   0.30203   0.31216   0.31284   0.32064

 Mulliken charges:
               1
     1  C   -0.299528
     2  C   -0.302804
     3  C   -0.476845
     4  H    0.155042
     5  H    0.146969
     6  H    0.156026
     7  H    0.140592
     8  H    0.157345
     9  H    0.159455
    10  H    0.160202
    11  C   -0.297861
    12  C   -0.300360
    13  C   -0.476042
    14  H    0.151379
    15  H    0.144652
    16  H    0.154197
    17  H    0.153629
    18  H    0.154689
    19  H    0.155495
    20  H    0.162756
    21  C   -0.172482
    22  C   -0.218368
    23  C   -0.170876
    24  C    0.158955
    25  C   -0.174719
    26  C   -0.221136
    27  H    0.225936
    28  H    0.223559
    29  H    0.275704
    30  H    0.275871
    31  H    0.231309
    32  N    0.488088
    33  O   -0.460506
    34  O   -0.460322
 Sum of Mulliken charges =  -0.00000

 Dipole moment (field-independent basis, Debye):
    X=             -1.7747    Y=              4.4069    Z=             -2.1227  Tot=              5.2035
 Quadrupole moment (field-independent basis, Debye-Ang):
   XX=            -99.1117   YY=            -97.9011   ZZ=            -95.0125
   XY=             14.9832   XZ=             -8.0210   YZ=             -0.0648

 Normal termination of Gaussian 16 at Thu May  6 04:21:15 2021.
