 Gaussian 16, Revision A.03,
 Gaussian 16:  EM64L-G16RevA.03 25-Dec-2016

 -------------
 #p 6-31g* mp2
 -------------

 ------------------------------------------------------
 Input file generated by CHIRIPA (05-May-2021 14:57:24)
 ------------------------------------------------------
 Symbolic Z-matrix:
 Charge =  0 Multiplicity = 1

                         Standard orientation:
 ---------------------------------------------------------------------
 Center     Atomic      Atomic             Coordinates (Angstroms)
 Number     Number       Type             X           Y           Z
 ---------------------------------------------------------------------
      1          6           0        1.858075    2.159655   -0.292045
      2          6           0        3.063051    2.181532    0.417938
      3          6           0        3.891362    1.055619    0.445642
      4          6           0        3.481939   -0.080360   -0.250932
      5          6           0        2.287286   -0.133165   -0.967387
      6          6           0        1.474715    1.004413   -0.981227
      7          1           0        1.220737    3.038823   -0.308181
      8          1           0        3.363315    3.077319    0.954084
      9          1           0        4.829415    1.045194    0.987275
     10          1           0        2.014742   -1.040766   -1.492171
     11          1           0        0.539460    0.984555   -1.533449
     12          7           0        4.350503   -1.278488   -0.228942
     13          8           0        3.967198   -2.266930   -0.850792
     14          8           0        5.398143   -1.206453    0.409727
     15          6           0       -1.082093    0.187593    1.341021
     16          6           0       -1.644132    1.226293    0.591530
     17          6           0       -2.893899    1.068594   -0.014903
     18          6           0       -3.556958   -0.146564    0.149521
     19          6           0       -3.023281   -1.200138    0.890103
     20          6           0       -1.772244   -1.020178    1.487657
     21          1           0       -0.110751    0.318743    1.808665
     22          1           0       -1.110422    2.165356    0.475956
     23          1           0       -3.352213    1.856228   -0.600564
     24          1           0       -3.579240   -2.124719    0.987452
     25          1           0       -1.338190   -1.828575    2.069152
     26          7           0       -4.880702   -0.325296   -0.487783
     27          8           0       -5.444653   -1.405580   -0.327844
     28          8           0       -5.329236    0.618283   -1.135173
 ---------------------------------------------------------------------

 SCF Done:  E(RHF) =  -868.335951025     A.U. after   16 cycles
 E2 =    -0.2602913360D+01 EUMP2 =    -0.87093886438487D+03

 The electronic state is 1-A.
 Alpha  occ. eigenvalues --  -20.61493 -20.61488 -20.61220 -20.61209 -15.86547
 Alpha  occ. eigenvalues --  -15.86279 -11.32084 -11.31729 -11.28603 -11.28559
 Alpha  occ. eigenvalues --  -11.28441 -11.28398 -11.28300 -11.28023 -11.27736
 Alpha  occ. eigenvalues --  -11.27632 -11.27424 -11.27251  -1.60566  -1.60294
 Alpha  occ. eigenvalues --   -1.40113  -1.39844  -1.20267  -1.19935  -1.09672
 Alpha  occ. eigenvalues --   -1.09279  -1.05658  -1.05360  -0.96455  -0.96102
 Alpha  occ. eigenvalues --   -0.87110  -0.86693  -0.83251  -0.82947  -0.78264
 Alpha  occ. eigenvalues --   -0.77990  -0.72758  -0.72492  -0.71897  -0.71623
 Alpha  occ. eigenvalues --   -0.71412  -0.70984  -0.65946  -0.65741  -0.65564
 Alpha  occ. eigenvalues --   -0.65246  -0.62984  -0.62678  -0.56239  -0.55806
 Alpha  occ. eigenvalues --   -0.54194  -0.53793  -0.53460  -0.53370  -0.49531
 Alpha  occ. eigenvalues --   -0.49506  -0.49258  -0.49241  -0.45479  -0.45232
 Alpha  occ. eigenvalues --   -0.38594  -0.37981  -0.37126  -0.36689
 Alpha virt. eigenvalues --    0.04137   0.04597   0.09828   0.11218   0.15402
 Alpha virt. eigenvalues --    0.16062   0.19341   0.21725   0.25095   0.26655
 Alpha virt. eigenvalues --    0.27775   0.28490   0.29679   0.31446   0.31824

 Mulliken charges:
               1
     1  C   -0.183807
     2  C   -0.218668
     3  C   -0.172931
     4  C    0.158469
     5  C   -0.174386
     6  C   -0.215099
     7  H    0.222355
     8  H    0.226116
     9  H    0.278025
    10  H    0.279291
    11  H    0.230449
    12  N    0.487624
    13  O   -0.457804
    14  O   -0.458237
    15  C   -0.167901
    16  C   -0.225243
    17  C   -0.173983
    18  C    0.158119
    19  C   -0.169448
    20  C   -0.220920
    21  H    0.231679
    22  H    0.215342
    23  H    0.275171
    24  H    0.278383
    25  H    0.228018
    26  N    0.488125
    27  O   -0.458114
    28  O   -0.460626
 Sum of Mulliken charges =  -0.00000

 Dipole moment (field-independent basis, Debye):
    X=              1.7038    Y=              4.6094    Z=              2.1867  Tot=              5.3788
 Quadrupole moment (field-independent basis, Debye-Ang):
   XX=           -157.6208   YY=           -100.9185   ZZ=           -102.7726
   XY=             14.4039   XZ=             -4.9180   YZ=             -1.7455

 Normal termination of Gaussian 16 at Fri May  7 12:35:02 2021.
