 Gaussian 16, Revision A.03,
 Gaussian 16:  EM64L-G16RevA.03 25-Dec-2016

 -------------
 #p 6-31g* mp2
 -------------

 ------------------------------------------------------
 Input file generated by CHIRIPA (05-May-2021 14:57:27)
 ------------------------------------------------------
 Symbolic Z-matrix:
 Charge =  0 Multiplicity = 1

                         Standard orientation:
 ---------------------------------------------------------------------
 Center     Atomic      Atomic             Coordinates (Angstroms)
 Number     Number       Type             X           Y           Z
 ---------------------------------------------------------------------
      1          6           0        1.807881    2.493060    0.026673
      2          6           0        1.840047    1.744060   -1.154210
      3          6           0        2.528810    0.528525   -1.205477
      4          6           0        3.177284    0.089972   -0.052029
      5          6           0        3.163574    0.813448    1.139477
      6          6           0        2.468583    2.026187    1.167736
      7          1           0        1.270414    3.436231    0.057562
      8          1           0        1.327844    2.104179   -2.041908
      9          1           0        2.569893   -0.071420   -2.106475
     10          1           0        3.683714    0.428535    2.008220
     11          1           0        2.445298    2.605765    2.086208
     12          7           0        3.909743   -1.195380   -0.094124
     13          8           0        4.472986   -1.559855    0.935707
     14          8           0        3.906733   -1.814026   -1.156153
     15          6           0       -0.562636   -0.676792    0.120125
     16          6           0       -1.191648   -0.393744   -1.096735
     17          6           0       -2.572874   -0.184200   -1.150162
     18          6           0       -3.297669   -0.265562    0.037837
     19          6           0       -2.699922   -0.545777    1.265626
     20          6           0       -1.317450   -0.751774    1.295350
     21          1           0        0.510818   -0.838193    0.152421
     22          1           0       -0.607969   -0.334897   -2.011012
     23          1           0       -3.085381    0.036509   -2.078624
     24          1           0       -3.308314   -0.597951    2.160365
     25          1           0       -0.831628   -0.971426    2.241804
     26          7           0       -4.760572   -0.045606   -0.006177
     27          8           0       -5.376700   -0.122764    1.054516
     28          8           0       -5.263364    0.199789   -1.100535
 ---------------------------------------------------------------------

 SCF Done:  E(RHF) =  -868.335879102     A.U. after   16 cycles
 E2 =    -0.2603948336D+01 EUMP2 =    -0.87093982743755D+03

 The electronic state is 1-A.
 Alpha  occ. eigenvalues --  -20.61885 -20.61879 -20.60917 -20.60912 -15.86944
 Alpha  occ. eigenvalues --  -15.85975 -11.32430 -11.31303 -11.28970 -11.28966
 Alpha  occ. eigenvalues --  -11.28618 -11.27967 -11.27945 -11.27927 -11.27893
 Alpha  occ. eigenvalues --  -11.27475 -11.26897 -11.26823  -1.60970  -1.59996
 Alpha  occ. eigenvalues --   -1.40513  -1.39551  -1.20633  -1.19484  -1.09943
 Alpha  occ. eigenvalues --   -1.08864  -1.06011  -1.04900  -0.96764  -0.95704
 Alpha  occ. eigenvalues --   -0.87368  -0.86292  -0.83576  -0.82558  -0.78639
 Alpha  occ. eigenvalues --   -0.77621  -0.73134  -0.72375  -0.72189  -0.71607
 Alpha  occ. eigenvalues --   -0.71325  -0.70573  -0.66214  -0.65940  -0.65130
 Alpha  occ. eigenvalues --   -0.64938  -0.63321  -0.62259  -0.56386  -0.55876
 Alpha  occ. eigenvalues --   -0.54045  -0.53927  -0.53063  -0.52984  -0.49912
 Alpha  occ. eigenvalues --   -0.49895  -0.48948  -0.48946  -0.45878  -0.44965
 Alpha  occ. eigenvalues --   -0.38652  -0.37865  -0.37127  -0.36439
 Alpha virt. eigenvalues --    0.03839   0.04940   0.09818   0.11271   0.15309
 Alpha virt. eigenvalues --    0.16437   0.19791   0.21612   0.25223   0.27131
 Alpha virt. eigenvalues --    0.27929   0.28365   0.29844   0.31299   0.31605

 Mulliken charges:
               1
     1  C   -0.168066
     2  C   -0.210240
     3  C   -0.189593
     4  C    0.152846
     5  C   -0.176082
     6  C   -0.216667
     7  H    0.232384
     8  H    0.226661
     9  H    0.276370
    10  H    0.278895
    11  H    0.228748
    12  N    0.487546
    13  O   -0.457148
    14  O   -0.458277
    15  C   -0.164771
    16  C   -0.222853
    17  C   -0.172286
    18  C    0.156947
    19  C   -0.170778
    20  C   -0.223811
    21  H    0.234755
    22  H    0.215581
    23  H    0.274228
    24  H    0.275401
    25  H    0.223825
    26  N    0.488086
    27  O   -0.460431
    28  O   -0.461271
 Sum of Mulliken charges =  -0.00000

 Dipole moment (field-independent basis, Debye):
    X=              2.8350    Y=              3.9687    Z=              0.4280  Tot=              4.8960
 Quadrupole moment (field-independent basis, Debye-Ang):
   XX=           -156.2832   YY=           -104.1698   ZZ=            -95.3707
   XY=             15.9646   XZ=              1.5649   YZ=             -0.4320

 Normal termination of Gaussian 16 at Fri May  7 03:36:30 2021.
