 Gaussian 16, Revision A.03,
 Gaussian 16:  EM64L-G16RevA.03 25-Dec-2016

 -------------
 #p 6-31g* mp2
 -------------

 ------------------------------------------------------
 Input file generated by CHIRIPA (05-May-2021 14:57:25)
 ------------------------------------------------------
 Symbolic Z-matrix:
 Charge =  0 Multiplicity = 1

                         Standard orientation:
 ---------------------------------------------------------------------
 Center     Atomic      Atomic             Coordinates (Angstroms)
 Number     Number       Type             X           Y           Z
 ---------------------------------------------------------------------
      1          6           0       -1.141622    0.066652    1.515573
      2          6           0       -1.548602   -1.143456    0.944148
      3          6           0       -2.723342   -1.212636    0.189330
      4          6           0       -3.470304   -0.047103    0.025410
      5          6           0       -3.091218    1.173437    0.582066
      6          6           0       -1.912869    1.219204    1.333030
      7          1           0       -0.227654    0.111298    2.100436
      8          1           0       -0.951625   -2.040136    1.084252
      9          1           0       -3.061705   -2.136332   -0.264226
     10          1           0       -3.707219    2.050513    0.424909
     11          1           0       -1.599244    2.160366    1.775635
     12          7           0       -4.715859   -0.107948   -0.771642
     13          8           0       -5.356285    0.933054   -0.901286
     14          8           0       -5.028114   -1.195487   -1.251634
     15          6           0        3.386131   -2.472018    0.079258
     16          6           0        3.881312   -1.852605   -1.072977
     17          6           0        3.819448   -0.463115   -1.214527
     18          6           0        3.253314    0.279645   -0.179592
     19          6           0        2.751404   -0.308179    0.980512
     20          6           0        2.823749   -1.699190    1.100524
     21          1           0        3.438260   -3.551997    0.180852
     22          1           0        4.318603   -2.450275   -1.867717
     23          1           0        4.195258    0.042278   -2.095869
     24          1           0        2.321161    0.314143    1.755769
     25          1           0        2.438394   -2.177523    1.996484
     26          7           0        3.182273    1.751441   -0.318044
     27          8           0        2.678721    2.383410    0.608070
     28          8           0        3.631488    2.245197   -1.350056
 ---------------------------------------------------------------------

 SCF Done:  E(RHF) =  -868.337160945     A.U. after   16 cycles
 E2 =    -0.2600459361D+01 EUMP2 =    -0.87093762030548D+03

 The electronic state is 1-A.
 Alpha  occ. eigenvalues --  -20.61549 -20.61514 -20.60748 -20.60736 -15.86593
 Alpha  occ. eigenvalues --  -15.85797 -11.32043 -11.31180 -11.28741 -11.28557
 Alpha  occ. eigenvalues --  -11.28351 -11.27778 -11.27732 -11.27690 -11.27567
 Alpha  occ. eigenvalues --  -11.27550 -11.26857 -11.26696  -1.60602  -1.59819
 Alpha  occ. eigenvalues --   -1.40158  -1.39372  -1.20222  -1.19353  -1.09587
 Alpha  occ. eigenvalues --   -1.08760  -1.05657  -1.04752  -0.96418  -0.95593
 Alpha  occ. eigenvalues --   -0.87041  -0.86155  -0.83261  -0.82420  -0.78306
 Alpha  occ. eigenvalues --   -0.77448  -0.72814  -0.72017  -0.71922  -0.71369
 Alpha  occ. eigenvalues --   -0.71140  -0.70491  -0.65880  -0.65657  -0.65012
 Alpha  occ. eigenvalues --   -0.64763  -0.63014  -0.62095  -0.56135  -0.55331
 Alpha  occ. eigenvalues --   -0.53947  -0.53727  -0.53071  -0.52846  -0.49578
 Alpha  occ. eigenvalues --   -0.49556  -0.48777  -0.48769  -0.45547  -0.44773
 Alpha  occ. eigenvalues --   -0.38179  -0.37524  -0.37072  -0.36335
 Alpha virt. eigenvalues --    0.04209   0.05086   0.10348   0.11305   0.15656
 Alpha virt. eigenvalues --    0.16558   0.18880   0.22077   0.25147   0.26267
 Alpha virt. eigenvalues --    0.27687   0.29597   0.30034   0.30849   0.32720

 Mulliken charges:
               1
     1  C   -0.168699
     2  C   -0.217402
     3  C   -0.171461
     4  C    0.158942
     5  C   -0.170690
     6  C   -0.217015
     7  H    0.217999
     8  H    0.217071
     9  H    0.274184
    10  H    0.277272
    11  H    0.230387
    12  N    0.488039
    13  O   -0.459081
    14  O   -0.461524
    15  C   -0.170456
    16  C   -0.217524
    17  C   -0.169034
    18  C    0.161380
    19  C   -0.173275
    20  C   -0.222062
    21  H    0.228075
    22  H    0.227295
    23  H    0.278984
    24  H    0.269315
    25  H    0.220487
    26  N    0.488676
    27  O   -0.464182
    28  O   -0.455702
 Sum of Mulliken charges =  -0.00000

 Dipole moment (field-independent basis, Debye):
    X=              4.7991    Y=             -4.8621    Z=              3.0752  Tot=              7.4919
 Quadrupole moment (field-independent basis, Debye-Ang):
   XX=           -133.1026   YY=           -103.3321   ZZ=           -101.6868
   XY=            -19.4008   XZ=            -11.1742   YZ=              2.3911

 Normal termination of Gaussian 16 at Fri May  7 00:27:07 2021.
