 Gaussian 16, Revision A.03,
 Gaussian 16:  EM64L-G16RevA.03 25-Dec-2016

 -------------
 #p 6-31g* mp2
 -------------

 ------------------------------------------------------
 Input file generated by CHIRIPA (05-May-2021 14:51:10)
 ------------------------------------------------------
 Symbolic Z-matrix:
 Charge =  0 Multiplicity = 1

                         Standard orientation:
 ---------------------------------------------------------------------
 Center     Atomic      Atomic             Coordinates (Angstroms)
 Number     Number       Type             X           Y           Z
 ---------------------------------------------------------------------
      1          6           0        2.663000    1.350403    0.224690
      2          6           0        1.419462    1.555833    1.090368
      3          6           0        1.258057    3.002104    1.559455
      4          1           0        3.552329    1.654257    0.793647
      5          1           0        2.607776    2.015883   -0.647938
      6          1           0        1.476352    0.889164    1.960387
      7          1           0        0.533008    1.251274    0.519353
      8          1           0        1.175817    3.678207    0.702295
      9          1           0        2.124521    3.314040    2.151517
     10          1           0        0.362854    3.126419    2.176720
     11          6           0        2.838069   -0.090388   -0.251964
     12          6           0        4.081606   -0.295818   -1.117642
     13          6           0        4.243011   -1.742089   -1.586728
     14          1           0        2.893293   -0.755869    0.620665
     15          1           0        1.948740   -0.394242   -0.820920
     16          1           0        4.968061    0.008741   -0.546626
     17          1           0        4.024717    0.370850   -1.987660
     18          1           0        3.376548   -2.054025   -2.178790
     19          1           0        4.325251   -2.418192   -0.729569
     20          1           0        5.138215   -1.866404   -2.203994
     21          6           0       -3.429452   -0.323939   -0.156142
     22          6           0       -3.356945    0.745008   -1.247049
     23          6           0       -4.723074    1.347930   -1.575639
     24          1           0       -4.115608   -1.119839   -0.476578
     25          1           0       -3.864465    0.117170    0.751372
     26          1           0       -2.920920    0.302372   -2.151798
     27          1           0       -2.670735    1.538362   -0.924062
     28          1           0       -5.161583    1.815089   -0.687904
     29          1           0       -5.413190    0.572077   -1.922617
     30          1           0       -4.648038    2.109741   -2.357862
     31          6           0       -2.071617   -0.936076    0.183415
     32          6           0       -2.144123   -2.005023    1.274323
     33          6           0       -0.777995   -2.607945    1.602913
     34          1           0       -1.636603   -1.377185   -0.724098
     35          1           0       -1.385461   -0.140176    0.503851
     36          1           0       -2.830334   -2.798377    0.951335
     37          1           0       -2.580149   -1.562387    2.179072
     38          1           0       -0.087879   -1.832091    1.949889
     39          1           0       -0.339485   -3.075104    0.715178
     40          1           0       -0.853030   -3.369756    2.385136
 ---------------------------------------------------------------------

 SCF Done:  E(RHF) =  -470.733360718     A.U. after   11 cycles
 E2 =    -0.1583466082D+01 EUMP2 =    -0.47231682680092D+03

 The electronic state is 1-A.
 Alpha  occ. eigenvalues --  -11.21635 -11.21624 -11.21588 -11.21575 -11.21404
 Alpha  occ. eigenvalues --  -11.21391 -11.21334 -11.21321 -11.21119 -11.21085
 Alpha  occ. eigenvalues --  -11.21057 -11.21018  -1.08452  -1.08407  -1.03549
 Alpha  occ. eigenvalues --   -1.03514  -0.95991  -0.95962  -0.87010  -0.86976
 Alpha  occ. eigenvalues --   -0.79649  -0.79559  -0.78374  -0.78108  -0.65135
 Alpha  occ. eigenvalues --   -0.64995  -0.60956  -0.60908  -0.59382  -0.59312
 Alpha  occ. eigenvalues --   -0.57633  -0.57546  -0.55293  -0.55233  -0.52692
 Alpha  occ. eigenvalues --   -0.52659  -0.52443  -0.52364  -0.49986  -0.49862
 Alpha  occ. eigenvalues --   -0.48043  -0.47860  -0.46754  -0.46604  -0.46123
 Alpha  occ. eigenvalues --   -0.45724  -0.45710  -0.45195  -0.43792  -0.43770
 Alpha virt. eigenvalues --    0.20956   0.23190   0.23826   0.23979   0.25180
 Alpha virt. eigenvalues --    0.25854   0.26800   0.27848   0.28435   0.29702
 Alpha virt. eigenvalues --    0.30691   0.31396   0.31791   0.31887   0.32042

 Mulliken charges:
               1
     1  C   -0.297584
     2  C   -0.308689
     3  C   -0.475343
     4  H    0.149644
     5  H    0.149550
     6  H    0.151983
     7  H    0.159535
     8  H    0.155369
     9  H    0.155551
    10  H    0.159712
    11  C   -0.299392
    12  C   -0.299727
    13  C   -0.475639
    14  H    0.150230
    15  H    0.150937
    16  H    0.151854
    17  H    0.151835
    18  H    0.155003
    19  H    0.155460
    20  H    0.160138
    21  C   -0.297564
    22  C   -0.300042
    23  C   -0.475632
    24  H    0.149685
    25  H    0.149439
    26  H    0.151642
    27  H    0.151487
    28  H    0.155314
    29  H    0.155325
    30  H    0.160204
    31  C   -0.307471
    32  C   -0.298932
    33  C   -0.477658
    34  H    0.148601
    35  H    0.159254
    36  H    0.151740
    37  H    0.151620
    38  H    0.157487
    39  H    0.155376
    40  H    0.159696
 Sum of Mulliken charges =  -0.00000

 Dipole moment (field-independent basis, Debye):
    X=              0.0151    Y=              0.0080    Z=             -0.0003  Tot=              0.0171
 Quadrupole moment (field-independent basis, Debye-Ang):
   XX=            -85.3925   YY=            -85.5513   ZZ=            -83.8887
   XY=              0.7071   XZ=              0.3629   YZ=              0.1142

 Normal termination of Gaussian 16 at Thu May  6 05:24:16 2021.
