 Gaussian 16, Revision A.03,
 Gaussian 16:  EM64L-G16RevA.03 25-Dec-2016

 -------------
 #p 6-31g* mp2
 -------------

 ------------------------------------------------------
 Input file generated by CHIRIPA (05-May-2021 14:55:21)
 ------------------------------------------------------
 Symbolic Z-matrix:
 Charge =  0 Multiplicity = 1

                         Standard orientation:
 ---------------------------------------------------------------------
 Center     Atomic      Atomic             Coordinates (Angstroms)
 Number     Number       Type             X           Y           Z
 ---------------------------------------------------------------------
      1          6           0       -2.803955    1.885318    0.835498
      2          6           0       -2.818798    1.574369   -0.528178
      3          6           0       -2.551439    0.272682   -0.962549
      4          6           0       -2.271852   -0.697772   -0.001642
      5          6           0       -2.249567   -0.419156    1.364069
      6          6           0       -2.519888    0.889320    1.775611
      7          1           0       -3.012796    2.899137    1.164061
      8          1           0       -3.039090    2.345850   -1.260525
      9          1           0       -2.556315    0.004433   -2.012043
     10          1           0       -2.026619   -1.209535    2.070477
     11          1           0       -2.507667    1.127922    2.835311
     12          7           0       -1.987244   -2.079403   -0.449408
     13          8           0       -1.743755   -2.916366    0.417103
     14          8           0       -2.013046   -2.299200   -1.658399
     15          6           0        3.682991    0.339206   -0.150191
     16          6           0        3.882493   -1.026797    0.507244
     17          6           0        5.317941   -1.538558    0.383213
     18          1           0        3.959495    0.272219   -1.211324
     19          1           0        4.371988    1.062666    0.307282
     20          1           0        3.192353   -1.747147    0.049621
     21          1           0        3.605298   -0.956598    1.566891
     22          1           0        6.017517   -0.841963    0.856445
     23          1           0        5.602226   -1.637003   -0.669447
     24          1           0        5.438154   -2.516369    0.859967
     25          6           0        2.253033    0.864153   -0.034525
     26          6           0        2.053531    2.230156   -0.691961
     27          6           0        0.618083    2.741916   -0.567929
     28          1           0        1.564035    0.140693   -0.491999
     29          1           0        1.976528    0.931139    1.026608
     30          1           0        2.330725    2.159958   -1.751608
     31          1           0        2.743670    2.950506   -0.234338
     32          1           0        0.333797    2.840362    0.484730
     33          1           0       -0.081494    2.045322   -1.041161
     34          1           0        0.497869    3.719728   -1.044683
 ---------------------------------------------------------------------

 SCF Done:  E(RHF) =  -669.534405578     A.U. after   15 cycles
 E2 =    -0.2093474186D+01 EUMP2 =    -0.67162787976338D+03

 The electronic state is 1-A.
 Alpha  occ. eigenvalues --  -20.60812 -20.60807 -15.85867 -11.31244 -11.27789
 Alpha  occ. eigenvalues --  -11.27773 -11.27500 -11.26813 -11.26772 -11.21666
 Alpha  occ. eigenvalues --  -11.21388 -11.21363 -11.21256 -11.21185 -11.20860
 Alpha  occ. eigenvalues --   -1.59889  -1.39441  -1.19404  -1.08795  -1.08368
 Alpha  occ. eigenvalues --   -1.04812  -1.03476  -0.95947  -0.95627  -0.86977
 Alpha  occ. eigenvalues --   -0.86195  -0.82463  -0.79556  -0.78171  -0.77511
 Alpha  occ. eigenvalues --   -0.72082  -0.71213  -0.70496  -0.65054  -0.65001
 Alpha  occ. eigenvalues --   -0.64803  -0.62151  -0.60885  -0.59328  -0.57588
 Alpha  occ. eigenvalues --   -0.55312  -0.55248  -0.53416  -0.52895  -0.52640
 Alpha  occ. eigenvalues --   -0.52122  -0.49888  -0.48843  -0.48837  -0.47819
 Alpha  occ. eigenvalues --   -0.46584  -0.45705  -0.45626  -0.44845  -0.43742
 Alpha  occ. eigenvalues --   -0.37324  -0.36317
 Alpha virt. eigenvalues --    0.04989   0.11194   0.16450   0.21277   0.22906
 Alpha virt. eigenvalues --    0.24358   0.26604   0.27128   0.27506   0.28026
 Alpha virt. eigenvalues --    0.28443   0.30850   0.31584   0.31736   0.32063

 Mulliken charges:
               1
     1  C   -0.166642
     2  C   -0.215802
     3  C   -0.174670
     4  C    0.160734
     5  C   -0.170460
     6  C   -0.218945
     7  H    0.226056
     8  H    0.224565
     9  H    0.275593
    10  H    0.275779
    11  H    0.223515
    12  N    0.487716
    13  O   -0.460024
    14  O   -0.460770
    15  C   -0.298316
    16  C   -0.300629
    17  C   -0.475798
    18  H    0.150489
    19  H    0.148000
    20  H    0.157611
    21  H    0.150372
    22  H    0.153419
    23  H    0.155668
    24  H    0.161506
    25  C   -0.297570
    26  C   -0.299482
    27  C   -0.478853
    28  H    0.151298
    29  H    0.147231
    30  H    0.152310
    31  H    0.150526
    32  H    0.151105
    33  H    0.160297
    34  H    0.154170
 Sum of Mulliken charges =  -0.00000

 Dipole moment (field-independent basis, Debye):
    X=             -1.0927    Y=              4.7817    Z=              1.5916  Tot=              5.1567
 Quadrupole moment (field-independent basis, Debye-Ang):
   XX=            -91.8220   YY=           -102.1452   ZZ=            -89.5265
   XY=            -10.5076   XZ=             -2.8232   YZ=             -2.1758

 Normal termination of Gaussian 16 at Thu May  6 04:34:16 2021.
