 Gaussian 16, Revision A.03,
 Gaussian 16:  EM64L-G16RevA.03 25-Dec-2016

 -------------
 #p 6-31g* mp2
 -------------

 ------------------------------------------------------
 Input file generated by CHIRIPA (05-May-2021 14:51:07)
 ------------------------------------------------------
 Symbolic Z-matrix:
 Charge =  0 Multiplicity = 1

                         Standard orientation:
 ---------------------------------------------------------------------
 Center     Atomic      Atomic             Coordinates (Angstroms)
 Number     Number       Type             X           Y           Z
 ---------------------------------------------------------------------
      1          6           0        3.816049   -0.132209    0.003495
      2          6           0        3.202447   -1.468328   -0.416342
      3          6           0        4.162714   -2.643776   -0.231941
      4          1           0        4.729868    0.043936   -0.580331
      5          1           0        4.124648   -0.193087    1.056327
      6          1           0        2.893837   -1.404491   -1.467674
      7          1           0        2.289879   -1.641222    0.168416
      8          1           0        4.461836   -2.735933    0.817170
      9          1           0        5.069226   -2.497857   -0.828217
     10          1           0        3.703724   -3.588990   -0.538142
     11          6           0        2.868192    1.052459   -0.174991
     12          6           0        3.481795    2.388579    0.244846
     13          6           0        2.521528    3.564027    0.060445
     14          1           0        2.559594    1.113338   -1.227823
     15          1           0        1.954374    0.876315    0.408836
     16          1           0        4.394363    2.561473   -0.339912
     17          1           0        3.790405    2.324742    1.296179
     18          1           0        1.615016    3.418108    0.656721
     19          1           0        2.222405    3.656184   -0.988666
     20          1           0        2.980517    4.509241    0.366646
     21          6           0       -3.917756   -0.039244    0.359491
     22          6           0       -4.965185    0.315452   -0.696477
     23          6           0       -6.110446    1.157658   -0.133573
     24          1           0       -4.404252   -0.581964    1.181514
     25          1           0       -3.514798    0.887097    0.791826
     26          1           0       -5.365050   -0.611259   -1.127672
     27          1           0       -4.476104    0.857224   -1.516172
     28          1           0       -5.730463    2.097621    0.279565
     29          1           0       -6.624461    0.620794    0.670273
     30          1           0       -6.847716    1.399779   -0.905371
     31          6           0       -2.766486   -0.881007   -0.187996
     32          6           0       -1.719057   -1.235703    0.867973
     33          6           0       -0.573796   -2.077909    0.305069
     34          1           0       -3.169444   -1.807348   -0.620331
     35          1           0       -2.279990   -0.338287   -1.010018
     36          1           0       -2.208138   -1.777475    1.687668
     37          1           0       -1.319192   -0.308992    1.299167
     38          1           0       -0.059781   -1.541045   -0.498776
     39          1           0       -0.953778   -3.017872   -0.108070
     40          1           0        0.163474   -2.320030    1.076866
 ---------------------------------------------------------------------

 SCF Done:  E(RHF) =  -470.732442383     A.U. after   11 cycles
 E2 =    -0.1583272997D+01 EUMP2 =    -0.47231571538013D+03

 The electronic state is 1-A.
 Alpha  occ. eigenvalues --  -11.21626 -11.21606 -11.21604 -11.21421 -11.21417
 Alpha  occ. eigenvalues --  -11.21383 -11.21357 -11.21300 -11.21089 -11.21074
 Alpha  occ. eigenvalues --  -11.21063 -11.20988  -1.08449  -1.08386  -1.03564
 Alpha  occ. eigenvalues --   -1.03467  -0.96007  -0.95938  -0.87055  -0.86931
 Alpha  occ. eigenvalues --   -0.79721  -0.79459  -0.78282  -0.78172  -0.65120
 Alpha  occ. eigenvalues --   -0.64989  -0.61020  -0.60844  -0.59431  -0.59249
 Alpha  occ. eigenvalues --   -0.57610  -0.57550  -0.55300  -0.55231  -0.52768
 Alpha  occ. eigenvalues --   -0.52613  -0.52424  -0.52349  -0.50023  -0.49839
 Alpha  occ. eigenvalues --   -0.47954  -0.47833  -0.46752  -0.46482  -0.45866
 Alpha  occ. eigenvalues --   -0.45740  -0.45687  -0.45523  -0.43777  -0.43697
 Alpha virt. eigenvalues --    0.21461   0.23187   0.23936   0.24341   0.26247
 Alpha virt. eigenvalues --    0.26417   0.27101   0.27602   0.27873   0.29465
 Alpha virt. eigenvalues --    0.30422   0.31150   0.31652   0.31877   0.32091

 Mulliken charges:
               1
     1  C   -0.297442
     2  C   -0.308644
     3  C   -0.475348
     4  H    0.149126
     5  H    0.148873
     6  H    0.150131
     7  H    0.164528
     8  H    0.154322
     9  H    0.154554
    10  H    0.160199
    11  C   -0.299442
    12  C   -0.299514
    13  C   -0.475640
    14  H    0.148932
    15  H    0.149974
    16  H    0.152156
    17  H    0.151986
    18  H    0.154716
    19  H    0.155024
    20  H    0.160354
    21  C   -0.298317
    22  C   -0.299679
    23  C   -0.475721
    24  H    0.149627
    25  H    0.149541
    26  H    0.151917
    27  H    0.152064
    28  H    0.155244
    29  H    0.155149
    30  H    0.160291
    31  C   -0.298781
    32  C   -0.299827
    33  C   -0.480267
    34  H    0.149602
    35  H    0.150241
    36  H    0.151908
    37  H    0.151466
    38  H    0.160899
    39  H    0.155281
    40  H    0.160518
 Sum of Mulliken charges =  -0.00000

 Dipole moment (field-independent basis, Debye):
    X=             -0.0420    Y=             -0.0175    Z=             -0.0009  Tot=              0.0455
 Quadrupole moment (field-independent basis, Debye-Ang):
   XX=            -85.7804   YY=            -85.3243   ZZ=            -83.9190
   XY=              1.6390   XZ=             -0.2162   YZ=             -0.4200

 Normal termination of Gaussian 16 at Wed May  5 15:00:38 2021.
