 Gaussian 16, Revision A.03,
 Gaussian 16:  EM64L-G16RevA.03 25-Dec-2016

 -------------
 #p 6-31g* mp2
 -------------

 ------------------------------------------------------
 Input file generated by CHIRIPA (05-May-2021 14:55:24)
 ------------------------------------------------------
 Symbolic Z-matrix:
 Charge =  0 Multiplicity = 1

                         Standard orientation:
 ---------------------------------------------------------------------
 Center     Atomic      Atomic             Coordinates (Angstroms)
 Number     Number       Type             X           Y           Z
 ---------------------------------------------------------------------
      1          6           0       -0.839520   -1.984197    0.104640
      2          6           0       -1.856491   -2.167532   -0.838058
      3          6           0       -2.978767   -1.333853   -0.842993
      4          6           0       -3.051822   -0.322292    0.113404
      5          6           0       -2.055106   -0.114355    1.065564
      6          6           0       -0.941893   -0.959999    1.051772
      7          1           0        0.028771   -2.636467    0.101200
      8          1           0       -1.779664   -2.962117   -1.574792
      9          1           0       -3.780645   -1.453482   -1.561393
     10          1           0       -2.159895    0.686373    1.787555
     11          1           0       -0.153627   -0.815281    1.785080
     12          7           0       -4.235128    0.566621    0.118092
     13          8           0       -4.275678    1.450508    0.971167
     14          8           0       -5.099648    0.362631   -0.731397
     15          6           0        3.238748    1.103629   -0.538072
     16          6           0        1.844901    1.326341    0.049785
     17          6           0        1.020799    2.336385   -0.749252
     18          1           0        3.770902    2.063949   -0.577354
     19          1           0        3.140204    0.758180   -1.576508
     20          1           0        1.946021    1.669943    1.087248
     21          1           0        1.316072    0.365348    0.087850
     22          1           0        0.890368    1.996358   -1.781711
     23          1           0        1.523895    3.308365   -0.776634
     24          1           0        0.028070    2.480421   -0.311529
     25          6           0        4.074659    0.096486    0.249736
     26          6           0        5.468505   -0.126225   -0.338123
     27          6           0        6.292607   -1.136269    0.460916
     28          1           0        4.173203    0.441936    1.288171
     29          1           0        3.542505   -0.863833    0.289017
     30          1           0        5.997333    0.834768   -0.376187
     31          1           0        5.367385   -0.469827   -1.375585
     32          1           0        5.789511   -2.108250    0.488297
     33          1           0        6.423039   -0.796242    1.493374
     34          1           0        7.285337   -1.280305    0.023191
 ---------------------------------------------------------------------

 SCF Done:  E(RHF) =  -669.534835752     A.U. after   15 cycles
 E2 =    -0.2092930286D+01 EUMP2 =    -0.67162776603778D+03

 The electronic state is 1-A.
 Alpha  occ. eigenvalues --  -20.60806 -20.60801 -15.85859 -11.31255 -11.27800
 Alpha  occ. eigenvalues --  -11.27796 -11.27550 -11.26842 -11.26812 -11.22124
 Alpha  occ. eigenvalues --  -11.22030 -11.22008 -11.21852 -11.21576 -11.21339
 Alpha  occ. eigenvalues --   -1.59880  -1.39433  -1.19423  -1.08961  -1.08811
 Alpha  occ. eigenvalues --   -1.04832  -1.03989  -0.96430  -0.95645  -0.87444
 Alpha  occ. eigenvalues --   -0.86229  -0.82474  -0.80080  -0.78803  -0.77508
 Alpha  occ. eigenvalues --   -0.72077  -0.71203  -0.70524  -0.65612  -0.65072
 Alpha  occ. eigenvalues --   -0.64822  -0.62187  -0.61389  -0.59808  -0.58065
 Alpha  occ. eigenvalues --   -0.55728  -0.55323  -0.53239  -0.53011  -0.52945
 Alpha  occ. eigenvalues --   -0.52819  -0.50369  -0.48844  -0.48831  -0.48375
 Alpha  occ. eigenvalues --   -0.47115  -0.46324  -0.46258  -0.44832  -0.44258
 Alpha  occ. eigenvalues --   -0.37361  -0.36363
 Alpha virt. eigenvalues --    0.04989   0.11117   0.16460   0.20646   0.22594
 Alpha virt. eigenvalues --    0.23900   0.25783   0.26193   0.27088   0.28062
 Alpha virt. eigenvalues --    0.29100   0.30482   0.31047   0.31428   0.31896

 Mulliken charges:
               1
     1  C   -0.172140
     2  C   -0.217893
     3  C   -0.171097
     4  C    0.158954
     5  C   -0.172676
     6  C   -0.215902
     7  H    0.225849
     8  H    0.223695
     9  H    0.275809
    10  H    0.275915
    11  H    0.227072
    12  N    0.488066
    13  O   -0.460252
    14  O   -0.460087
    15  C   -0.297586
    16  C   -0.306575
    17  C   -0.475060
    18  H    0.152038
    19  H    0.149998
    20  H    0.147988
    21  H    0.152237
    22  H    0.156321
    23  H    0.156787
    24  H    0.162255
    25  C   -0.297017
    26  C   -0.299835
    27  C   -0.475736
    28  H    0.149678
    29  H    0.141488
    30  H    0.154344
    31  H    0.152354
    32  H    0.152993
    33  H    0.155832
    34  H    0.162180
 Sum of Mulliken charges =  -0.00000

 Dipole moment (field-independent basis, Debye):
    X=              4.1574    Y=             -3.1024    Z=             -0.0542  Tot=              5.1876
 Quadrupole moment (field-independent basis, Debye-Ang):
   XX=           -120.2855   YY=            -91.8759   ZZ=            -91.9019
   XY=             10.2623   XZ=              2.0097   YZ=              2.6522

 Normal termination of Gaussian 16 at Thu May  6 07:54:50 2021.
