 Gaussian 16, Revision A.03,
 Gaussian 16:  EM64L-G16RevA.03 25-Dec-2016

 -------------
 #p 6-31g* mp2
 -------------

 ------------------------------------------------------
 Input file generated by CHIRIPA (05-May-2021 14:57:25)
 ------------------------------------------------------
 Symbolic Z-matrix:
 Charge =  0 Multiplicity = 1

                         Standard orientation:
 ---------------------------------------------------------------------
 Center     Atomic      Atomic             Coordinates (Angstroms)
 Number     Number       Type             X           Y           Z
 ---------------------------------------------------------------------
      1          6           0       -3.942758    2.073047    0.496015
      2          6           0       -4.650053    0.888160    0.267324
      3          6           0       -3.982219   -0.269412   -0.143251
      4          6           0       -2.600412   -0.206156   -0.316162
      5          6           0       -1.867705    0.959224   -0.096341
      6          6           0       -2.556286    2.104741    0.313774
      7          1           0       -4.469606    2.967595    0.814781
      8          1           0       -5.726845    0.860616    0.408055
      9          1           0       -4.505066   -1.200082   -0.327379
     10          1           0       -0.794725    0.955807   -0.245067
     11          1           0       -2.004402    3.023538    0.490636
     12          7           0       -1.882425   -1.425245   -0.750576
     13          8           0       -0.664697   -1.343450   -0.895787
     14          8           0       -2.550989   -2.439478   -0.937633
     15          6           0        3.707553    1.522163   -1.512452
     16          6           0        3.415383    0.189750   -1.822022
     17          6           0        2.867323   -0.659789   -0.856382
     18          6           0        2.623151   -0.141416    0.414428
     19          6           0        2.903349    1.181392    0.753483
     20          6           0        3.451056    2.012867   -0.227951
     21          1           0        4.133162    2.175089   -2.268719
     22          1           0        3.613530   -0.194062   -2.818753
     23          1           0        2.631519   -1.695454   -1.069020
     24          1           0        2.694733    1.535271    1.755814
     25          1           0        3.676950    3.047201    0.015296
     26          7           0        2.043131   -1.031223    1.445068
     27          8           0        1.837382   -0.550284    2.557274
     28          8           0        1.805245   -2.192745    1.121163
 ---------------------------------------------------------------------

 SCF Done:  E(RHF) =  -868.337797126     A.U. after   16 cycles
 E2 =    -0.2601459887D+01 EUMP2 =    -0.87093925701318D+03

 The electronic state is 1-A.
 Alpha  occ. eigenvalues --  -20.60501 -20.60492 -20.60111 -20.59973 -15.85548
 Alpha  occ. eigenvalues --  -15.85090 -11.30948 -11.30651 -11.27542 -11.27517
 Alpha  occ. eigenvalues --  -11.27365 -11.27294 -11.27121 -11.27083 -11.26577
 Alpha  occ. eigenvalues --  -11.26551 -11.26402 -11.26236  -1.59550  -1.59107
 Alpha  occ. eigenvalues --   -1.39115  -1.38649  -1.19127  -1.18861  -1.08518
 Alpha  occ. eigenvalues --   -1.08224  -1.04545  -1.04284  -0.95352  -0.95019
 Alpha  occ. eigenvalues --   -0.85946  -0.85669  -0.82199  -0.81847  -0.77245
 Alpha  occ. eigenvalues --   -0.76843  -0.71836  -0.71320  -0.70902  -0.70329
 Alpha  occ. eigenvalues --   -0.70251  -0.69962  -0.64795  -0.64565  -0.64503
 Alpha  occ. eigenvalues --   -0.64290  -0.61904  -0.61607  -0.55058  -0.54804
 Alpha  occ. eigenvalues --   -0.52859  -0.52727  -0.52544  -0.52371  -0.48544
 Alpha  occ. eigenvalues --   -0.48521  -0.48116  -0.48038  -0.44657  -0.43836
 Alpha  occ. eigenvalues --   -0.37107  -0.36870  -0.36142  -0.35889
 Alpha virt. eigenvalues --    0.05324   0.05698   0.11502   0.11750   0.16774
 Alpha virt. eigenvalues --    0.17145   0.21520   0.21849   0.27325   0.27750
 Alpha virt. eigenvalues --    0.28279   0.28806   0.30834   0.31399   0.32399

 Mulliken charges:
               1
     1  C   -0.170634
     2  C   -0.218432
     3  C   -0.170129
     4  C    0.160254
     5  C   -0.169643
     6  C   -0.218033
     7  H    0.224509
     8  H    0.222939
     9  H    0.275809
    10  H    0.272836
    11  H    0.220915
    12  N    0.492164
    13  O   -0.465233
    14  O   -0.458614
    15  C   -0.172304
    16  C   -0.220919
    17  C   -0.158029
    18  C    0.157794
    19  C   -0.179087
    20  C   -0.221313
    21  H    0.222979
    22  H    0.223897
    23  H    0.285652
    24  H    0.271853
    25  H    0.219078
    26  N    0.488384
    27  O   -0.470373
    28  O   -0.446320
 Sum of Mulliken charges =  -0.00000

 Dipole moment (field-independent basis, Debye):
    X=             -0.5950    Y=              6.9945    Z=             -2.2193  Tot=              7.3622
 Quadrupole moment (field-independent basis, Debye-Ang):
   XX=            -78.4518   YY=           -104.0833   ZZ=           -108.2415
   XY=             -0.9049   XZ=            -12.2997   YZ=              3.1469

 Normal termination of Gaussian 16 at Thu May  6 09:52:53 2021.
