 Gaussian 16, Revision A.03,
 Gaussian 16:  EM64L-G16RevA.03 25-Dec-2016

 -------------
 #p 6-31g* mp2
 -------------

 ------------------------------------------------------
 Input file generated by CHIRIPA (05-May-2021 14:51:09)
 ------------------------------------------------------
 Symbolic Z-matrix:
 Charge =  0 Multiplicity = 1

                         Standard orientation:
 ---------------------------------------------------------------------
 Center     Atomic      Atomic             Coordinates (Angstroms)
 Number     Number       Type             X           Y           Z
 ---------------------------------------------------------------------
      1          6           0       -3.512701   -0.204813   -0.206506
      2          6           0       -2.893987   -1.330514   -1.035947
      3          6           0       -3.725990   -2.612957   -1.005833
      4          1           0       -3.628483   -0.544165    0.831945
      5          1           0       -4.524117    0.004292   -0.581617
      6          1           0       -1.883514   -1.536490   -0.660270
      7          1           0       -2.779488   -0.988375   -2.072503
      8          1           0       -4.730724   -2.429677   -1.400192
      9          1           0       -3.829659   -2.980906    0.020065
     10          1           0       -3.265439   -3.404465   -1.605224
     11          6           0       -2.692469    1.083806   -0.226755
     12          6           0       -3.311183    2.209508    0.602687
     13          6           0       -2.479180    3.491950    0.572573
     14          1           0       -1.681053    0.874702    0.148356
     15          1           0       -2.576687    1.423159   -1.265205
     16          1           0       -3.425682    1.867369    1.639242
     17          1           0       -4.321656    2.415483    0.227010
     18          1           0       -2.375511    3.859899   -0.453326
     19          1           0       -1.474446    3.308671    0.966931
     20          1           0       -2.939731    4.283458    1.171963
     21          6           0        2.511839   -0.920029    0.157137
     22          6           0        1.944182   -1.353407    1.509148
     23          6           0        0.762890   -2.314643    1.373611
     24          1           0        1.715919   -0.444321   -0.432065
     25          1           0        2.825674   -1.811346   -0.403627
     26          1           0        1.632786   -0.461442    2.067761
     27          1           0        2.741592   -1.827968    2.095275
     28          1           0        1.063451   -3.221361    0.838704
     29          1           0       -0.051655   -1.847072    0.811033
     30          1           0        0.372633   -2.611598    2.352068
     31          6           0        3.693332    0.041035    0.276123
     32          6           0        4.260988    0.474414   -1.075888
     33          6           0        5.442280    1.435649   -0.940351
     34          1           0        3.379497    0.932353    0.836888
     35          1           0        4.489250   -0.434673    0.865325
     36          1           0        3.463578    0.948974   -1.662014
     37          1           0        4.572384   -0.417551   -1.634499
     38          1           0        6.256825    0.968078   -0.377772
     39          1           0        5.141719    2.342368   -0.405443
     40          1           0        5.832537    1.732605   -1.918807
 ---------------------------------------------------------------------

 SCF Done:  E(RHF) =  -470.733372241     A.U. after   11 cycles
 E2 =    -0.1582847941D+01 EUMP2 =    -0.47231622018221D+03

 The electronic state is 1-A.
 Alpha  occ. eigenvalues --  -11.21645 -11.21632 -11.21605 -11.21588 -11.21437
 Alpha  occ. eigenvalues --  -11.21425 -11.21369 -11.21365 -11.21119 -11.21106
 Alpha  occ. eigenvalues --  -11.21072 -11.21050  -1.08462  -1.08443  -1.03566
 Alpha  occ. eigenvalues --   -1.03533  -0.96008  -0.95989  -0.87036  -0.86996
 Alpha  occ. eigenvalues --   -0.79662  -0.79567  -0.78300  -0.78231  -0.65173
 Alpha  occ. eigenvalues --   -0.65008  -0.61058  -0.60851  -0.59386  -0.59347
 Alpha  occ. eigenvalues --   -0.57637  -0.57580  -0.55316  -0.55263  -0.52699
 Alpha  occ. eigenvalues --   -0.52686  -0.52462  -0.52393  -0.50051  -0.49857
 Alpha  occ. eigenvalues --   -0.48048  -0.47844  -0.46801  -0.46512  -0.45939
 Alpha  occ. eigenvalues --   -0.45779  -0.45752  -0.45486  -0.43809  -0.43799
 Alpha virt. eigenvalues --    0.20220   0.23153   0.23923   0.24421   0.25685
 Alpha virt. eigenvalues --    0.26942   0.27154   0.27749   0.27989   0.29125
 Alpha virt. eigenvalues --    0.30735   0.31667   0.31721   0.31885   0.32013

 Mulliken charges:
               1
     1  C   -0.297844
     2  C   -0.308107
     3  C   -0.475147
     4  H    0.149935
     5  H    0.149737
     6  H    0.159362
     7  H    0.151974
     8  H    0.155005
     9  H    0.155538
    10  H    0.160438
    11  C   -0.299204
    12  C   -0.299660
    13  C   -0.475675
    14  H    0.148816
    15  H    0.149794
    16  H    0.152184
    17  H    0.152220
    18  H    0.155207
    19  H    0.154788
    20  H    0.160453
    21  C   -0.298885
    22  C   -0.299122
    23  C   -0.484025
    24  H    0.150008
    25  H    0.149730
    26  H    0.151444
    27  H    0.152263
    28  H    0.155780
    29  H    0.162216
    30  H    0.160430
    31  C   -0.298274
    32  C   -0.299747
    33  C   -0.475735
    34  H    0.149470
    35  H    0.149709
    36  H    0.152274
    37  H    0.151939
    38  H    0.155136
    39  H    0.155256
    40  H    0.160318
 Sum of Mulliken charges =  -0.00000

 Dipole moment (field-independent basis, Debye):
    X=             -0.0009    Y=             -0.0094    Z=             -0.0035  Tot=              0.0101
 Quadrupole moment (field-independent basis, Debye-Ang):
   XX=            -85.0242   YY=            -85.4940   ZZ=            -84.1279
   XY=             -1.7949   XZ=              0.4418   YZ=             -0.3123

 Normal termination of Gaussian 16 at Wed May  5 22:58:05 2021.
