 Gaussian 16, Revision A.03,
 Gaussian 16:  EM64L-G16RevA.03 25-Dec-2016

 -------------
 #p 6-31g* mp2
 -------------

 ------------------------------------------------------
 Input file generated by CHIRIPA (05-May-2021 14:57:21)
 ------------------------------------------------------
 Symbolic Z-matrix:
 Charge =  0 Multiplicity = 1

                         Standard orientation:
 ---------------------------------------------------------------------
 Center     Atomic      Atomic             Coordinates (Angstroms)
 Number     Number       Type             X           Y           Z
 ---------------------------------------------------------------------
      1          6           0       -3.532287    2.122863    0.525010
      2          6           0       -4.297401    0.960954    0.670224
      3          6           0       -3.765795   -0.286417    0.329622
      4          6           0       -2.459774   -0.335411   -0.155353
      5          6           0       -1.672374    0.804309   -0.311334
      6          6           0       -2.224521    2.040977    0.035558
      7          1           0       -3.953229    3.087694    0.792041
      8          1           0       -5.313312    1.021533    1.050092
      9          1           0       -4.335975   -1.201740    0.432070
     10          1           0       -0.662646    0.712157   -0.692616
     11          1           0       -1.628002    2.941674   -0.078263
     12          7           0       -1.886114   -1.650281   -0.519262
     13          8           0       -0.732990   -1.666629   -0.944321
     14          8           0       -2.600465   -2.639631   -0.372545
     15          6           0        2.598931    2.529298   -0.648243
     16          6           0        2.477455    1.506831   -1.594988
     17          6           0        2.451656    0.167652   -1.194385
     18          6           0        2.550008   -0.114343    0.167267
     19          6           0        2.672017    0.882012    1.134574
     20          6           0        2.695653    2.214181    0.711119
     21          1           0        2.618133    3.566883   -0.968317
     22          1           0        2.402156    1.748600   -2.651361
     23          1           0        2.358478   -0.643633   -1.906109
     24          1           0        2.745145    0.609854    2.180519
     25          1           0        2.790084    3.006175    1.448597
     26          7           0        2.523840   -1.528361    0.603463
     27          8           0        2.612120   -1.750499    1.809074
     28          8           0        2.415544   -2.387756   -0.268517
 ---------------------------------------------------------------------

 SCF Done:  E(RHF) =  -868.336890190     A.U. after   16 cycles
 E2 =    -0.2602914527D+01 EUMP2 =    -0.87093980471649D+03

 The electronic state is 1-A.
 Alpha  occ. eigenvalues --  -20.60536 -20.60519 -20.60167 -20.60028 -15.85585
 Alpha  occ. eigenvalues --  -15.85158 -11.31093 -11.31011 -11.27683 -11.27681
 Alpha  occ. eigenvalues --  -11.27664 -11.27581 -11.27561 -11.27490 -11.26815
 Alpha  occ. eigenvalues --  -11.26786 -11.26773 -11.26733  -1.59594  -1.59147
 Alpha  occ. eigenvalues --   -1.39153  -1.38687  -1.19299  -1.19267  -1.08665
 Alpha  occ. eigenvalues --   -1.08572  -1.04741  -1.04710  -0.95474  -0.95309
 Alpha  occ. eigenvalues --   -0.86116  -0.86086  -0.82313  -0.82134  -0.77351
 Alpha  occ. eigenvalues --   -0.77061  -0.71850  -0.71381  -0.70960  -0.70419
 Alpha  occ. eigenvalues --   -0.70366  -0.70347  -0.64956  -0.64885  -0.64739
 Alpha  occ. eigenvalues --   -0.64710  -0.62080  -0.62027  -0.55247  -0.55232
 Alpha  occ. eigenvalues --   -0.53231  -0.53035  -0.52794  -0.52639  -0.48564
 Alpha  occ. eigenvalues --   -0.48546  -0.48189  -0.48092  -0.44612  -0.43877
 Alpha  occ. eigenvalues --   -0.37331  -0.37272  -0.36420  -0.36274
 Alpha virt. eigenvalues --    0.05203   0.05459   0.11262   0.11328   0.16640
 Alpha virt. eigenvalues --    0.16846   0.21249   0.21541   0.27133   0.27345
 Alpha virt. eigenvalues --    0.28153   0.28450   0.30827   0.31004   0.32305

 Mulliken charges:
               1
     1  C   -0.170974
     2  C   -0.218882
     3  C   -0.169785
     4  C    0.158013
     5  C   -0.175000
     6  C   -0.220679
     7  H    0.223891
     8  H    0.223254
     9  H    0.276570
    10  H    0.279044
    11  H    0.219018
    12  N    0.489366
    13  O   -0.461609
    14  O   -0.457302
    15  C   -0.177264
    16  C   -0.226112
    17  C   -0.169071
    18  C    0.161489
    19  C   -0.172560
    20  C   -0.221026
    21  H    0.222838
    22  H    0.224070
    23  H    0.285609
    24  H    0.276233
    25  H    0.221471
    26  N    0.489839
    27  O   -0.466123
    28  O   -0.444316
 Sum of Mulliken charges =  -0.00000

 Dipole moment (field-independent basis, Debye):
    X=             -1.8658    Y=              9.1273    Z=             -0.3476  Tot=              9.3226
 Quadrupole moment (field-independent basis, Debye-Ang):
   XX=            -91.6473   YY=           -108.9037   ZZ=           -101.7771
   XY=              3.8599   XZ=             -7.9906   YZ=              1.0901

 Normal termination of Gaussian 16 at Wed May  5 20:58:12 2021.
