 Gaussian 16, Revision A.03,
 Gaussian 16:  EM64L-G16RevA.03 25-Dec-2016

 -------------
 #p 6-31g* mp2
 -------------

 ------------------------------------------------------
 Input file generated by CHIRIPA (05-May-2021 14:51:10)
 ------------------------------------------------------
 Symbolic Z-matrix:
 Charge =  0 Multiplicity = 1

                         Standard orientation:
 ---------------------------------------------------------------------
 Center     Atomic      Atomic             Coordinates (Angstroms)
 Number     Number       Type             X           Y           Z
 ---------------------------------------------------------------------
      1          6           0        3.642764    0.112545   -0.308408
      2          6           0        5.165068    0.097245   -0.165790
      3          6           0        5.879968    0.649211   -1.399502
      4          1           0        3.357751   -0.474324   -1.192319
      5          1           0        3.309404    1.142573   -0.496311
      6          1           0        5.495330   -0.932240    0.023164
      7          1           0        5.446479    0.684060    0.717993
      8          1           0        5.579018    1.684828   -1.587992
      9          1           0        5.628147    0.059345   -2.286770
     10          1           0        6.967262    0.628999   -1.276041
     11          6           0        2.913957   -0.436235    0.916912
     12          6           0        1.391653   -0.420935    0.774293
     13          6           0        0.676753   -0.972902    2.008005
     14          1           0        3.247317   -1.466263    1.104814
     15          1           0        3.198970    0.150634    1.800822
     16          1           0        1.110242   -1.007750   -0.109490
     17          1           0        1.061391    0.608550    0.585339
     18          1           0        0.928574   -0.383035    2.895273
     19          1           0        0.977703   -2.008518    2.196496
     20          1           0       -0.410541   -0.952690    1.884544
     21          6           0       -2.923000   -0.495521   -0.462430
     22          6           0       -3.860611   -1.703263   -0.477726
     23          6           0       -3.134969   -3.010997   -0.795636
     24          1           0       -2.426022   -0.412788   -1.438705
     25          1           0       -2.129746   -0.665314    0.278727
     26          1           0       -4.652651   -1.530639   -1.217651
     27          1           0       -4.355558   -1.783017    0.498636
     28          1           0       -2.356397   -3.210134   -0.052150
     29          1           0       -2.655177   -2.956322   -1.778189
     30          1           0       -3.824010   -3.861321   -0.801401
     31          6           0       -3.633721    0.819211   -0.146073
     32          6           0       -2.696111    2.026953   -0.130778
     33          6           0       -3.421752    3.334687    0.187133
     34          1           0       -4.426975    0.989004   -0.887231
     35          1           0       -4.130699    0.736478    0.830202
     36          1           0       -2.201163    2.106707   -1.107139
     37          1           0       -1.904070    1.854329    0.609148
     38          1           0       -3.901544    3.280012    1.169686
     39          1           0       -4.200324    3.533824   -0.556353
     40          1           0       -2.732711    4.185010    0.192898
 ---------------------------------------------------------------------

 SCF Done:  E(RHF) =  -470.733347796     A.U. after   11 cycles
 E2 =    -0.1583097632D+01 EUMP2 =    -0.47231644542812D+03

 The electronic state is 1-A.
 Alpha  occ. eigenvalues --  -11.21603 -11.21600 -11.21597 -11.21596 -11.21404
 Alpha  occ. eigenvalues --  -11.21395 -11.21345 -11.21332 -11.21108 -11.21075
 Alpha  occ. eigenvalues --  -11.21070 -11.21069  -1.08447  -1.08414  -1.03541
 Alpha  occ. eigenvalues --   -1.03525  -0.96009  -0.95962  -0.87023  -0.86981
 Alpha  occ. eigenvalues --   -0.79609  -0.79575  -0.78291  -0.78193  -0.65083
 Alpha  occ. eigenvalues --   -0.65058  -0.60970  -0.60892  -0.59400  -0.59325
 Alpha  occ. eigenvalues --   -0.57695  -0.57509  -0.55276  -0.55265  -0.52739
 Alpha  occ. eigenvalues --   -0.52661  -0.52472  -0.52332  -0.49934  -0.49911
 Alpha  occ. eigenvalues --   -0.47973  -0.47861  -0.46657  -0.46586  -0.45843
 Alpha  occ. eigenvalues --   -0.45717  -0.45714  -0.45652  -0.43788  -0.43765
 Alpha virt. eigenvalues --    0.20435   0.23124   0.23892   0.24152   0.26129
 Alpha virt. eigenvalues --    0.26648   0.26798   0.27749   0.27928   0.29522
 Alpha virt. eigenvalues --    0.30050   0.31419   0.31658   0.31907   0.32250

 Mulliken charges:
               1
     1  C   -0.298287
     2  C   -0.299664
     3  C   -0.475711
     4  H    0.149751
     5  H    0.149629
     6  H    0.151937
     7  H    0.151911
     8  H    0.155179
     9  H    0.155186
    10  H    0.160246
    11  C   -0.298441
    12  C   -0.300524
    13  C   -0.481853
    14  H    0.149555
    15  H    0.149546
    16  H    0.153151
    17  H    0.153278
    18  H    0.155379
    19  H    0.155491
    20  H    0.163820
    21  C   -0.307931
    22  C   -0.299098
    23  C   -0.476113
    24  H    0.149904
    25  H    0.158922
    26  H    0.151978
    27  H    0.151741
    28  H    0.155473
    29  H    0.155015
    30  H    0.160290
    31  C   -0.297769
    32  C   -0.301207
    33  C   -0.475692
    34  H    0.149630
    35  H    0.149396
    36  H    0.152181
    37  H    0.153111
    38  H    0.155219
    39  H    0.155282
    40  H    0.160090
 Sum of Mulliken charges =  -0.00000

 Dipole moment (field-independent basis, Debye):
    X=              0.0070    Y=              0.0009    Z=             -0.0086  Tot=              0.0111
 Quadrupole moment (field-independent basis, Debye-Ang):
   XX=            -85.3898   YY=            -85.0766   ZZ=            -84.3461
   XY=              0.0870   XZ=              0.7712   YZ=              0.3249

 Normal termination of Gaussian 16 at Wed May  5 16:42:59 2021.
