 Gaussian 16, Revision A.03,
 Gaussian 16:  EM64L-G16RevA.03 25-Dec-2016

 -------------
 #p 6-31g* mp2
 -------------

 ------------------------------------------------------
 Input file generated by CHIRIPA (05-May-2021 14:55:25)
 ------------------------------------------------------
 Symbolic Z-matrix:
 Charge =  0 Multiplicity = 1

                         Standard orientation:
 ---------------------------------------------------------------------
 Center     Atomic      Atomic             Coordinates (Angstroms)
 Number     Number       Type             X           Y           Z
 ---------------------------------------------------------------------
      1          6           0        0.649846   -1.137640   -0.261955
      2          6           0        0.769675    0.242930   -0.071720
      3          6           0        2.029658    0.835738    0.053053
      4          6           0        3.153749    0.014319   -0.017515
      5          6           0        3.067062   -1.364137   -0.206284
      6          6           0        1.796899   -1.935361   -0.328513
      7          1           0       -0.332893   -1.589764   -0.357893
      8          1           0       -0.119408    0.864914   -0.019637
      9          1           0        2.151281    1.901917    0.201004
     10          1           0        3.971614   -1.958209   -0.254056
     11          1           0        1.706863   -3.007803   -0.476181
     12          7           0        4.493025    0.630473    0.113229
     13          8           0        5.467925   -0.115110    0.047557
     14          8           0        4.542490    1.847330    0.278904
     15          6           0       -4.153726    0.749010   -0.082825
     16          6           0       -3.327204    2.026037    0.072244
     17          6           0       -4.140222    3.292714   -0.196688
     18          1           0       -4.570067    0.710400   -1.098755
     19          1           0       -5.010033    0.789046    0.604586
     20          1           0       -2.471943    1.982985   -0.614262
     21          1           0       -2.912624    2.061516    1.087863
     22          1           0       -4.984688    3.362884    0.496534
     23          1           0       -4.541502    3.283907   -1.215264
     24          1           0       -3.529940    4.193746   -0.080256
     25          6           0       -3.354805   -0.525699    0.182828
     26          6           0       -4.181327   -1.802726    0.027759
     27          6           0       -3.368309   -3.069403    0.296691
     28          1           0       -2.498499   -0.565735   -0.504582
     29          1           0       -2.938464   -0.487089    1.198758
     30          1           0       -4.595907   -1.838205   -0.987859
     31          1           0       -5.036588   -1.759674    0.714266
     32          1           0       -2.967029   -3.060596    1.315267
     33          1           0       -2.523844   -3.139573   -0.396530
     34          1           0       -3.978591   -3.970435    0.180260
 ---------------------------------------------------------------------

 SCF Done:  E(RHF) =  -669.535299519     A.U. after   15 cycles
 E2 =    -0.2092640342D+01 EUMP2 =    -0.67162793986109D+03

 The electronic state is 1-A.
 Alpha  occ. eigenvalues --  -20.60668 -20.60663 -15.85720 -11.31054 -11.27624
 Alpha  occ. eigenvalues --  -11.27613 -11.27288 -11.26621 -11.26569 -11.22768
 Alpha  occ. eigenvalues --  -11.22728 -11.22708 -11.22461 -11.22311 -11.21899
 Alpha  occ. eigenvalues --   -1.59745  -1.39299  -1.19218  -1.09616  -1.08611
 Alpha  occ. eigenvalues --   -1.04643  -1.04615  -0.97082  -0.95459  -0.88095
 Alpha  occ. eigenvalues --   -0.86016  -0.82300  -0.80717  -0.79485  -0.77343
 Alpha  occ. eigenvalues --   -0.71938  -0.71068  -0.70341  -0.66241  -0.64864
 Alpha  occ. eigenvalues --   -0.64605  -0.62050  -0.61949  -0.60462  -0.58703
 Alpha  occ. eigenvalues --   -0.56372  -0.55127  -0.53741  -0.53515  -0.52950
 Alpha  occ. eigenvalues --   -0.52707  -0.51020  -0.49018  -0.48697  -0.48685
 Alpha  occ. eigenvalues --   -0.47735  -0.46941  -0.46883  -0.44903  -0.44712
 Alpha  occ. eigenvalues --   -0.37188  -0.36227
 Alpha virt. eigenvalues --    0.05181   0.11400   0.16673   0.19168   0.21767
 Alpha virt. eigenvalues --    0.22618   0.25003   0.25484   0.26191   0.28094
 Alpha virt. eigenvalues --    0.29395   0.30185   0.30918   0.31186   0.31860

 Mulliken charges:
               1
     1  C   -0.179479
     2  C   -0.228169
     3  C   -0.172127
     4  C    0.158291
     5  C   -0.171007
     6  C   -0.220247
     7  H    0.236511
     8  H    0.232407
     9  H    0.275285
    10  H    0.274976
    11  H    0.223020
    12  N    0.488027
    13  O   -0.460877
    14  O   -0.460839
    15  C   -0.297711
    16  C   -0.305797
    17  C   -0.475932
    18  H    0.153198
    19  H    0.154490
    20  H    0.148370
    21  H    0.153195
    22  H    0.158404
    23  H    0.157841
    24  H    0.163256
    25  C   -0.306093
    26  C   -0.300246
    27  C   -0.479541
    28  H    0.142466
    29  H    0.152476
    30  H    0.155523
    31  H    0.157356
    32  H    0.158145
    33  H    0.147866
    34  H    0.166960
 Sum of Mulliken charges =  -0.00000

 Dipole moment (field-independent basis, Debye):
    X=             -5.1290    Y=             -2.1381    Z=             -0.4092  Tot=              5.5718
 Quadrupole moment (field-independent basis, Debye-Ang):
   XX=           -122.8058   YY=            -91.3665   ZZ=            -94.5828
   XY=             -8.7578   XZ=             -2.0863   YZ=              0.7183

 Normal termination of Gaussian 16 at Thu May  6 09:36:04 2021.
