 Gaussian 16, Revision A.03,
 Gaussian 16:  EM64L-G16RevA.03 25-Dec-2016

 -------------
 #p 6-31g* mp2
 -------------

 ------------------------------------------------------
 Input file generated by CHIRIPA (05-May-2021 14:51:14)
 ------------------------------------------------------
 Symbolic Z-matrix:
 Charge =  0 Multiplicity = 1

                         Standard orientation:
 ---------------------------------------------------------------------
 Center     Atomic      Atomic             Coordinates (Angstroms)
 Number     Number       Type             X           Y           Z
 ---------------------------------------------------------------------
      1          6           0        2.178561    0.151965   -0.405579
      2          6           0        3.447527    0.657375   -1.092800
      3          6           0        3.185818    1.847947   -2.015752
      4          1           0        1.442432   -0.130265   -1.170696
      5          1           0        1.730627    0.972853    0.171390
      6          1           0        3.893687   -0.164598   -1.667184
      7          1           0        4.180792    0.938255   -0.325958
      8          1           0        2.762208    2.685960   -1.452822
      9          1           0        2.473472    1.576841   -2.801669
     10          1           0        4.106407    2.193105   -2.496628
     11          6           0        2.424003   -1.038029    0.520380
     12          6           0        1.155037   -1.543439    1.207601
     13          6           0        1.416746   -2.734011    2.130553
     14          1           0        2.871937   -1.858917   -0.056588
     15          1           0        3.160132   -0.755799    1.285498
     16          1           0        0.421773   -1.824318    0.440760
     17          1           0        0.708877   -0.721466    1.781986
     18          1           0        2.129093   -2.462905    2.916470
     19          1           0        1.840357   -3.572023    1.567624
     20          1           0        0.496157   -3.079168    2.611429
     21          6           0       -2.820118    0.081850   -0.486107
     22          6           0       -2.281162   -1.184968   -1.151451
     23          6           0       -3.330858   -1.896393   -2.005737
     24          1           0       -3.686516   -0.179077    0.136964
     25          1           0       -3.188281    0.767033   -1.262236
     26          1           0       -1.912858   -1.866973   -0.374381
     27          1           0       -1.415829   -0.921023   -1.772860
     28          1           0       -3.691600   -1.236590   -2.801430
     29          1           0       -4.191453   -2.187914   -1.395006
     30          1           0       -2.924280   -2.799273   -2.471957
     31          6           0       -1.782446    0.804213    0.371306
     32          6           0       -2.321403    2.071031    1.036649
     33          6           0       -1.271706    2.782456    1.890935
     34          1           0       -1.414283    0.119032    1.147434
     35          1           0       -0.916048    1.065142   -0.251766
     36          1           0       -3.186735    1.807087    1.658059
     37          1           0       -2.689707    2.753037    0.259580
     38          1           0       -0.411111    3.073979    1.280204
     39          1           0       -0.910964    2.122655    2.686628
     40          1           0       -1.678284    3.685337    2.357156
 ---------------------------------------------------------------------

 SCF Done:  E(RHF) =  -470.731681573     A.U. after   11 cycles
 E2 =    -0.1585753067D+01 EUMP2 =    -0.47231743463969D+03

 The electronic state is 1-A.
 Alpha  occ. eigenvalues --  -11.21615 -11.21599 -11.21553 -11.21478 -11.21375
 Alpha  occ. eigenvalues --  -11.21344 -11.21315 -11.21189 -11.21102 -11.21101
 Alpha  occ. eigenvalues --  -11.21086 -11.21043  -1.08479  -1.08324  -1.03530
 Alpha  occ. eigenvalues --   -1.03512  -0.95975  -0.95963  -0.86990  -0.86986
 Alpha  occ. eigenvalues --   -0.79644  -0.79585  -0.78667  -0.77749  -0.65061
 Alpha  occ. eigenvalues --   -0.65022  -0.61047  -0.60810  -0.59369  -0.59316
 Alpha  occ. eigenvalues --   -0.57601  -0.57574  -0.55278  -0.55238  -0.52728
 Alpha  occ. eigenvalues --   -0.52634  -0.52407  -0.52396  -0.49984  -0.49857
 Alpha  occ. eigenvalues --   -0.48081  -0.47983  -0.46854  -0.46538  -0.46347
 Alpha  occ. eigenvalues --   -0.45639  -0.45486  -0.44832  -0.43772  -0.43721
 Alpha virt. eigenvalues --    0.21058   0.22408   0.23188   0.23616   0.24983
 Alpha virt. eigenvalues --    0.26280   0.26665   0.28023   0.28581   0.29009
 Alpha virt. eigenvalues --    0.30965   0.31422   0.31663   0.31864   0.32102

 Mulliken charges:
               1
     1  C   -0.303248
     2  C   -0.299260
     3  C   -0.475785
     4  H    0.151293
     5  H    0.152764
     6  H    0.151871
     7  H    0.152083
     8  H    0.154638
     9  H    0.154621
    10  H    0.160579
    11  C   -0.297421
    12  C   -0.309053
    13  C   -0.475433
    14  H    0.149005
    15  H    0.149224
    16  H    0.160243
    17  H    0.154811
    18  H    0.154935
    19  H    0.154933
    20  H    0.158984
    21  C   -0.297577
    22  C   -0.304704
    23  C   -0.475173
    24  H    0.149017
    25  H    0.148985
    26  H    0.155293
    27  H    0.152234
    28  H    0.155258
    29  H    0.155346
    30  H    0.159881
    31  C   -0.307453
    32  C   -0.299184
    33  C   -0.476985
    34  H    0.156307
    35  H    0.156022
    36  H    0.151365
    37  H    0.151461
    38  H    0.155093
    39  H    0.154422
    40  H    0.160606
 Sum of Mulliken charges =  -0.00000

 Dipole moment (field-independent basis, Debye):
    X=             -0.0001    Y=             -0.0066    Z=             -0.0039  Tot=              0.0076
 Quadrupole moment (field-independent basis, Debye-Ang):
   XX=            -85.2282   YY=            -85.3317   ZZ=            -84.5293
   XY=             -0.0443   XZ=             -0.5811   YZ=              0.2761

 Normal termination of Gaussian 16 at Thu May  6 05:36:16 2021.
