 Gaussian 16, Revision A.03,
 Gaussian 16:  EM64L-G16RevA.03 25-Dec-2016

 -------------
 #p 6-31g* mp2
 -------------

 ------------------------------------------------------
 Input file generated by CHIRIPA (05-May-2021 14:55:21)
 ------------------------------------------------------
 Symbolic Z-matrix:
 Charge =  0 Multiplicity = 1

                         Standard orientation:
 ---------------------------------------------------------------------
 Center     Atomic      Atomic             Coordinates (Angstroms)
 Number     Number       Type             X           Y           Z
 ---------------------------------------------------------------------
      1          6           0       -3.929363   -2.303408    0.337836
      2          6           0       -4.118896   -1.591779   -0.851358
      3          6           0       -3.493786   -0.356665   -1.047009
      4          6           0       -2.682205    0.139361   -0.027899
      5          6           0       -2.473696   -0.545828    1.168064
      6          6           0       -3.108815   -1.779086    1.341981
      7          1           0       -4.418852   -3.262153    0.481381
      8          1           0       -4.755593   -1.996536   -1.632916
      9          1           0       -3.623156    0.215276   -1.957814
     10          1           0       -1.833203   -0.116649    1.928979
     11          1           0       -2.959803   -2.329543    2.266555
     12          7           0       -2.015131    1.445939   -0.223522
     13          8           0       -1.305026    1.861243    0.689664
     14          8           0       -2.215016    2.029989   -1.286334
     15          6           0        3.703529   -0.562212   -0.368528
     16          6           0        4.927568   -1.313110    0.156702
     17          6           0        5.173753   -2.630437   -0.579395
     18          1           0        2.818494   -1.206503   -0.276074
     19          1           0        3.835672   -0.364702   -1.441339
     20          1           0        4.793771   -1.507927    1.228504
     21          1           0        5.809758   -0.666885    0.063163
     22          1           0        5.333038   -2.450925   -1.647573
     23          1           0        4.311278   -3.296744   -0.475611
     24          1           0        6.053470   -3.150741   -0.187936
     25          6           0        3.444369    0.756717    0.357413
     26          6           0        2.220330    1.507615   -0.167816
     27          6           0        1.974143    2.824941    0.568280
     28          1           0        3.312225    0.559207    1.430224
     29          1           0        4.329403    1.401007    0.264959
     30          1           0        1.338139    0.861390   -0.074278
     31          1           0        2.354127    1.702431   -1.239619
     32          1           0        2.836619    3.491248    0.464496
     33          1           0        1.814859    2.645428    1.636459
     34          1           0        1.094426    3.345246    0.176820
 ---------------------------------------------------------------------

 SCF Done:  E(RHF) =  -669.535957385     A.U. after   15 cycles
 E2 =    -0.2092009886D+01 EUMP2 =    -0.67162796727185D+03

 The electronic state is 1-A.
 Alpha  occ. eigenvalues --  -20.61019 -20.60997 -15.86015 -11.31327 -11.27888
 Alpha  occ. eigenvalues --  -11.27881 -11.27619 -11.26890 -11.26879 -11.21217
 Alpha  occ. eigenvalues --  -11.20840 -11.20812 -11.20558 -11.20358 -11.19387
 Alpha  occ. eigenvalues --   -1.60060  -1.39618  -1.19492  -1.08901  -1.07703
 Alpha  occ. eigenvalues --   -1.04885  -1.02667  -0.95752  -0.95099  -0.86289
 Alpha  occ. eigenvalues --   -0.86132  -0.82578  -0.78808  -0.77637  -0.77454
 Alpha  occ. eigenvalues --   -0.72251  -0.71372  -0.70600  -0.65150  -0.64889
 Alpha  occ. eigenvalues --   -0.64348  -0.62233  -0.60073  -0.58560  -0.56677
 Alpha  occ. eigenvalues --   -0.55388  -0.54426  -0.53215  -0.52977  -0.51764
 Alpha  occ. eigenvalues --   -0.51555  -0.49152  -0.49007  -0.48907  -0.47072
 Alpha  occ. eigenvalues --   -0.45904  -0.45231  -0.44971  -0.44657  -0.42905
 Alpha  occ. eigenvalues --   -0.37468  -0.36485
 Alpha virt. eigenvalues --    0.04875   0.11161   0.16348   0.21277   0.23483
 Alpha virt. eigenvalues --    0.25216   0.27108   0.27323   0.28008   0.28294
 Alpha virt. eigenvalues --    0.28973   0.30814   0.31944   0.32335   0.32702

 Mulliken charges:
               1
     1  C   -0.170513
     2  C   -0.218533
     3  C   -0.170542
     4  C    0.157969
     5  C   -0.171255
     6  C   -0.218503
     7  H    0.226155
     8  H    0.223992
     9  H    0.275994
    10  H    0.275774
    11  H    0.223938
    12  N    0.488838
    13  O   -0.457726
    14  O   -0.458618
    15  C   -0.296850
    16  C   -0.298761
    17  C   -0.475015
    18  H    0.145553
    19  H    0.149032
    20  H    0.150038
    21  H    0.151970
    22  H    0.155006
    23  H    0.152776
    24  H    0.158652
    25  C   -0.297602
    26  C   -0.298164
    27  C   -0.472175
    28  H    0.146044
    29  H    0.147761
    30  H    0.150502
    31  H    0.148801
    32  H    0.143375
    33  H    0.150445
    34  H    0.181642
 Sum of Mulliken charges =  -0.00000

 Dipole moment (field-independent basis, Debye):
    X=             -2.7072    Y=             -4.4943    Z=              0.6702  Tot=              5.2893
 Quadrupole moment (field-independent basis, Debye-Ang):
   XX=            -82.6036   YY=            -97.3128   ZZ=            -90.6222
   XY=             12.7016   XZ=              0.0846   YZ=             -1.0689

 Normal termination of Gaussian 16 at Thu May  6 06:11:22 2021.
