 Gaussian 16, Revision A.03,
 Gaussian 16:  EM64L-G16RevA.03 25-Dec-2016

 -------------
 #p 6-31g* mp2
 -------------

 ------------------------------------------------------
 Input file generated by CHIRIPA (05-May-2021 14:51:13)
 ------------------------------------------------------
 Symbolic Z-matrix:
 Charge =  0 Multiplicity = 1

                         Standard orientation:
 ---------------------------------------------------------------------
 Center     Atomic      Atomic             Coordinates (Angstroms)
 Number     Number       Type             X           Y           Z
 ---------------------------------------------------------------------
      1          6           0       -3.069443    0.469112   -0.784546
      2          6           0       -2.513410    1.793123   -0.259374
      3          6           0       -1.351053    2.321357   -1.100618
      4          1           0       -2.262996   -0.276583   -0.807517
      5          1           0       -3.399609    0.604560   -1.823796
      6          1           0       -2.185665    1.655573    0.779028
      7          1           0       -3.321319    2.535699   -0.237470
      8          1           0       -1.668308    2.486715   -2.135319
      9          1           0       -0.526202    1.601588   -1.113045
     10          1           0       -0.968875    3.268575   -0.707454
     11          6           0       -4.231968   -0.071727    0.045970
     12          6           0       -4.788002   -1.395739   -0.479201
     13          6           0       -5.950358   -1.923972    0.362042
     14          1           0       -3.901803   -0.207175    1.085220
     15          1           0       -5.038415    0.673967    0.068942
     16          1           0       -3.980092   -2.138315   -0.501106
     17          1           0       -5.115746   -1.258188   -1.517604
     18          1           0       -6.775209   -1.204203    0.374470
     19          1           0       -5.633103   -2.089331    1.396743
     20          1           0       -6.332537   -2.871190   -0.031121
     21          6           0        2.899137   -0.272177    0.484081
     22          6           0        2.368430    0.614009    1.611472
     23          6           0        0.863298    0.455814    1.829058
     24          1           0        2.365491   -0.030973   -0.445429
     25          1           0        2.669170   -1.321961    0.713128
     26          1           0        2.600553    1.661689    1.381035
     27          1           0        2.903537    0.370801    2.538363
     28          1           0        0.617647   -0.580276    2.083570
     29          1           0        0.312942    0.717948    0.919667
     30          1           0        0.505098    1.098301    2.639467
     31          6           0        4.402274   -0.125208    0.254495
     32          6           0        4.932980   -1.011393   -0.872896
     33          6           0        6.438114   -0.853198   -1.090483
     34          1           0        4.632242    0.924577    0.025448
     35          1           0        4.935921   -0.366411    1.184004
     36          1           0        4.397875   -0.768186   -1.799788
     37          1           0        4.700859   -2.059073   -0.642460
     38          1           0        6.988470   -1.115331   -0.181091
     39          1           0        6.683764    0.182891   -1.344995
     40          1           0        6.796313   -1.495686   -1.900892
 ---------------------------------------------------------------------

 SCF Done:  E(RHF) =  -470.733023119     A.U. after   11 cycles
 E2 =    -0.1583093143D+01 EUMP2 =    -0.47231611626177D+03

 The electronic state is 1-A.
 Alpha  occ. eigenvalues --  -11.21615 -11.21608 -11.21577 -11.21568 -11.21426
 Alpha  occ. eigenvalues --  -11.21378 -11.21364 -11.21318 -11.21103 -11.21075
 Alpha  occ. eigenvalues --  -11.21061 -11.21051  -1.08450  -1.08405  -1.03575
 Alpha  occ. eigenvalues --   -1.03490  -0.96035  -0.95936  -0.87028  -0.86977
 Alpha  occ. eigenvalues --   -0.79608  -0.79579  -0.78260  -0.78219  -0.65168
 Alpha  occ. eigenvalues --   -0.64974  -0.61209  -0.60701  -0.59382  -0.59319
 Alpha  occ. eigenvalues --   -0.57617  -0.57565  -0.55540  -0.55014  -0.52688
 Alpha  occ. eigenvalues --   -0.52666  -0.52446  -0.52361  -0.50047  -0.49797
 Alpha  occ. eigenvalues --   -0.48003  -0.47814  -0.46654  -0.46579  -0.45853
 Alpha  occ. eigenvalues --   -0.45747  -0.45684  -0.45647  -0.43796  -0.43767
 Alpha virt. eigenvalues --    0.20732   0.22973   0.23676   0.25019   0.26046
 Alpha virt. eigenvalues --    0.26425   0.27147   0.27714   0.28172   0.29027
 Alpha virt. eigenvalues --    0.30631   0.31107   0.31584   0.31834   0.32316

 Mulliken charges:
               1
     1  C   -0.298589
     2  C   -0.303102
     3  C   -0.478278
     4  H    0.149975
     5  H    0.149312
     6  H    0.155874
     7  H    0.152302
     8  H    0.155852
     9  H    0.155206
    10  H    0.160626
    11  C   -0.298382
    12  C   -0.299670
    13  C   -0.475706
    14  H    0.150171
    15  H    0.149461
    16  H    0.152047
    17  H    0.151778
    18  H    0.155106
    19  H    0.155239
    20  H    0.160150
    21  C   -0.298954
    22  C   -0.299264
    23  C   -0.484269
    24  H    0.149360
    25  H    0.149460
    26  H    0.152333
    27  H    0.151953
    28  H    0.154480
    29  H    0.165036
    30  H    0.160025
    31  C   -0.298313
    32  C   -0.299714
    33  C   -0.475729
    34  H    0.149787
    35  H    0.149754
    36  H    0.152088
    37  H    0.151861
    38  H    0.155163
    39  H    0.155276
    40  H    0.160297
 Sum of Mulliken charges =  -0.00000

 Dipole moment (field-independent basis, Debye):
    X=              0.0000    Y=              0.0111    Z=              0.0039  Tot=              0.0118
 Quadrupole moment (field-independent basis, Debye-Ang):
   XX=            -86.2009   YY=            -84.2146   ZZ=            -84.3623
   XY=             -0.9211   XZ=              1.2075   YZ=             -0.5433

 Normal termination of Gaussian 16 at Thu May  6 00:49:19 2021.
