 Gaussian 16, Revision A.03,
 Gaussian 16:  EM64L-G16RevA.03 25-Dec-2016

 -------------
 #p 6-31g* mp2
 -------------

 ------------------------------------------------------
 Input file generated by CHIRIPA (05-May-2021 14:57:24)
 ------------------------------------------------------
 Symbolic Z-matrix:
 Charge =  0 Multiplicity = 1

                         Standard orientation:
 ---------------------------------------------------------------------
 Center     Atomic      Atomic             Coordinates (Angstroms)
 Number     Number       Type             X           Y           Z
 ---------------------------------------------------------------------
      1          6           0       -5.142671    2.169721    0.571481
      2          6           0       -3.805523    2.189340    0.161395
      3          6           0       -3.150554    1.002756   -0.181509
      4          6           0       -3.866211   -0.190929   -0.102516
      5          6           0       -5.199109   -0.243107    0.302394
      6          6           0       -5.833978    0.955700    0.640550
      7          1           0       -5.643660    3.096235    0.836013
      8          1           0       -3.266158    3.130696    0.106814
      9          1           0       -2.115964    0.989151   -0.502223
     10          1           0       -5.710567   -1.196968    0.346883
     11          1           0       -6.872486    0.937446    0.958689
     12          7           0       -3.183464   -1.453582   -0.463020
     13          8           0       -3.836085   -2.492160   -0.385051
     14          8           0       -2.008634   -1.380764   -0.816726
     15          6           0        2.883361   -2.263970    0.386571
     16          6           0        2.173703   -1.225455   -0.225305
     17          6           0        2.770591    0.023577   -0.420736
     18          6           0        4.084633    0.200040    0.009895
     19          6           0        4.817793   -0.814983    0.622669
     20          6           0        4.200818   -2.055787    0.807862
     21          1           0        2.411883   -3.231052    0.534409
     22          1           0        1.150417   -1.384270   -0.553493
     23          1           0        2.244235    0.844921   -0.891653
     24          1           0        5.836465   -0.626502    0.939212
     25          1           0        4.754363   -2.860492    1.283344
     26          7           0        4.727164    1.517979   -0.191580
     27          8           0        5.886011    1.647975    0.196764
     28          8           0        4.059766    2.396028   -0.734025
 ---------------------------------------------------------------------

 SCF Done:  E(RHF) =  -868.340141479     A.U. after   16 cycles
 E2 =    -0.2598193369D+01 EUMP2 =    -0.87093833484785D+03

 The electronic state is 1-A.
 Alpha  occ. eigenvalues --  -20.61614 -20.61558 -20.60433 -20.60424 -15.86631
 Alpha  occ. eigenvalues --  -15.85474 -11.31725 -11.30665 -11.28277 -11.28246
 Alpha  occ. eigenvalues --  -11.27932 -11.27209 -11.27206 -11.27193 -11.27157
 Alpha  occ. eigenvalues --  -11.26810 -11.26197 -11.25964  -1.60648  -1.59509
 Alpha  occ. eigenvalues --   -1.40214  -1.39068  -1.19867  -1.18788  -1.09307
 Alpha  occ. eigenvalues --   -1.08202  -1.05230  -1.04149  -0.96190  -0.95080
 Alpha  occ. eigenvalues --   -0.86640  -0.85542  -0.83038  -0.81910  -0.78117
 Alpha  occ. eigenvalues --   -0.76993  -0.72868  -0.71950  -0.71698  -0.70972
 Alpha  occ. eigenvalues --   -0.70829  -0.69879  -0.65525  -0.65224  -0.64424
 Alpha  occ. eigenvalues --   -0.64093  -0.62585  -0.61484  -0.55731  -0.54617
 Alpha  occ. eigenvalues --   -0.53571  -0.53316  -0.52508  -0.52196  -0.49628
 Alpha  occ. eigenvalues --   -0.49574  -0.48465  -0.48432  -0.45675  -0.44514
 Alpha  occ. eigenvalues --   -0.37824  -0.36820  -0.36746  -0.35758
 Alpha virt. eigenvalues --    0.04397   0.05505   0.10838   0.11901   0.15942
 Alpha virt. eigenvalues --    0.17068   0.20836   0.22167   0.26595   0.27286
 Alpha virt. eigenvalues --    0.28637   0.28942   0.30659   0.31523   0.32620

 Mulliken charges:
               1
     1  C   -0.169926
     2  C   -0.218266
     3  C   -0.169559
     4  C    0.157978
     5  C   -0.170613
     6  C   -0.218402
     7  H    0.228200
     8  H    0.227016
     9  H    0.271676
    10  H    0.276121
    11  H    0.225240
    12  N    0.493399
    13  O   -0.456526
    14  O   -0.474291
    15  C   -0.172515
    16  C   -0.227403
    17  C   -0.174154
    18  C    0.158521
    19  C   -0.172910
    20  C   -0.218536
    21  H    0.229186
    22  H    0.247225
    23  H    0.270846
    24  H    0.273234
    25  H    0.221648
    26  N    0.488240
    27  O   -0.461772
    28  O   -0.463659
 Sum of Mulliken charges =  -0.00000

 Dipole moment (field-independent basis, Debye):
    X=             -5.1173    Y=             -0.2497    Z=              2.0116  Tot=              5.5041
 Quadrupole moment (field-independent basis, Debye-Ang):
   XX=            -97.9654   YY=           -107.1285   ZZ=           -105.5816
   XY=            -36.2522   XZ=             -0.9635   YZ=             -1.9346

 Normal termination of Gaussian 16 at Thu May  6 03:28:53 2021.
