 Gaussian 16, Revision A.03,
 Gaussian 16:  EM64L-G16RevA.03 25-Dec-2016

 -------------
 #p 6-31g* mp2
 -------------

 ------------------------------------------------------
 Input file generated by CHIRIPA (05-May-2021 14:57:21)
 ------------------------------------------------------
 Symbolic Z-matrix:
 Charge =  0 Multiplicity = 1

                         Standard orientation:
 ---------------------------------------------------------------------
 Center     Atomic      Atomic             Coordinates (Angstroms)
 Number     Number       Type             X           Y           Z
 ---------------------------------------------------------------------
      1          6           0       -4.469926   -1.371986    0.618975
      2          6           0       -4.618538    0.009896    0.461374
      3          6           0       -3.586923    0.776832   -0.088287
      4          6           0       -2.414986    0.126308   -0.471264
      5          6           0       -2.236728   -1.248725   -0.327050
      6          6           0       -3.281591   -1.995786    0.224955
      7          1           0       -5.276455   -1.960041    1.046875
      8          1           0       -5.540303    0.497031    0.766488
      9          1           0       -3.675332    1.848200   -0.221597
     10          1           0       -1.306142   -1.706048   -0.640553
     11          1           0       -3.163384   -3.068810    0.346165
     12          7           0       -1.315849    0.927709   -1.054407
     13          8           0       -0.293269    0.330722   -1.383915
     14          8           0       -1.497737    2.137658   -1.170923
     15          6           0        1.469802    2.052125    1.328956
     16          6           0        2.440410    2.188417    0.331026
     17          6           0        3.071017    1.061540   -0.204728
     18          6           0        2.705026   -0.192062    0.282946
     19          6           0        1.741736   -0.360472    1.276424
     20          6           0        1.124172    0.780357    1.797644
     21          1           0        0.984997    2.932929    1.739498
     22          1           0        2.710832    3.174840   -0.034878
     23          1           0        3.825739    1.138270   -0.977984
     24          1           0        1.493247   -1.356938    1.620994
     25          1           0        0.370731    0.671494    2.572577
     26          7           0        3.365717   -1.392421   -0.276540
     27          8           0        3.025483   -2.485744    0.170139
     28          8           0        4.211293   -1.217211   -1.151149
 ---------------------------------------------------------------------

 SCF Done:  E(RHF) =  -868.338234684     A.U. after   16 cycles
 E2 =    -0.2602615242D+01 EUMP2 =    -0.87094084992620D+03

 The electronic state is 1-A.
 Alpha  occ. eigenvalues --  -20.61173 -20.61108 -20.60003 -20.59965 -15.86164
 Alpha  occ. eigenvalues --  -15.85031 -11.31536 -11.30122 -11.28119 -11.28051
 Alpha  occ. eigenvalues --  -11.27822 -11.27119 -11.27067 -11.26828 -11.26676
 Alpha  occ. eigenvalues --  -11.26471 -11.25804 -11.25635  -1.60198  -1.59059
 Alpha  occ. eigenvalues --   -1.39759  -1.38626  -1.19703  -1.18296  -1.09095
 Alpha  occ. eigenvalues --   -1.07762  -1.05096  -1.03724  -0.95935  -0.94644
 Alpha  occ. eigenvalues --   -0.86491  -0.85157  -0.82768  -0.81516  -0.77816
 Alpha  occ. eigenvalues --   -0.76583  -0.72426  -0.71547  -0.71279  -0.70794
 Alpha  occ. eigenvalues --   -0.70341  -0.69502  -0.65350  -0.65084  -0.64016
 Alpha  occ. eigenvalues --   -0.63797  -0.62432  -0.61129  -0.55589  -0.54271
 Alpha  occ. eigenvalues --   -0.53450  -0.53173  -0.52011  -0.51879  -0.49169
 Alpha  occ. eigenvalues --   -0.49123  -0.48038  -0.48002  -0.45110  -0.44096
 Alpha  occ. eigenvalues --   -0.37690  -0.36716  -0.36226  -0.35234
 Alpha virt. eigenvalues --    0.04673   0.05983   0.10934   0.12338   0.16200
 Alpha virt. eigenvalues --    0.17526   0.21120   0.22278   0.26985   0.27814
 Alpha virt. eigenvalues --    0.28253   0.29189   0.30668   0.31609   0.32322

 Mulliken charges:
               1
     1  C   -0.171127
     2  C   -0.218911
     3  C   -0.173099
     4  C    0.157168
     5  C   -0.174202
     6  C   -0.219603
     7  H    0.226885
     8  H    0.223771
     9  H    0.274203
    10  H    0.280207
    11  H    0.226762
    12  N    0.490452
    13  O   -0.455698
    14  O   -0.465583
    15  C   -0.165002
    16  C   -0.208665
    17  C   -0.161963
    18  C    0.169528
    19  C   -0.167911
    20  C   -0.226953
    21  H    0.223440
    22  H    0.222363
    23  H    0.273388
    24  H    0.266342
    25  H    0.215918
    26  N    0.488021
    27  O   -0.468822
    28  O   -0.460910
 Sum of Mulliken charges =  -0.00000

 Dipole moment (field-independent basis, Debye):
    X=             -6.2205    Y=              1.5117    Z=              3.7766  Tot=              7.4325
 Quadrupole moment (field-independent basis, Debye-Ang):
   XX=            -96.7363   YY=           -102.6787   ZZ=           -105.4857
   XY=             18.3741   XZ=             -1.1817   YZ=              0.8484

 Normal termination of Gaussian 16 at Thu May  6 12:48:58 2021.
