 Gaussian 16, Revision A.03,
 Gaussian 16:  EM64L-G16RevA.03 25-Dec-2016

 -------------
 #p 6-31g* mp2
 -------------

 ------------------------------------------------------
 Input file generated by CHIRIPA (05-May-2021 14:53:13)
 ------------------------------------------------------
 Symbolic Z-matrix:
 Charge =  0 Multiplicity = 1

                         Standard orientation:
 ---------------------------------------------------------------------
 Center     Atomic      Atomic             Coordinates (Angstroms)
 Number     Number       Type             X           Y           Z
 ---------------------------------------------------------------------
      1          6           0       -3.386587   -0.173111    0.037264
      2          6           0       -2.477695    0.116487   -1.157740
      3          6           0       -1.006231   -0.180121   -0.866858
      4          1           0       -3.053455    0.424822    0.896592
      5          1           0       -3.274422   -1.226961    0.327461
      6          1           0       -2.592577    1.169128   -1.446468
      7          1           0       -2.813147   -0.482061   -2.014378
      8          1           0       -0.870963   -1.233271   -0.600065
      9          1           0       -0.649140    0.427300   -0.028928
     10          1           0       -0.374408    0.033905   -1.734528
     11          6           0       -4.860660    0.118494   -0.238057
     12          6           0       -5.769552   -0.171103    0.956946
     13          6           0       -7.241016    0.125505    0.666064
     14          1           0       -4.972825    1.172344   -0.528254
     15          1           0       -5.193792   -0.479439   -1.097385
     16          1           0       -5.434100    0.427445    1.813584
     17          1           0       -5.654671   -1.223745    1.245674
     18          1           0       -7.598107   -0.481917   -0.171865
     19          1           0       -7.376284    1.178655    0.399271
     20          1           0       -7.872840   -0.088521    1.533735
     21          6           0        3.182285    2.544097    0.085523
     22          6           0        3.832459    1.851252    1.112052
     23          6           0        3.860567    0.453498    1.118316
     24          6           0        3.225380   -0.222557    0.077750
     25          6           0        2.569355    0.439221   -0.959058
     26          6           0        2.553915    1.837116   -0.944939
     27          1           0        3.165371    3.629961    0.088573
     28          1           0        4.321302    2.397683    1.913607
     29          1           0        4.356637   -0.108044    1.900622
     30          1           0        2.090946   -0.133095   -1.744550
     31          1           0        2.048220    2.372550   -1.743455
     32          7           0        3.248430   -1.702371    0.073592
     33          8           0        2.681320   -2.274668   -0.854578
     34          8           0        3.833170   -2.261933    0.998583
 ---------------------------------------------------------------------

 SCF Done:  E(RHF) =  -669.535035221     A.U. after   15 cycles
 E2 =    -0.2091797371D+01 EUMP2 =    -0.67162683259276D+03

 The electronic state is 1-A.
 Alpha  occ. eigenvalues --  -20.60726 -20.60720 -15.85776 -11.31121 -11.27713
 Alpha  occ. eigenvalues --  -11.27686 -11.27464 -11.26719 -11.26706 -11.21707
 Alpha  occ. eigenvalues --  -11.21623 -11.21452 -11.21393 -11.21186 -11.21095
 Alpha  occ. eigenvalues --   -1.59798  -1.39352  -1.19311  -1.08708  -1.08487
 Alpha  occ. eigenvalues --   -1.04719  -1.03597  -0.96059  -0.95539  -0.87083
 Alpha  occ. eigenvalues --   -0.86106  -0.82378  -0.79670  -0.78295  -0.77418
 Alpha  occ. eigenvalues --   -0.71997  -0.71118  -0.70433  -0.65114  -0.64965
 Alpha  occ. eigenvalues --   -0.64727  -0.62106  -0.60986  -0.59425  -0.57664
 Alpha  occ. eigenvalues --   -0.55327  -0.55229  -0.53213  -0.52906  -0.52505
 Alpha  occ. eigenvalues --   -0.52452  -0.49963  -0.48755  -0.48750  -0.47978
 Alpha  occ. eigenvalues --   -0.46680  -0.45838  -0.45756  -0.44759  -0.43864
 Alpha  occ. eigenvalues --   -0.37297  -0.36264
 Alpha virt. eigenvalues --    0.05102   0.11313   0.16576   0.20913   0.22856
 Alpha virt. eigenvalues --    0.24116   0.26257   0.26626   0.27460   0.27948
 Alpha virt. eigenvalues --    0.28680   0.30785   0.31379   0.31630   0.31884

 Mulliken charges:
               1
     1  C   -0.299013
     2  C   -0.300118
     3  C   -0.476587
     4  H    0.148774
     5  H    0.152796
     6  H    0.148059
     7  H    0.153672
     8  H    0.167056
     9  H    0.155480
    10  H    0.148167
    11  C   -0.298268
    12  C   -0.299770
    13  C   -0.475726
    14  H    0.148094
    15  H    0.150408
    16  H    0.151441
    17  H    0.153336
    18  H    0.155606
    19  H    0.154421
    20  H    0.160547
    21  C   -0.171072
    22  C   -0.218997
    23  C   -0.171066
    24  C    0.156850
    25  C   -0.165688
    26  C   -0.219265
    27  H    0.225264
    28  H    0.223069
    29  H    0.275357
    30  H    0.277124
    31  H    0.223076
    32  N    0.488369
    33  O   -0.460622
    34  O   -0.460773
 Sum of Mulliken charges =  -0.00000

 Dipole moment (field-independent basis, Debye):
    X=             -0.1190    Y=              5.1356    Z=              0.0487  Tot=              5.1372
 Quadrupole moment (field-independent basis, Debye-Ang):
   XX=            -95.7831   YY=            -96.8219   ZZ=            -91.4153
   XY=             17.5249   XZ=              2.5749   YZ=              0.8239

 Normal termination of Gaussian 16 at Wed May  5 15:33:08 2021.
