 Gaussian 16, Revision A.03,
 Gaussian 16:  EM64L-G16RevA.03 25-Dec-2016

 -------------
 #p 6-31g* mp2
 -------------

 ------------------------------------------------------
 Input file generated by CHIRIPA (05-May-2021 14:57:26)
 ------------------------------------------------------
 Symbolic Z-matrix:
 Charge =  0 Multiplicity = 1

                         Standard orientation:
 ---------------------------------------------------------------------
 Center     Atomic      Atomic             Coordinates (Angstroms)
 Number     Number       Type             X           Y           Z
 ---------------------------------------------------------------------
      1          6           0       -4.836437   -1.919910   -0.722961
      2          6           0       -5.411043   -0.679665   -1.019847
      3          6           0       -4.795880    0.505339   -0.605254
      4          6           0       -3.601474    0.412767    0.107567
      5          6           0       -3.004242   -0.807786    0.418782
      6          6           0       -3.636985   -1.979906   -0.005858
      7          1           0       -5.321138   -2.835445   -1.048929
      8          1           0       -6.342495   -0.630038   -1.576606
      9          1           0       -5.218894    1.478849   -0.821488
     10          1           0       -2.075103   -0.825295    0.975390
     11          1           0       -3.188450   -2.941697    0.226133
     12          7           0       -2.940923    1.660458    0.551796
     13          8           0       -1.889175    1.551916    1.178439
     14          8           0       -3.487439    2.723314    0.264928
     15          6           0        1.438233   -0.960597    0.762978
     16          6           0        1.585664   -0.415232   -0.516616
     17          6           0        2.839820    0.005585   -0.968893
     18          6           0        3.930000   -0.134290   -0.111436
     19          6           0        3.815271   -0.673730    1.168850
     20          6           0        2.551544   -1.087881    1.600151
     21          1           0        0.460256   -1.284909    1.106172
     22          1           0        0.722813   -0.315174   -1.168936
     23          1           0        2.982333    0.431248   -1.954752
     24          1           0        4.693958   -0.760748    1.796348
     25          1           0        2.440021   -1.511056    2.594400
     26          7           0        5.262785    0.307681   -0.579139
     27          8           0        6.207569    0.173708    0.195503
     28          8           0        5.337401    0.779704   -1.711510
 ---------------------------------------------------------------------

 SCF Done:  E(RHF) =  -868.337061878     A.U. after   15 cycles
 E2 =    -0.2599859616D+01 EUMP2 =    -0.87093692149351D+03

 The electronic state is 1-A.
 Alpha  occ. eigenvalues --  -20.61597 -20.61570 -20.60510 -20.60505 -15.86638
 Alpha  occ. eigenvalues --  -15.85563 -11.32086 -11.30912 -11.28758 -11.28569
 Alpha  occ. eigenvalues --  -11.28320 -11.27695 -11.27589 -11.27483 -11.27465
 Alpha  occ. eigenvalues --  -11.27320 -11.26529 -11.26505  -1.60658  -1.59585
 Alpha  occ. eigenvalues --   -1.40212  -1.39139  -1.20239  -1.19087  -1.09603
 Alpha  occ. eigenvalues --   -1.08501  -1.05659  -1.04488  -0.96437  -0.95342
 Alpha  occ. eigenvalues --   -0.87045  -0.85897  -0.83269  -0.82173  -0.78331
 Alpha  occ. eigenvalues --   -0.77203  -0.72849  -0.71988  -0.71785  -0.71352
 Alpha  occ. eigenvalues --   -0.70905  -0.70260  -0.65884  -0.65649  -0.64755
 Alpha  occ. eigenvalues --   -0.64508  -0.63020  -0.61841  -0.56120  -0.55084
 Alpha  occ. eigenvalues --   -0.53968  -0.53721  -0.52803  -0.52598  -0.49621
 Alpha  occ. eigenvalues --   -0.49599  -0.48543  -0.48538  -0.45598  -0.44548
 Alpha  occ. eigenvalues --   -0.38187  -0.37264  -0.37063  -0.36069
 Alpha virt. eigenvalues --    0.04205   0.05328   0.10353   0.11584   0.15726
 Alpha virt. eigenvalues --    0.16797   0.18675   0.21884   0.24924   0.27036
 Alpha virt. eigenvalues --    0.27513   0.29166   0.30477   0.30883   0.32602

 Mulliken charges:
               1
     1  C   -0.170499
     2  C   -0.217817
     3  C   -0.169789
     4  C    0.159196
     5  C   -0.180099
     6  C   -0.219228
     7  H    0.228713
     8  H    0.226964
     9  H    0.278460
    10  H    0.272957
    11  H    0.223396
    12  N    0.486981
    13  O   -0.463027
    14  O   -0.455651
    15  C   -0.164233
    16  C   -0.214924
    17  C   -0.170497
    18  C    0.158806
    19  C   -0.170663
    20  C   -0.218691
    21  H    0.217785
    22  H    0.222134
    23  H    0.275520
    24  H    0.275066
    25  H    0.222623
    26  N    0.488081
    27  O   -0.460979
    28  O   -0.460586
 Sum of Mulliken charges =  -0.00000

 Dipole moment (field-independent basis, Debye):
    X=             -7.2823    Y=             -5.8491    Z=             -0.0011  Tot=              9.3404
 Quadrupole moment (field-independent basis, Debye-Ang):
   XX=           -121.0323   YY=           -107.2895   ZZ=           -101.6827
   XY=              6.7157   XZ=             16.6915   YZ=             -3.7930

 Normal termination of Gaussian 16 at Fri May  7 06:36:12 2021.
