 Gaussian 16, Revision A.03,
 Gaussian 16:  EM64L-G16RevA.03 25-Dec-2016

 -------------
 #p 6-31g* mp2
 -------------

 ------------------------------------------------------
 Input file generated by CHIRIPA (05-May-2021 14:53:14)
 ------------------------------------------------------
 Symbolic Z-matrix:
 Charge =  0 Multiplicity = 1

                         Standard orientation:
 ---------------------------------------------------------------------
 Center     Atomic      Atomic             Coordinates (Angstroms)
 Number     Number       Type             X           Y           Z
 ---------------------------------------------------------------------
      1          6           0        3.373172   -0.081784    0.217910
      2          6           0        4.886742   -0.136171    0.007832
      3          6           0        5.604612    1.096567    0.558116
      4          1           0        2.974785    0.821725   -0.263655
      5          1           0        3.162383    0.017549    1.291733
      6          1           0        5.094580   -0.236764   -1.065154
      7          1           0        5.281546   -1.039755    0.489789
      8          1           0        5.426611    1.197958    1.633587
      9          1           0        5.238582    2.005511    0.069808
     10          1           0        6.685550    1.036829    0.397295
     11          6           0        2.641513   -1.307168   -0.326918
     12          6           0        1.127943   -1.252780   -0.116840
     13          6           0        0.410073   -2.485519   -0.667124
     14          1           0        2.852302   -1.406501   -1.400741
     15          1           0        3.039900   -2.210677    0.154646
     16          1           0        0.733139   -0.349197   -0.598797
     17          1           0        0.920105   -1.152187    0.956146
     18          1           0        0.776102   -3.394463   -0.178816
     19          1           0        0.588074   -2.586909   -1.742595
     20          1           0       -0.670866   -2.425781   -0.506303
     21          6           0       -3.453862   -1.639053    0.664548
     22          6           0       -3.229296   -1.326561   -0.680233
     23          6           0       -2.618188   -0.120663   -1.036472
     24          6           0       -2.242719    0.753469   -0.017548
     25          6           0       -2.452906    0.470682    1.331208
     26          6           0       -3.065635   -0.741018    1.664215
     27          1           0       -3.929215   -2.578078    0.932260
     28          1           0       -3.529750   -2.022081   -1.458708
     29          1           0       -2.432376    0.146457   -2.069690
     30          1           0       -2.142355    1.184091    2.084882
     31          1           0       -3.238783   -0.981062    2.709415
     32          7           0       -1.594908    2.033171   -0.382385
     33          8           0       -1.273444    2.786331    0.534156
     34          8           0       -1.420887    2.258810   -1.577978
 ---------------------------------------------------------------------

 SCF Done:  E(RHF) =  -669.534575911     A.U. after   15 cycles
 E2 =    -0.2094377823D+01 EUMP2 =    -0.67162895373407D+03

 The electronic state is 1-A.
 Alpha  occ. eigenvalues --  -20.60857 -20.60852 -15.85903 -11.31270 -11.27839
 Alpha  occ. eigenvalues --  -11.27824 -11.27578 -11.26869 -11.26832 -11.21467
 Alpha  occ. eigenvalues --  -11.21294 -11.21166 -11.21016 -11.20945 -11.20721
 Alpha  occ. eigenvalues --   -1.59928  -1.39481  -1.19460  -1.08853  -1.08178
 Alpha  occ. eigenvalues --   -1.04864  -1.03307  -0.95758  -0.95676  -0.86783
 Alpha  occ. eigenvalues --   -0.86252  -0.82510  -0.79388  -0.77982  -0.77555
 Alpha  occ. eigenvalues --   -0.72122  -0.71252  -0.70552  -0.65105  -0.64856
 Alpha  occ. eigenvalues --   -0.64808  -0.62199  -0.60713  -0.59240  -0.57458
 Alpha  occ. eigenvalues --   -0.55352  -0.55046  -0.53383  -0.52943  -0.52329
 Alpha  occ. eigenvalues --   -0.51942  -0.49701  -0.48884  -0.48877  -0.47722
 Alpha  occ. eigenvalues --   -0.46427  -0.45530  -0.45447  -0.44870  -0.43583
 Alpha  occ. eigenvalues --   -0.37370  -0.36376
 Alpha virt. eigenvalues --    0.04972   0.11109   0.16452   0.21304   0.23088
 Alpha virt. eigenvalues --    0.24500   0.26802   0.27202   0.27534   0.28257
 Alpha virt. eigenvalues --    0.28329   0.30786   0.31534   0.31991   0.32113

 Mulliken charges:
               1
     1  C   -0.299775
     2  C   -0.299518
     3  C   -0.475886
     4  H    0.156735
     5  H    0.148391
     6  H    0.151853
     7  H    0.149722
     8  H    0.154631
     9  H    0.158419
    10  H    0.158877
    11  C   -0.297757
    12  C   -0.299248
    13  C   -0.484145
    14  H    0.149764
    15  H    0.147368
    16  H    0.152783
    17  H    0.149720
    18  H    0.151780
    19  H    0.152319
    20  H    0.165766
    21  C   -0.170016
    22  C   -0.222690
    23  C   -0.168429
    24  C    0.162116
    25  C   -0.170797
    26  C   -0.217743
    27  H    0.226487
    28  H    0.224923
    29  H    0.276104
    30  H    0.276055
    31  H    0.224007
    32  N    0.488703
    33  O   -0.459588
    34  O   -0.460930
 Sum of Mulliken charges =  -0.00000

 Dipole moment (field-independent basis, Debye):
    X=             -2.4120    Y=             -4.3744    Z=              1.3002  Tot=              5.1617
 Quadrupole moment (field-independent basis, Debye-Ang):
   XX=            -85.6139   YY=           -102.7134   ZZ=            -89.4386
   XY=              8.4206   XZ=             -2.7235   YZ=              1.6180

 Normal termination of Gaussian 16 at Wed May  5 18:37:25 2021.
