 Gaussian 16, Revision A.03,
 Gaussian 16:  EM64L-G16RevA.03 25-Dec-2016

 -------------
 #p 6-31g* mp2
 -------------

 ------------------------------------------------------
 Input file generated by CHIRIPA (05-May-2021 14:53:11)
 ------------------------------------------------------
 Symbolic Z-matrix:
 Charge =  0 Multiplicity = 1

                         Standard orientation:
 ---------------------------------------------------------------------
 Center     Atomic      Atomic             Coordinates (Angstroms)
 Number     Number       Type             X           Y           Z
 ---------------------------------------------------------------------
      1          6           0        3.685407    0.551237   -0.195781
      2          6           0        2.900289    1.681676    0.470314
      3          6           0        1.507982    1.869739   -0.132933
      4          1           0        3.775064    0.759521   -1.270734
      5          1           0        3.116077   -0.384193   -0.105069
      6          1           0        3.471570    2.614425    0.379585
      7          1           0        2.812655    1.470772    1.543839
      8          1           0        0.916279    0.954485   -0.029017
      9          1           0        1.578937    2.104636   -1.199887
     10          1           0        0.964213    2.682838    0.358031
     11          6           0        5.079308    0.350978    0.396388
     12          6           0        5.864426   -0.779460   -0.269707
     13          6           0        7.256733   -0.967523    0.333540
     14          1           0        5.648637    1.286409    0.305676
     15          1           0        4.989651    0.142694    1.471341
     16          1           0        5.952059   -0.568556   -1.343232
     17          1           0        5.293144   -1.712210   -0.178978
     18          1           0        7.185777   -1.202421    1.400494
     19          1           0        7.848436   -0.052269    0.229624
     20          1           0        7.800502   -1.780622   -0.157424
     21          6           0       -5.468514    1.047455    0.396036
     22          6           0       -5.401807   -0.272232    0.854838
     23          6           0       -4.273776   -1.057114    0.597831
     24          6           0       -3.226033   -0.487763   -0.124225
     25          6           0       -3.262657    0.823952   -0.594706
     26          6           0       -4.400609    1.590377   -0.325999
     27          1           0       -6.348650    1.650002    0.600230
     28          1           0       -6.229655   -0.696501    1.415827
     29          1           0       -4.195804   -2.081525    0.941227
     30          1           0       -2.421592    1.219184   -1.151320
     31          1           0       -4.449655    2.614974   -0.683546
     32          7           0       -2.026585   -1.308914   -0.402500
     33          8           0       -1.116883   -0.783929   -1.040834
     34          8           0       -2.018872   -2.461968    0.022991
 ---------------------------------------------------------------------

 SCF Done:  E(RHF) =  -669.536246082     A.U. after   15 cycles
 E2 =    -0.2090823400D+01 EUMP2 =    -0.67162706948194D+03

 The electronic state is 1-A.
 Alpha  occ. eigenvalues --  -20.60925 -20.60918 -15.85948 -11.31250 -11.27820
 Alpha  occ. eigenvalues --  -11.27801 -11.27557 -11.26823 -11.26810 -11.20990
 Alpha  occ. eigenvalues --  -11.20878 -11.20734 -11.20570 -11.20550 -11.20165
 Alpha  occ. eigenvalues --   -1.59984  -1.39540  -1.19421  -1.08831  -1.07723
 Alpha  occ. eigenvalues --   -1.04814  -1.02841  -0.95677  -0.95284  -0.86304
 Alpha  occ. eigenvalues --   -0.86216  -0.82508  -0.78914  -0.77579  -0.77499
 Alpha  occ. eigenvalues --   -0.72174  -0.71295  -0.70531  -0.65078  -0.64818
 Alpha  occ. eigenvalues --   -0.64353  -0.62160  -0.60236  -0.58674  -0.56894
 Alpha  occ. eigenvalues --   -0.55324  -0.54558  -0.53149  -0.52906  -0.52020
 Alpha  occ. eigenvalues --   -0.51694  -0.49230  -0.48932  -0.48915  -0.47225
 Alpha  occ. eigenvalues --   -0.45967  -0.45123  -0.45036  -0.44757  -0.43108
 Alpha  occ. eigenvalues --   -0.37402  -0.36415
 Alpha virt. eigenvalues --    0.04927   0.11236   0.16394   0.21313   0.23573
 Alpha virt. eigenvalues --    0.24987   0.27058   0.27388   0.27786   0.28285
 Alpha virt. eigenvalues --    0.28991   0.30825   0.31940   0.32210   0.32591

 Mulliken charges:
               1
     1  C   -0.299281
     2  C   -0.298515
     3  C   -0.485007
     4  H    0.148894
     5  H    0.158491
     6  H    0.147347
     7  H    0.149510
     8  H    0.177101
     9  H    0.152519
    10  H    0.149513
    11  C   -0.297938
    12  C   -0.299585
    13  C   -0.475356
    14  H    0.146747
    15  H    0.148388
    16  H    0.151414
    17  H    0.154467
    18  H    0.154421
    19  H    0.153549
    20  H    0.159240
    21  C   -0.170546
    22  C   -0.218672
    23  C   -0.170876
    24  C    0.157947
    25  C   -0.170950
    26  C   -0.218733
    27  H    0.225843
    28  H    0.223610
    29  H    0.275590
    30  H    0.277634
    31  H    0.223916
    32  N    0.488640
    33  O   -0.460046
    34  O   -0.459274
 Sum of Mulliken charges =  -0.00000

 Dipole moment (field-independent basis, Debye):
    X=             -4.4403    Y=              2.7359    Z=              0.9358  Tot=              5.2987
 Quadrupole moment (field-independent basis, Debye-Ang):
   XX=            -68.7481   YY=            -94.9611   ZZ=            -94.2159
   XY=             -5.4851   XZ=             -4.6569   YZ=             -3.4825

 Normal termination of Gaussian 16 at Wed May  5 16:56:42 2021.
