 Gaussian 16, Revision A.03,
 Gaussian 16:  EM64L-G16RevA.03 25-Dec-2016

 -------------
 #p 6-31g* mp2
 -------------

 ------------------------------------------------------
 Input file generated by CHIRIPA (05-May-2021 14:51:10)
 ------------------------------------------------------
 Symbolic Z-matrix:
 Charge =  0 Multiplicity = 1

                         Standard orientation:
 ---------------------------------------------------------------------
 Center     Atomic      Atomic             Coordinates (Angstroms)
 Number     Number       Type             X           Y           Z
 ---------------------------------------------------------------------
      1          6           0        2.519395   -0.579087   -0.219000
      2          6           0        3.583526   -1.599689   -0.623947
      3          6           0        3.268926   -3.010794   -0.126348
      4          1           0        2.425852   -0.571085    0.875592
      5          1           0        1.545179   -0.899346   -0.613630
      6          1           0        4.555686   -1.276882   -0.229845
      7          1           0        3.674681   -1.605126   -1.717691
      8          1           0        2.312176   -3.357337   -0.530253
      9          1           0        3.198187   -3.027229    0.966047
     10          1           0        4.042494   -3.724279   -0.426998
     11          6           0        2.819835    0.836263   -0.709151
     12          6           0        1.755704    1.856864   -0.304204
     13          6           0        2.070304    3.267969   -0.801803
     14          1           0        3.794051    1.156521   -0.314521
     15          1           0        2.913377    0.828260   -1.803742
     16          1           0        1.664548    1.862301    0.789541
     17          1           0        0.783544    1.534057   -0.698306
     18          1           0        2.141043    3.284404   -1.894198
     19          1           0        3.027053    3.614512   -0.397898
     20          1           0        1.296735    3.981454   -0.501153
     21          6           0       -3.129740    0.147403   -0.079566
     22          6           0       -3.916569   -0.937170   -0.816172
     23          6           0       -4.832610   -0.369411   -1.900751
     24          1           0       -3.833848    0.861028    0.369785
     25          1           0       -2.531478    0.714155   -0.806387
     26          1           0       -4.512108   -1.502599   -0.087997
     27          1           0       -3.210509   -1.648402   -1.263660
     28          1           0       -4.250389    0.178156   -2.648942
     29          1           0       -5.559384    0.324789   -1.466599
     30          1           0       -5.385521   -1.161944   -2.414602
     31          6           0       -2.209489   -0.404577    1.007716
     32          6           0       -1.422661    0.679995    1.744322
     33          6           0       -0.506620    0.112236    2.828902
     34          1           0       -2.807752   -0.971330    1.734538
     35          1           0       -1.505381   -1.118202    0.558367
     36          1           0       -2.128719    1.391228    2.191811
     37          1           0       -0.827121    1.245424    1.016147
     38          1           0        0.220154   -0.581964    2.394750
     39          1           0       -1.088840   -0.435332    3.577092
     40          1           0        0.046292    0.904768    3.342752
 ---------------------------------------------------------------------

 SCF Done:  E(RHF) =  -470.732576207     A.U. after   11 cycles
 E2 =    -0.1584484381D+01 EUMP2 =    -0.47231706058826D+03

 The electronic state is 1-A.
 Alpha  occ. eigenvalues --  -11.21665 -11.21662 -11.21591 -11.21482 -11.21423
 Alpha  occ. eigenvalues --  -11.21412 -11.21367 -11.21288 -11.21129 -11.21120
 Alpha  occ. eigenvalues --  -11.21067 -11.20979  -1.08522  -1.08363  -1.03614
 Alpha  occ. eigenvalues --   -1.03456  -0.96045  -0.95932  -0.87065  -0.86944
 Alpha  occ. eigenvalues --   -0.79772  -0.79460  -0.78372  -0.78152  -0.65148
 Alpha  occ. eigenvalues --   -0.65006  -0.61001  -0.60893  -0.59462  -0.59249
 Alpha  occ. eigenvalues --   -0.57706  -0.57495  -0.55356  -0.55206  -0.52733
 Alpha  occ. eigenvalues --   -0.52624  -0.52485  -0.52350  -0.49993  -0.49887
 Alpha  occ. eigenvalues --   -0.48177  -0.47821  -0.46716  -0.46508  -0.46063
 Alpha  occ. eigenvalues --   -0.45768  -0.45638  -0.45319  -0.43849  -0.43727
 Alpha virt. eigenvalues --    0.20403   0.23049   0.23668   0.23905   0.24962
 Alpha virt. eigenvalues --    0.26215   0.26927   0.28108   0.28645   0.29535
 Alpha virt. eigenvalues --    0.30716   0.31080   0.31708   0.32010   0.32054

 Mulliken charges:
               1
     1  C   -0.303109
     2  C   -0.299430
     3  C   -0.475925
     4  H    0.153849
     5  H    0.149372
     6  H    0.152288
     7  H    0.152105
     8  H    0.155014
     9  H    0.155368
    10  H    0.160653
    11  C   -0.297471
    12  C   -0.305708
    13  C   -0.475756
    14  H    0.149894
    15  H    0.149688
    16  H    0.156568
    17  H    0.153634
    18  H    0.155248
    19  H    0.155526
    20  H    0.160739
    21  C   -0.298525
    22  C   -0.299501
    23  C   -0.475654
    24  H    0.149821
    25  H    0.148498
    26  H    0.152128
    27  H    0.151491
    28  H    0.154926
    29  H    0.155248
    30  H    0.160192
    31  C   -0.298960
    32  C   -0.307551
    33  C   -0.479328
    34  H    0.149195
    35  H    0.149854
    36  H    0.150601
    37  H    0.162888
    38  H    0.159070
    39  H    0.154591
    40  H    0.158468
 Sum of Mulliken charges =  -0.00000

 Dipole moment (field-independent basis, Debye):
    X=              0.0697    Y=              0.0193    Z=             -0.0191  Tot=              0.0748
 Quadrupole moment (field-independent basis, Debye-Ang):
   XX=            -84.4220   YY=            -85.9192   ZZ=            -84.4517
   XY=              0.1374   XZ=             -0.5769   YZ=              0.7356

 Normal termination of Gaussian 16 at Wed May  5 16:40:20 2021.
