 Gaussian 16, Revision A.03,
 Gaussian 16:  EM64L-G16RevA.03 25-Dec-2016

 -------------
 #p 6-31g* mp2
 -------------

 ------------------------------------------------------
 Input file generated by CHIRIPA (05-May-2021 14:57:23)
 ------------------------------------------------------
 Symbolic Z-matrix:
 Charge =  0 Multiplicity = 1

                         Standard orientation:
 ---------------------------------------------------------------------
 Center     Atomic      Atomic             Coordinates (Angstroms)
 Number     Number       Type             X           Y           Z
 ---------------------------------------------------------------------
      1          6           0        6.130951    1.873094    0.083030
      2          6           0        6.562156    0.542462    0.081784
      3          6           0        5.636338   -0.503872    0.030844
      4          6           0        4.280884   -0.181968   -0.018272
      5          6           0        3.820041    1.133674   -0.018403
      6          6           0        4.763680    2.163941    0.033021
      7          1           0        6.857070    2.679671    0.122790
      8          1           0        7.623368    0.313615    0.120557
      9          1           0        5.942612   -1.542914    0.028669
     10          1           0        2.755554    1.330491   -0.057745
     11          1           0        4.425913    3.196393    0.033862
     12          7           0        3.291329   -1.281170   -0.072457
     13          8           0        2.102760   -0.971138   -0.115144
     14          8           0        3.723021   -2.431942   -0.071213
     15          6           0       -2.073348   -0.862824    0.023369
     16          6           0       -2.697793   -0.551554   -1.188942
     17          6           0       -4.010993   -0.072319   -1.208689
     18          6           0       -4.673158    0.084299    0.007986
     19          6           0       -4.078169   -0.217071    1.232100
     20          6           0       -2.764311   -0.694886    1.227898
     21          1           0       -1.052968   -1.234554    0.029407
     22          1           0       -2.163612   -0.680987   -2.125928
     23          1           0       -4.518384    0.176382   -2.132875
     24          1           0       -4.636258   -0.077613    2.149981
     25          1           0       -2.281870   -0.935812    2.170899
     26          7           0       -6.063732    0.590892   -0.000242
     27          8           0       -6.625496    0.720064    1.085287
     28          8           0       -6.565569    0.849193   -1.092065
 ---------------------------------------------------------------------

 SCF Done:  E(RHF) =  -868.340345691     A.U. after   16 cycles
 E2 =    -0.2597943968D+01 EUMP2 =    -0.87093828965900D+03

 The electronic state is 1-A.
 Alpha  occ. eigenvalues --  -20.61813 -20.61762 -20.60216 -20.60211 -15.86828
 Alpha  occ. eigenvalues --  -15.85266 -11.31914 -11.30448 -11.28459 -11.28434
 Alpha  occ. eigenvalues --  -11.28128 -11.27397 -11.27384 -11.27028 -11.27023
 Alpha  occ. eigenvalues --  -11.26484 -11.25914 -11.25898  -1.60851  -1.59297
 Alpha  occ. eigenvalues --   -1.40414  -1.38856  -1.20057  -1.18594  -1.09501
 Alpha  occ. eigenvalues --   -1.07974  -1.05418  -1.03985  -0.96384  -0.94843
 Alpha  occ. eigenvalues --   -0.86828  -0.85362  -0.83232  -0.81700  -0.78307
 Alpha  occ. eigenvalues --   -0.76816  -0.73072  -0.72152  -0.71485  -0.71159
 Alpha  occ. eigenvalues --   -0.70622  -0.69555  -0.65714  -0.65414  -0.64222
 Alpha  occ. eigenvalues --   -0.63964  -0.62769  -0.61349  -0.55922  -0.54288
 Alpha  occ. eigenvalues --   -0.53762  -0.53504  -0.52316  -0.52056  -0.49827
 Alpha  occ. eigenvalues --   -0.49774  -0.48252  -0.48224  -0.45881  -0.44304
 Alpha  occ. eigenvalues --   -0.38017  -0.37009  -0.36499  -0.35620
 Alpha virt. eigenvalues --    0.04212   0.05734   0.10649   0.12054   0.15767
 Alpha virt. eigenvalues --    0.17292   0.20806   0.22399   0.26756   0.27604
 Alpha virt. eigenvalues --    0.28101   0.29352   0.30443   0.31673   0.32270

 Mulliken charges:
               1
     1  C   -0.169799
     2  C   -0.218511
     3  C   -0.170285
     4  C    0.157474
     5  C   -0.170882
     6  C   -0.218454
     7  H    0.228185
     8  H    0.225710
     9  H    0.276609
    10  H    0.274099
    11  H    0.225736
    12  N    0.493025
    13  O   -0.474694
    14  O   -0.456044
    15  C   -0.179204
    16  C   -0.221599
    17  C   -0.172085
    18  C    0.156808
    19  C   -0.171976
    20  C   -0.221401
    21  H    0.251660
    22  H    0.224115
    23  H    0.272688
    24  H    0.272691
    25  H    0.223333
    26  N    0.488290
    27  O   -0.462748
    28  O   -0.462743
 Sum of Mulliken charges =  -0.00000

 Dipole moment (field-independent basis, Debye):
    X=              8.9867    Y=              2.0511    Z=              0.2203  Tot=              9.2205
 Quadrupole moment (field-independent basis, Debye-Ang):
   XX=           -119.0656   YY=           -105.0946   ZZ=           -100.8564
   XY=             22.4962   XZ=              0.6422   YZ=             -0.5242

 Normal termination of Gaussian 16 at Wed May  5 17:50:11 2021.
