 Gaussian 16, Revision A.03,
 Gaussian 16:  EM64L-G16RevA.03 25-Dec-2016

 -------------
 #p 6-31g* mp2
 -------------

 ------------------------------------------------------
 Input file generated by CHIRIPA (05-May-2021 14:51:09)
 ------------------------------------------------------
 Symbolic Z-matrix:
 Charge =  0 Multiplicity = 1

                         Standard orientation:
 ---------------------------------------------------------------------
 Center     Atomic      Atomic             Coordinates (Angstroms)
 Number     Number       Type             X           Y           Z
 ---------------------------------------------------------------------
      1          6           0        2.651406   -0.432608    0.098395
      2          6           0        1.899101   -1.626553   -0.490262
      3          6           0        0.394625   -1.566820   -0.224220
      4          1           0        2.470449   -0.390986    1.181200
      5          1           0        2.240120    0.495054   -0.323128
      6          1           0        2.312610   -2.551754   -0.068800
      7          1           0        2.082025   -1.665450   -1.571762
      8          1           0       -0.037871   -0.660163   -0.659560
      9          1           0        0.194024   -1.551503    0.851942
     10          1           0       -0.123588   -2.429888   -0.653671
     11          6           0        4.156481   -0.478052   -0.159313
     12          6           0        4.908786    0.715893    0.429344
     13          6           0        6.413262    0.656160    0.163302
     14          1           0        4.567767   -1.405714    0.262210
     15          1           0        4.337438   -0.519674   -1.242118
     16          1           0        4.725862    0.754790    1.510844
     17          1           0        4.495277    1.641094    0.007882
     18          1           0        6.613864    0.640843   -0.912860
     19          1           0        6.845758   -0.250497    0.598642
     20          1           0        6.931475    1.519228    0.592753
     21          6           0       -2.948552    0.997532   -0.256015
     22          6           0       -3.275281    2.399098    0.260556
     23          6           0       -2.355665    3.472964   -0.321605
     24          1           0       -1.904017    0.758566   -0.013556
     25          1           0       -3.024241    0.991466   -1.352203
     26          1           0       -3.200349    2.402168    1.355541
     27          1           0       -4.319217    2.634680    0.017008
     28          1           0       -2.436575    3.499033   -1.413106
     29          1           0       -1.311349    3.265200   -0.066968
     30          1           0       -2.606846    4.467119    0.061045
     31          6           0       -3.859335   -0.086872    0.316933
     32          6           0       -3.532606   -1.488438   -0.199639
     33          6           0       -4.452223   -2.562304    0.382524
     34          1           0       -3.783647   -0.080805    1.413122
     35          1           0       -4.903870    0.152095    0.074473
     36          1           0       -2.488670   -1.724020    0.043910
     37          1           0       -3.607539   -1.491508   -1.294624
     38          1           0       -5.496537   -2.354540    0.127886
     39          1           0       -4.371312   -2.588373    1.474025
     40          1           0       -4.201041   -3.556459   -0.000128
 ---------------------------------------------------------------------

 SCF Done:  E(RHF) =  -470.732551595     A.U. after   11 cycles
 E2 =    -0.1583558458D+01 EUMP2 =    -0.47231611005379D+03

 The electronic state is 1-A.
 Alpha  occ. eigenvalues --  -11.21630 -11.21622 -11.21555 -11.21439 -11.21416
 Alpha  occ. eigenvalues --  -11.21378 -11.21313 -11.21254 -11.21112 -11.21086
 Alpha  occ. eigenvalues --  -11.21054 -11.20980  -1.08467  -1.08345  -1.03572
 Alpha  occ. eigenvalues --   -1.03447  -0.96027  -0.95910  -0.87061  -0.86922
 Alpha  occ. eigenvalues --   -0.79701  -0.79482  -0.78320  -0.78099  -0.65101
 Alpha  occ. eigenvalues --   -0.64978  -0.60975  -0.60856  -0.59441  -0.59228
 Alpha  occ. eigenvalues --   -0.57694  -0.57468  -0.55355  -0.55162  -0.52797
 Alpha  occ. eigenvalues --   -0.52606  -0.52450  -0.52306  -0.50016  -0.49808
 Alpha  occ. eigenvalues --   -0.48004  -0.47825  -0.46719  -0.46521  -0.45981
 Alpha  occ. eigenvalues --   -0.45755  -0.45661  -0.45336  -0.43774  -0.43682
 Alpha virt. eigenvalues --    0.22061   0.22994   0.24129   0.24201   0.25559
 Alpha virt. eigenvalues --    0.26646   0.27035   0.27484   0.27848   0.29641
 Alpha virt. eigenvalues --    0.30042   0.31292   0.31720   0.31850   0.32261

 Mulliken charges:
               1
     1  C   -0.298551
     2  C   -0.300472
     3  C   -0.481792
     4  H    0.149378
     5  H    0.149305
     6  H    0.151955
     7  H    0.152283
     8  H    0.161681
     9  H    0.153977
    10  H    0.161519
    11  C   -0.298308
    12  C   -0.299669
    13  C   -0.475727
    14  H    0.149619
    15  H    0.149824
    16  H    0.151881
    17  H    0.152034
    18  H    0.155258
    19  H    0.155197
    20  H    0.160343
    21  C   -0.304527
    22  C   -0.299030
    23  C   -0.475716
    24  H    0.156221
    25  H    0.148522
    26  H    0.151762
    27  H    0.151818
    28  H    0.154886
    29  H    0.154694
    30  H    0.160220
    31  C   -0.297188
    32  C   -0.310206
    33  C   -0.475034
    34  H    0.148699
    35  H    0.149006
    36  H    0.167121
    37  H    0.150421
    38  H    0.154594
    39  H    0.154564
    40  H    0.159438
 Sum of Mulliken charges =  -0.00000

 Dipole moment (field-independent basis, Debye):
    X=              0.0574    Y=             -0.0170    Z=             -0.0070  Tot=              0.0602
 Quadrupole moment (field-independent basis, Debye-Ang):
   XX=            -86.2261   YY=            -85.3867   ZZ=            -83.5353
   XY=             -0.8110   XZ=              0.9244   YZ=             -0.2387

 Normal termination of Gaussian 16 at Thu May  6 06:53:44 2021.
