 Gaussian 16, Revision A.03,
 Gaussian 16:  EM64L-G16RevA.03 25-Dec-2016

 -------------
 #p 6-31g* mp2
 -------------

 ------------------------------------------------------
 Input file generated by CHIRIPA (05-May-2021 14:53:16)
 ------------------------------------------------------
 Symbolic Z-matrix:
 Charge =  0 Multiplicity = 1

                         Standard orientation:
 ---------------------------------------------------------------------
 Center     Atomic      Atomic             Coordinates (Angstroms)
 Number     Number       Type             X           Y           Z
 ---------------------------------------------------------------------
      1          6           0        3.545279   -0.256952    0.481661
      2          6           0        3.313623   -1.667527   -0.061109
      3          6           0        3.645467   -2.755844    0.960282
      4          1           0        4.593428   -0.159457    0.796022
      5          1           0        2.933891   -0.113566    1.383348
      6          1           0        3.924217   -1.807732   -0.962294
      7          1           0        2.265951   -1.761614   -0.374393
      8          1           0        3.027127   -2.644195    1.856826
      9          1           0        4.694815   -2.690575    1.265585
     10          1           0        3.472692   -3.756265    0.551421
     11          6           0        3.217953    0.841931   -0.527816
     12          6           0        3.449609    2.252506    0.014954
     13          6           0        3.117765    3.340823   -1.006437
     14          1           0        3.829341    0.698545   -1.429503
     15          1           0        2.169804    0.744436   -0.842178
     16          1           0        4.497281    2.346593    0.328238
     17          1           0        2.839015    2.392711    0.916138
     18          1           0        2.068417    3.275553   -1.311740
     19          1           0        3.736105    3.229174   -1.902981
     20          1           0        3.290540    4.341243   -0.597576
     21          6           0       -4.039316    1.754814    0.710526
     22          6           0       -4.550587    0.820770   -0.196493
     23          6           0       -3.785200   -0.281963   -0.587279
     24          6           0       -2.506789   -0.420247   -0.048918
     25          6           0       -1.969440    0.493232    0.856676
     26          6           0       -2.752643    1.588359    1.233293
     27          1           0       -4.640807    2.608490    1.008595
     28          1           0       -5.549507    0.947493   -0.604102
     29          1           0       -4.156342   -1.020185   -1.287778
     30          1           0       -0.970225    0.340049    1.245932
     31          1           0       -2.352998    2.312165    1.937873
     32          7           0       -1.687078   -1.583634   -0.455127
     33          8           0       -0.563703   -1.682788    0.033580
     34          8           0       -2.183486   -2.374315   -1.254528
 ---------------------------------------------------------------------

 SCF Done:  E(RHF) =  -669.536284285     A.U. after   15 cycles
 E2 =    -0.2091280118D+01 EUMP2 =    -0.67162756440328D+03

 The electronic state is 1-A.
 Alpha  occ. eigenvalues --  -20.61007 -20.60997 -15.86038 -11.31337 -11.27899
 Alpha  occ. eigenvalues --  -11.27892 -11.27627 -11.26899 -11.26889 -11.21354
 Alpha  occ. eigenvalues --  -11.20937 -11.20849 -11.20646 -11.20346 -11.20026
 Alpha  occ. eigenvalues --   -1.60063  -1.39621  -1.19502  -1.08910  -1.07787
 Alpha  occ. eigenvalues --   -1.04895  -1.02851  -0.95756  -0.95347  -0.86374
 Alpha  occ. eigenvalues --   -0.86296  -0.82593  -0.78967  -0.77663  -0.77508
 Alpha  occ. eigenvalues --   -0.72266  -0.71375  -0.70610  -0.65163  -0.64897
 Alpha  occ. eigenvalues --   -0.64413  -0.62243  -0.60232  -0.58761  -0.56925
 Alpha  occ. eigenvalues --   -0.55398  -0.54644  -0.53228  -0.52986  -0.52060
 Alpha  occ. eigenvalues --   -0.51766  -0.49326  -0.49024  -0.49010  -0.47270
 Alpha  occ. eigenvalues --   -0.46002  -0.45224  -0.45078  -0.44716  -0.43120
 Alpha  occ. eigenvalues --   -0.37478  -0.36496
 Alpha virt. eigenvalues --    0.04858   0.11153   0.16344   0.20969   0.23096
 Alpha virt. eigenvalues --    0.24948   0.26483   0.27446   0.28166   0.28318
 Alpha virt. eigenvalues --    0.28955   0.31081   0.31987   0.32307   0.32658

 Mulliken charges:
               1
     1  C   -0.295493
     2  C   -0.311377
     3  C   -0.473599
     4  H    0.145551
     5  H    0.144790
     6  H    0.146407
     7  H    0.181754
     8  H    0.154725
     9  H    0.148304
    10  H    0.161732
    11  C   -0.299146
    12  C   -0.298148
    13  C   -0.475063
    14  H    0.149411
    15  H    0.151964
    16  H    0.151897
    17  H    0.145699
    18  H    0.152875
    19  H    0.156398
    20  H    0.157601
    21  C   -0.170513
    22  C   -0.218543
    23  C   -0.170512
    24  C    0.157764
    25  C   -0.171253
    26  C   -0.218448
    27  H    0.226251
    28  H    0.224015
    29  H    0.275984
    30  H    0.275492
    31  H    0.224159
    32  N    0.492596
    33  O   -0.465040
    34  O   -0.458236
 Sum of Mulliken charges =  -0.00000

 Dipole moment (field-independent basis, Debye):
    X=             -3.1631    Y=              3.9719    Z=              1.3496  Tot=              5.2538
 Quadrupole moment (field-independent basis, Debye-Ang):
   XX=            -77.6317   YY=            -99.3503   ZZ=            -94.1044
   XY=             -7.8925   XZ=             -1.6606   YZ=              1.0706

 Normal termination of Gaussian 16 at Thu May  6 12:13:54 2021.
