 Gaussian 16, Revision A.03,
 Gaussian 16:  EM64L-G16RevA.03 25-Dec-2016

 -------------
 #p 6-31g* mp2
 -------------

 ------------------------------------------------------
 Input file generated by CHIRIPA (05-May-2021 14:53:15)
 ------------------------------------------------------
 Symbolic Z-matrix:
 Charge =  0 Multiplicity = 1

                         Standard orientation:
 ---------------------------------------------------------------------
 Center     Atomic      Atomic             Coordinates (Angstroms)
 Number     Number       Type             X           Y           Z
 ---------------------------------------------------------------------
      1          6           0       -3.706405   -0.555806    0.133457
      2          6           0       -3.172335   -1.197484    1.414474
      3          6           0       -1.689842   -1.559690    1.320584
      4          1           0       -3.548350   -1.244698   -0.707609
      5          1           0       -3.120681    0.347173   -0.087796
      6          1           0       -3.759787   -2.098220    1.633999
      7          1           0       -3.331853   -0.507063    2.252620
      8          1           0       -1.086800   -0.667047    1.125316
      9          1           0       -1.517165   -2.267245    0.503180
     10          1           0       -1.328839   -2.016993    2.247088
     11          6           0       -5.187064   -0.188069    0.211853
     12          6           0       -5.721133    0.453609   -1.069164
     13          6           0       -7.203626    0.815815   -0.975274
     14          1           0       -5.772787   -1.091048    0.433106
     15          1           0       -5.345118    0.500823    1.052919
     16          1           0       -5.561615   -0.236812   -1.907310
     17          1           0       -5.133682    1.354345   -1.288689
     18          1           0       -7.376304    1.523370   -0.157870
     19          1           0       -7.806669   -0.076828   -0.780006
     20          1           0       -7.564630    1.273118   -1.901778
     21          6           0        1.714353    2.010739    0.422400
     22          6           0        1.344497    0.795106   -0.162375
     23          6           0        2.310995   -0.165328   -0.475423
     24          6           0        3.644128    0.124277   -0.188763
     25          6           0        4.044107    1.326093    0.393428
     26          6           0        3.060604    2.271892    0.697951
     27          1           0        0.956950    2.751142    0.662272
     28          1           0        0.299737    0.589570   -0.377492
     29          1           0        2.052443   -1.114681   -0.928521
     30          1           0        5.093539    1.502317    0.596053
     31          1           0        3.350751    3.215103    1.152055
     32          7           0        4.676318   -0.884745   -0.515660
     33          8           0        5.844088   -0.605402   -0.253138
     34          8           0        4.298032   -1.935852   -1.028213
 ---------------------------------------------------------------------

 SCF Done:  E(RHF) =  -669.535398135     A.U. after   15 cycles
 E2 =    -0.2091157286D+01 EUMP2 =    -0.67162655542110D+03

 The electronic state is 1-A.
 Alpha  occ. eigenvalues --  -20.60737 -20.60732 -15.85791 -11.31159 -11.27737
 Alpha  occ. eigenvalues --  -11.27724 -11.27485 -11.26752 -11.26717 -11.22273
 Alpha  occ. eigenvalues --  -11.22124 -11.22114 -11.21947 -11.21829 -11.21497
 Alpha  occ. eigenvalues --   -1.59813  -1.39366  -1.19336  -1.09064  -1.08733
 Alpha  occ. eigenvalues --   -1.04740  -1.04136  -0.96595  -0.95565  -0.87614
 Alpha  occ. eigenvalues --   -0.86139  -0.82397  -0.80203  -0.78880  -0.77440
 Alpha  occ. eigenvalues --   -0.72010  -0.71135  -0.70447  -0.65708  -0.64988
 Alpha  occ. eigenvalues --   -0.64761  -0.62131  -0.61502  -0.59953  -0.58200
 Alpha  occ. eigenvalues --   -0.55909  -0.55243  -0.53268  -0.53178  -0.53008
 Alpha  occ. eigenvalues --   -0.52733  -0.50525  -0.48778  -0.48763  -0.48500
 Alpha  occ. eigenvalues --   -0.47230  -0.46415  -0.46339  -0.44770  -0.44390
 Alpha  occ. eigenvalues --   -0.37318  -0.36324
 Alpha virt. eigenvalues --    0.05091   0.11221   0.16521   0.20078   0.22511
 Alpha virt. eigenvalues --    0.23721   0.25377   0.26412   0.27176   0.28284
 Alpha virt. eigenvalues --    0.28933   0.30057   0.31296   0.31409   0.32074

 Mulliken charges:
               1
     1  C   -0.298123
     2  C   -0.300047
     3  C   -0.479904
     4  H    0.151277
     5  H    0.141690
     6  H    0.155803
     7  H    0.152652
     8  H    0.148700
     9  H    0.156264
    10  H    0.166235
    11  C   -0.298530
    12  C   -0.299896
    13  C   -0.476035
    14  H    0.152111
    15  H    0.150038
    16  H    0.153100
    17  H    0.150229
    18  H    0.155381
    19  H    0.156545
    20  H    0.161513
    21  C   -0.171925
    22  C   -0.219316
    23  C   -0.171368
    24  C    0.158408
    25  C   -0.170779
    26  C   -0.218529
    27  H    0.225174
    28  H    0.227080
    29  H    0.276202
    30  H    0.275563
    31  H    0.223271
    32  N    0.488119
    33  O   -0.460600
    34  O   -0.460304
 Sum of Mulliken charges =  -0.00000

 Dipole moment (field-independent basis, Debye):
    X=             -3.7731    Y=              3.4897    Z=              1.1875  Tot=              5.2749
 Quadrupole moment (field-independent basis, Debye-Ang):
   XX=           -119.4641   YY=            -91.5345   ZZ=            -95.1170
   XY=             15.8490   XZ=              6.3101   YZ=              1.0474

 Normal termination of Gaussian 16 at Thu May  6 15:28:41 2021.
