 Gaussian 16, Revision A.03,
 Gaussian 16:  EM64L-G16RevA.03 25-Dec-2016

 -------------
 #p 6-31g* mp2
 -------------

 ------------------------------------------------------
 Input file generated by CHIRIPA (05-May-2021 14:55:23)
 ------------------------------------------------------
 Symbolic Z-matrix:
 Charge =  0 Multiplicity = 1

                         Standard orientation:
 ---------------------------------------------------------------------
 Center     Atomic      Atomic             Coordinates (Angstroms)
 Number     Number       Type             X           Y           Z
 ---------------------------------------------------------------------
      1          6           0        0.044572   -2.500965    0.810609
      2          6           0        0.444907   -2.465517   -0.529166
      3          6           0        1.405907   -1.545561   -0.958940
      4          6           0        1.948232   -0.671755   -0.017857
      5          6           0        1.570031   -0.682475    1.323835
      6          6           0        0.607420   -1.610900    1.731210
      7          1           0       -0.702582   -3.218899    1.135767
      8          1           0        0.009499   -3.155552   -1.246325
      9          1           0        1.734064   -1.496414   -1.990112
     10          1           0        2.022051    0.018044    2.015477
     11          1           0        0.298426   -1.636155    2.772330
     12          7           0        2.966453    0.306645   -0.460983
     13          8           0        3.429058    1.065783    0.387747
     14          8           0        3.282649    0.295851   -1.648645
     15          6           0       -2.471743    0.330063   -0.136106
     16          6           0       -3.968021    0.113107   -0.364287
     17          6           0       -4.338158   -1.364781   -0.493285
     18          1           0       -1.911628   -0.118420   -0.968019
     19          1           0       -2.164914   -0.206385    0.772450
     20          1           0       -4.272218    0.650941   -1.271379
     21          1           0       -4.524649    0.562326    0.468169
     22          1           0       -4.062533   -1.911581    0.414263
     23          1           0       -3.808669   -1.822463   -1.335169
     24          1           0       -5.412384   -1.496893   -0.655899
     25          6           0       -2.086124    1.802434   -0.005143
     26          6           0       -0.589847    2.019391    0.223038
     27          6           0       -0.219711    3.497278    0.352035
     28          1           0       -2.392955    2.338882   -0.913699
     29          1           0       -2.646240    2.250917    0.826770
     30          1           0       -0.033219    1.570171   -0.609418
     31          1           0       -0.285650    1.481557    1.130129
     32          1           0       -0.749200    3.954960    1.193920
     33          1           0       -0.495334    4.044079   -0.555511
     34          1           0        0.854517    3.629390    0.514650
 ---------------------------------------------------------------------

 SCF Done:  E(RHF) =  -669.533843198     A.U. after   15 cycles
 E2 =    -0.2096378117D+01 EUMP2 =    -0.67163022131575D+03

 The electronic state is 1-A.
 Alpha  occ. eigenvalues --  -20.60836 -20.60825 -15.85873 -11.31178 -11.27807
 Alpha  occ. eigenvalues --  -11.27778 -11.27540 -11.26799 -11.26789 -11.21890
 Alpha  occ. eigenvalues --  -11.21606 -11.21490 -11.21450 -11.21367 -11.20711
 Alpha  occ. eigenvalues --   -1.59900  -1.39456  -1.19404  -1.08798  -1.08524
 Alpha  occ. eigenvalues --   -1.04818  -1.03621  -0.96064  -0.95635  -0.87084
 Alpha  occ. eigenvalues --   -0.86208  -0.82474  -0.79718  -0.78356  -0.77519
 Alpha  occ. eigenvalues --   -0.72098  -0.71217  -0.70518  -0.65178  -0.65059
 Alpha  occ. eigenvalues --   -0.64813  -0.62165  -0.61035  -0.59463  -0.57666
 Alpha  occ. eigenvalues --   -0.55375  -0.55308  -0.53349  -0.52903  -0.52625
 Alpha  occ. eigenvalues --   -0.52504  -0.50036  -0.48856  -0.48853  -0.48063
 Alpha  occ. eigenvalues --   -0.46761  -0.45861  -0.45697  -0.44851  -0.43837
 Alpha  occ. eigenvalues --   -0.37263  -0.36303
 Alpha virt. eigenvalues --    0.04968   0.11119   0.16401   0.20896   0.22993
 Alpha virt. eigenvalues --    0.23920   0.26066   0.27050   0.27423   0.27888
 Alpha virt. eigenvalues --    0.28288   0.30277   0.31582   0.31786   0.32112

 Mulliken charges:
               1
     1  C   -0.166773
     2  C   -0.217018
     3  C   -0.173293
     4  C    0.163500
     5  C   -0.170139
     6  C   -0.219063
     7  H    0.226305
     8  H    0.223693
     9  H    0.275565
    10  H    0.275576
    11  H    0.223203
    12  N    0.489298
    13  O   -0.460957
    14  O   -0.460656
    15  C   -0.299053
    16  C   -0.299529
    17  C   -0.474212
    18  H    0.149675
    19  H    0.146811
    20  H    0.153525
    21  H    0.151958
    22  H    0.148566
    23  H    0.151956
    24  H    0.162149
    25  C   -0.298157
    26  C   -0.301181
    27  C   -0.478432
    28  H    0.150219
    29  H    0.147979
    30  H    0.150922
    31  H    0.149043
    32  H    0.151677
    33  H    0.155492
    34  H    0.171353
 Sum of Mulliken charges =  -0.00000

 Dipole moment (field-independent basis, Debye):
    X=             -3.4494    Y=             -3.4363    Z=              1.5532  Tot=              5.1107
 Quadrupole moment (field-independent basis, Debye-Ang):
   XX=           -110.0169   YY=            -91.0581   ZZ=            -89.5690
   XY=             -4.5461   XZ=              3.3748   YZ=              0.6544

 Normal termination of Gaussian 16 at Thu May  6 04:42:14 2021.
