 Gaussian 16, Revision A.03,
 Gaussian 16:  EM64L-G16RevA.03 25-Dec-2016

 -------------
 #p 6-31g* mp2
 -------------

 ------------------------------------------------------
 Input file generated by CHIRIPA (05-May-2021 14:57:23)
 ------------------------------------------------------
 Symbolic Z-matrix:
 Charge =  0 Multiplicity = 1

                         Standard orientation:
 ---------------------------------------------------------------------
 Center     Atomic      Atomic             Coordinates (Angstroms)
 Number     Number       Type             X           Y           Z
 ---------------------------------------------------------------------
      1          6           0        6.122611   -0.003684   -0.624299
      2          6           0        5.555372    1.221195   -0.257652
      3          6           0        4.231838    1.285656    0.188052
      4          6           0        3.501117    0.100392    0.255035
      5          6           0        4.038036   -1.135198   -0.103189
      6          6           0        5.363471   -1.175906   -0.546035
      7          1           0        7.151502   -0.044533   -0.969422
      8          1           0        6.142559    2.133163   -0.317416
      9          1           0        3.767786    2.220494    0.478141
     10          1           0        3.427721   -2.027383   -0.032900
     11          1           0        5.801385   -2.128570   -0.830123
     12          7           0        2.098945    0.156060    0.725369
     13          8           0        1.476266   -0.902435    0.775337
     14          8           0        1.649151    1.257133    1.035144
     15          6           0       -6.128595    0.668232    0.038149
     16          6           0       -5.139423    1.575613   -0.355195
     17          6           0       -3.808409    1.165892   -0.477999
     18          6           0       -3.500539   -0.164638   -0.198369
     19          6           0       -4.463481   -1.092429    0.195632
     20          6           0       -5.788066   -0.660551    0.311826
     21          1           0       -7.160061    0.995119    0.130979
     22          1           0       -5.400977    2.608176   -0.568380
     23          1           0       -3.022690    1.847404   -0.780661
     24          1           0       -4.172144   -2.115276    0.401361
     25          1           0       -6.554180   -1.367431    0.617497
     26          7           0       -2.094856   -0.610120   -0.324876
     27          8           0       -1.849463   -1.787775   -0.072794
     28          8           0       -1.265095    0.226803   -0.673719
 ---------------------------------------------------------------------

 SCF Done:  E(RHF) =  -868.335188666     A.U. after   16 cycles
 E2 =    -0.2601245756D+01 EUMP2 =    -0.87093643442170D+03

 The electronic state is 1-A.
 Alpha  occ. eigenvalues --  -20.59390 -20.59335 -20.59313 -20.59201 -15.84436
 Alpha  occ. eigenvalues --  -15.84319 -11.30223 -11.30157 -11.26854 -11.26828
 Alpha  occ. eigenvalues --  -11.26805 -11.26755 -11.26682 -11.26630 -11.25969
 Alpha  occ. eigenvalues --  -11.25953 -11.25926 -11.25897  -1.58410  -1.58296
 Alpha  occ. eigenvalues --   -1.37963  -1.37856  -1.18436  -1.18375  -1.07759
 Alpha  occ. eigenvalues --   -1.07680  -1.03905  -1.03851  -0.94541  -0.94418
 Alpha  occ. eigenvalues --   -0.85285  -0.85228  -0.81365  -0.81274  -0.76326
 Alpha  occ. eigenvalues --   -0.76237  -0.70697  -0.70541  -0.69786  -0.69566
 Alpha  occ. eigenvalues --   -0.69550  -0.69487  -0.64085  -0.64022  -0.63921
 Alpha  occ. eigenvalues --   -0.63861  -0.61250  -0.61195  -0.54410  -0.54345
 Alpha  occ. eigenvalues --   -0.52211  -0.52153  -0.52008  -0.51955  -0.47796
 Alpha  occ. eigenvalues --   -0.47369  -0.47282  -0.46917  -0.43268  -0.43131
 Alpha  occ. eigenvalues --   -0.36447  -0.36379  -0.35528  -0.35476
 Alpha virt. eigenvalues --    0.06170   0.06376   0.12121   0.12172   0.17610
 Alpha virt. eigenvalues --    0.17754   0.22176   0.22227   0.28057   0.28101
 Alpha virt. eigenvalues --    0.29109   0.29169   0.31688   0.31737   0.33389

 Mulliken charges:
               1
     1  C   -0.172514
     2  C   -0.218660
     3  C   -0.171797
     4  C    0.160846
     5  C   -0.171055
     6  C   -0.218740
     7  H    0.221749
     8  H    0.219588
     9  H    0.273303
    10  H    0.277765
    11  H    0.220602
    12  N    0.490344
    13  O   -0.445984
    14  O   -0.465710
    15  C   -0.172310
    16  C   -0.218672
    17  C   -0.170633
    18  C    0.160374
    19  C   -0.171578
    20  C   -0.218630
    21  H    0.222053
    22  H    0.220478
    23  H    0.276478
    24  H    0.274358
    25  H    0.220217
    26  N    0.489643
    27  O   -0.458923
    28  O   -0.452590
 Sum of Mulliken charges =  -0.00000

 Dipole moment (field-independent basis, Debye):
    X=             -0.0462    Y=              1.2408    Z=             -1.1833  Tot=              1.7152
 Quadrupole moment (field-independent basis, Debye-Ang):
   XX=            -40.1579   YY=            -96.5103   ZZ=           -107.2619
   XY=             -3.3004   XZ=             -5.6775   YZ=             -1.5018

 Normal termination of Gaussian 16 at Thu May  6 08:11:37 2021.
