 Gaussian 16, Revision A.03,
 Gaussian 16:  EM64L-G16RevA.03 25-Dec-2016

 -------------
 #p 6-31g* mp2
 -------------

 ------------------------------------------------------
 Input file generated by CHIRIPA (05-May-2021 14:55:18)
 ------------------------------------------------------
 Symbolic Z-matrix:
 Charge =  0 Multiplicity = 1

                         Standard orientation:
 ---------------------------------------------------------------------
 Center     Atomic      Atomic             Coordinates (Angstroms)
 Number     Number       Type             X           Y           Z
 ---------------------------------------------------------------------
      1          6           0        5.126231    0.192849   -0.483429
      2          6           0        4.569117    0.666820    0.708836
      3          6           0        3.257601    0.334546    1.061069
      4          6           0        2.528442   -0.477427    0.193707
      5          6           0        3.055461   -0.965284   -1.001089
      6          6           0        4.368960   -0.620256   -1.333089
      7          1           0        6.145818    0.455921   -0.749194
      8          1           0        5.154880    1.298460    1.370619
      9          1           0        2.801552    0.687689    1.977982
     10          1           0        2.446857   -1.593125   -1.640491
     11          1           0        4.799028   -0.989794   -2.259657
     12          7           0        1.138949   -0.835941    0.555890
     13          8           0        0.517400   -1.552817   -0.225393
     14          8           0        0.697723   -0.393279    1.614194
     15          6           0       -3.414310    1.290560   -0.170476
     16          6           0       -1.947654    1.680402   -0.357369
     17          6           0       -1.733192    3.194265   -0.353035
     18          1           0       -4.013670    1.749520   -0.968642
     19          1           0       -3.780423    1.710976    0.776417
     20          1           0       -1.584024    1.258212   -1.302961
     21          1           0       -1.351689    1.220304    0.441225
     22          1           0       -2.069345    3.628258    0.594199
     23          1           0       -2.303000    3.666382   -1.159897
     24          1           0       -0.677769    3.450610   -0.488051
     25          6           0       -3.644755   -0.219612   -0.172601
     26          6           0       -5.111411   -0.609453    0.014292
     27          6           0       -5.325873   -2.123317    0.009958
     28          1           0       -3.278644   -0.640028   -1.119494
     29          1           0       -3.045397   -0.678572    0.625565
     30          1           0       -5.707377   -0.149356   -0.784302
     31          1           0       -5.475042   -0.187264    0.959884
     32          1           0       -4.756065   -2.595433    0.816820
     33          1           0       -4.989720   -2.557310   -0.937277
     34          1           0       -6.381296   -2.379662    0.144974
 ---------------------------------------------------------------------

 SCF Done:  E(RHF) =  -669.536562772     A.U. after   15 cycles
 E2 =    -0.2091665505D+01 EUMP2 =    -0.67162822827703D+03

 The electronic state is 1-A.
 Alpha  occ. eigenvalues --  -20.60998 -20.60988 -15.86001 -11.31311 -11.27870
 Alpha  occ. eigenvalues --  -11.27867 -11.27606 -11.26873 -11.26864 -11.20539
 Alpha  occ. eigenvalues --  -11.20327 -11.20240 -11.20219 -11.20090 -11.19985
 Alpha  occ. eigenvalues --   -1.60036  -1.39595  -1.19475  -1.08883  -1.07238
 Alpha  occ. eigenvalues --   -1.04869  -1.02459  -0.95727  -0.94931  -0.86270
 Alpha  occ. eigenvalues --   -0.85950  -0.82564  -0.78506  -0.77619  -0.77012
 Alpha  occ. eigenvalues --   -0.72225  -0.71339  -0.70585  -0.65132  -0.64873
 Alpha  occ. eigenvalues --   -0.63867  -0.62217  -0.59859  -0.58307  -0.56536
 Alpha  occ. eigenvalues --   -0.55376  -0.54223  -0.53202  -0.52961  -0.51674
 Alpha  occ. eigenvalues --   -0.51351  -0.49045  -0.48987  -0.48849  -0.46824
 Alpha  occ. eigenvalues --   -0.45613  -0.44967  -0.44566  -0.44337  -0.42681
 Alpha  occ. eigenvalues --   -0.37450  -0.36469
 Alpha virt. eigenvalues --    0.04870   0.11187   0.16356   0.21319   0.24047
 Alpha virt. eigenvalues --    0.25289   0.27241   0.27871   0.28136   0.28745
 Alpha virt. eigenvalues --    0.29077   0.30907   0.32318   0.32507   0.32675

 Mulliken charges:
               1
     1  C   -0.170496
     2  C   -0.218587
     3  C   -0.170715
     4  C    0.159225
     5  C   -0.170750
     6  C   -0.218603
     7  H    0.226082
     8  H    0.223917
     9  H    0.275810
    10  H    0.275848
    11  H    0.223883
    12  N    0.488838
    13  O   -0.458000
    14  O   -0.460779
    15  C   -0.297164
    16  C   -0.310343
    17  C   -0.474020
    18  H    0.143542
    19  H    0.146697
    20  H    0.148915
    21  H    0.173183
    22  H    0.153542
    23  H    0.151104
    24  H    0.153423
    25  C   -0.299832
    26  C   -0.299209
    27  C   -0.474775
    28  H    0.150187
    29  H    0.164819
    30  H    0.147297
    31  H    0.149254
    32  H    0.157835
    33  H    0.154367
    34  H    0.155505
 Sum of Mulliken charges =  -0.00000

 Dipole moment (field-independent basis, Debye):
    X=              5.1922    Y=              1.0572    Z=             -1.1774  Tot=              5.4280
 Quadrupole moment (field-independent basis, Debye-Ang):
   XX=            -71.7383   YY=            -97.0188   ZZ=            -90.9479
   XY=              1.1755   XZ=             -2.1334   YZ=              3.6793

 Normal termination of Gaussian 16 at Thu May  6 14:01:29 2021.
