 Gaussian 16, Revision A.03,
 Gaussian 16:  EM64L-G16RevA.03 25-Dec-2016

 -------------
 #p 6-31g* mp2
 -------------

 ------------------------------------------------------
 Input file generated by CHIRIPA (05-May-2021 14:55:25)
 ------------------------------------------------------
 Symbolic Z-matrix:
 Charge =  0 Multiplicity = 1

                         Standard orientation:
 ---------------------------------------------------------------------
 Center     Atomic      Atomic             Coordinates (Angstroms)
 Number     Number       Type             X           Y           Z
 ---------------------------------------------------------------------
      1          6           0        4.306726   -1.211451   -1.086212
      2          6           0        3.310355   -1.965517   -0.457601
      3          6           0        2.306650   -1.336951    0.285385
      4          6           0        2.329868    0.053708    0.379290
      5          6           0        3.309008    0.832592   -0.235458
      6          6           0        4.302879    0.182739   -0.973333
      7          1           0        5.082608   -1.708004   -1.661396
      8          1           0        3.310841   -3.048410   -0.543547
      9          1           0        1.523321   -1.896380    0.782229
     10          1           0        3.282161    1.910520   -0.131695
     11          1           0        5.075418    0.770908   -1.460452
     12          7           0        1.272496    0.730410    1.163151
     13          8           0        1.315209    1.956894    1.230611
     14          8           0        0.421036    0.021513    1.695239
     15          6           0       -3.190849    0.701739   -0.755077
     16          6           0       -2.481219    1.882709   -0.091960
     17          6           0       -2.460517    3.131159   -0.974421
     18          1           0       -2.693800    0.471218   -1.707309
     19          1           0       -4.220737    0.993923   -1.002777
     20          1           0       -1.453404    1.587936    0.155669
     21          1           0       -2.979897    2.110324    0.858896
     22          1           0       -3.479966    3.452540   -1.211142
     23          1           0       -1.944800    2.927185   -1.918365
     24          1           0       -1.948479    3.963136   -0.480972
     25          6           0       -3.219739   -0.553718    0.114819
     26          6           0       -3.929368   -1.734688   -0.548297
     27          6           0       -3.950072   -2.983138    0.334164
     28          1           0       -2.189851   -0.845902    0.362520
     29          1           0       -3.716788   -0.323196    1.067052
     30          1           0       -3.430690   -1.962302   -1.499154
     31          1           0       -4.957184   -1.439915   -0.795926
     32          1           0       -4.465789   -2.779165    1.278108
     33          1           0       -2.930622   -3.304520    0.570885
     34          1           0       -4.462108   -3.815115   -0.159286
 ---------------------------------------------------------------------

 SCF Done:  E(RHF) =  -669.536246146     A.U. after   15 cycles
 E2 =    -0.2092437340D+01 EUMP2 =    -0.67162868348632D+03

 The electronic state is 1-A.
 Alpha  occ. eigenvalues --  -20.61088 -20.61080 -15.86076 -11.31375 -11.27934
 Alpha  occ. eigenvalues --  -11.27927 -11.27661 -11.26927 -11.26917 -11.20907
 Alpha  occ. eigenvalues --  -11.20539 -11.20382 -11.20287 -11.20192 -11.19993
 Alpha  occ. eigenvalues --   -1.60130  -1.39683  -1.19538  -1.08948  -1.07430
 Alpha  occ. eigenvalues --   -1.04927  -1.02584  -0.95793  -0.95068  -0.86329
 Alpha  occ. eigenvalues --   -0.86097  -0.82631  -0.78640  -0.77691  -0.77179
 Alpha  occ. eigenvalues --   -0.72293  -0.71454  -0.70645  -0.65192  -0.64928
 Alpha  occ. eigenvalues --   -0.64073  -0.62274  -0.60002  -0.58442  -0.56638
 Alpha  occ. eigenvalues --   -0.55432  -0.54386  -0.53263  -0.53017  -0.51787
 Alpha  occ. eigenvalues --   -0.51488  -0.49169  -0.49072  -0.48986  -0.46938
 Alpha  occ. eigenvalues --   -0.45677  -0.45208  -0.44746  -0.44430  -0.42816
 Alpha  occ. eigenvalues --   -0.37510  -0.36526
 Alpha virt. eigenvalues --    0.04762   0.11128   0.16241   0.21206   0.23744
 Alpha virt. eigenvalues --    0.25164   0.26991   0.27452   0.28002   0.28720
 Alpha virt. eigenvalues --    0.29016   0.31034   0.32021   0.32428   0.32699

 Mulliken charges:
               1
     1  C   -0.170361
     2  C   -0.218562
     3  C   -0.170975
     4  C    0.159429
     5  C   -0.170716
     6  C   -0.218612
     7  H    0.226384
     8  H    0.224228
     9  H    0.275734
    10  H    0.276186
    11  H    0.224200
    12  N    0.486166
    13  O   -0.457630
    14  O   -0.458450
    15  C   -0.298253
    16  C   -0.302681
    17  C   -0.475139
    18  H    0.142575
    19  H    0.144854
    20  H    0.168490
    21  H    0.152778
    22  H    0.149754
    23  H    0.148321
    24  H    0.163525
    25  C   -0.301508
    26  C   -0.298917
    27  C   -0.473863
    28  H    0.160963
    29  H    0.150520
    30  H    0.147037
    31  H    0.149756
    32  H    0.156210
    33  H    0.152221
    34  H    0.156336
 Sum of Mulliken charges =  -0.00000

 Dipole moment (field-independent basis, Debye):
    X=              4.0603    Y=             -2.3364    Z=             -2.5580  Tot=              5.3375
 Quadrupole moment (field-independent basis, Debye-Ang):
   XX=            -77.0122   YY=            -92.4929   ZZ=            -97.7205
   XY=             -3.8638   XZ=             -6.6946   YZ=             -1.2288

 Normal termination of Gaussian 16 at Thu May  6 09:34:27 2021.
