 Gaussian 16, Revision A.03,
 Gaussian 16:  EM64L-G16RevA.03 25-Dec-2016

 -------------
 #p 6-31g* mp2
 -------------

 ------------------------------------------------------
 Input file generated by CHIRIPA (05-May-2021 14:51:12)
 ------------------------------------------------------
 Symbolic Z-matrix:
 Charge =  0 Multiplicity = 1

                         Standard orientation:
 ---------------------------------------------------------------------
 Center     Atomic      Atomic             Coordinates (Angstroms)
 Number     Number       Type             X           Y           Z
 ---------------------------------------------------------------------
      1          6           0       -2.218849   -1.158953   -0.416330
      2          6           0       -1.425454   -2.253006    0.298903
      3          6           0       -0.292674   -2.818236   -0.558488
      4          1           0       -2.631368   -1.564962   -1.350102
      5          1           0       -1.535182   -0.347977   -0.703230
      6          1           0       -2.110651   -3.061047    0.585592
      7          1           0       -1.014936   -1.844399    1.231175
      8          1           0        0.413480   -2.028073   -0.833424
      9          1           0       -0.688461   -3.251634   -1.482674
     10          1           0        0.261380   -3.598801   -0.027825
     11          6           0       -3.354734   -0.584008    0.428023
     12          6           0       -4.148129    0.510044   -0.287210
     13          6           0       -5.280908    1.075275    0.570180
     14          1           0       -4.038401   -1.394985    0.714922
     15          1           0       -2.942215   -0.177999    1.361795
     16          1           0       -4.558647    0.101438   -1.219483
     17          1           0       -3.462932    1.318086   -0.573900
     18          1           0       -4.885122    1.508672    1.494367
     19          1           0       -5.987062    0.285112    0.845116
     20          1           0       -5.834962    1.855839    0.039517
     21          6           0        2.408470    1.504080    0.194460
     22          6           0        1.150695    1.748259   -0.640025
     23          6           0        0.404697    3.017520   -0.227406
     24          1           0        2.130108    1.439044    1.255228
     25          1           0        3.077142    2.370815    0.099351
     26          1           0        0.485212    0.880724   -0.544473
     27          1           0        1.432059    1.812532   -1.698949
     28          1           0        1.048028    3.896218   -0.339741
     29          1           0        0.095800    2.959116    0.821295
     30          1           0       -0.491080    3.172752   -0.836789
     31          6           0        3.165112    0.238881   -0.206152
     32          6           0        4.422887   -0.005297    0.628333
     33          6           0        5.168886   -1.274559    0.215713
     34          1           0        2.496441   -0.627853   -0.111043
     35          1           0        3.443475    0.303918   -1.266920
     36          1           0        4.141523   -0.069570    1.687257
     37          1           0        5.088371    0.862237    0.532781
     38          1           0        5.477782   -1.216154   -0.832988
     39          1           0        4.525555   -2.153255    0.328048
     40          1           0        6.064662   -1.429790    0.825096
 ---------------------------------------------------------------------

 SCF Done:  E(RHF) =  -470.733134208     A.U. after   11 cycles
 E2 =    -0.1583977653D+01 EUMP2 =    -0.47231711186078D+03

 The electronic state is 1-A.
 Alpha  occ. eigenvalues --  -11.21663 -11.21639 -11.21619 -11.21604 -11.21445
 Alpha  occ. eigenvalues --  -11.21412 -11.21382 -11.21352 -11.21152 -11.21098
 Alpha  occ. eigenvalues --  -11.21070 -11.21070  -1.08491  -1.08434  -1.03578
 Alpha  occ. eigenvalues --   -1.03546  -0.96033  -0.95985  -0.87049  -0.87000
 Alpha  occ. eigenvalues --   -0.79662  -0.79597  -0.78369  -0.78185  -0.65305
 Alpha  occ. eigenvalues --   -0.64912  -0.61031  -0.60892  -0.59403  -0.59351
 Alpha  occ. eigenvalues --   -0.57680  -0.57567  -0.55431  -0.55168  -0.52719
 Alpha  occ. eigenvalues --   -0.52689  -0.52481  -0.52384  -0.50087  -0.49826
 Alpha  occ. eigenvalues --   -0.48033  -0.47894  -0.46880  -0.46620  -0.46048
 Alpha  occ. eigenvalues --   -0.45797  -0.45774  -0.45200  -0.43823  -0.43801
 Alpha virt. eigenvalues --    0.19769   0.22597   0.23751   0.24358   0.25820
 Alpha virt. eigenvalues --    0.26677   0.26894   0.27212   0.28526   0.29559
 Alpha virt. eigenvalues --    0.30633   0.31562   0.31664   0.31903   0.32010

 Mulliken charges:
               1
     1  C   -0.307028
     2  C   -0.299201
     3  C   -0.482294
     4  H    0.150042
     5  H    0.157523
     6  H    0.152371
     7  H    0.151065
     8  H    0.160754
     9  H    0.155816
    10  H    0.159983
    11  C   -0.297605
    12  C   -0.300167
    13  C   -0.475696
    14  H    0.149579
    15  H    0.149346
    16  H    0.151954
    17  H    0.152410
    18  H    0.155279
    19  H    0.155132
    20  H    0.160306
    21  C   -0.297300
    22  C   -0.309594
    23  C   -0.476049
    24  H    0.149321
    25  H    0.149883
    26  H    0.159809
    27  H    0.152508
    28  H    0.155996
    29  H    0.154966
    30  H    0.160378
    31  C   -0.304501
    32  C   -0.299374
    33  C   -0.475870
    34  H    0.155398
    35  H    0.149780
    36  H    0.151871
    37  H    0.152020
    38  H    0.155261
    39  H    0.155688
    40  H    0.160238
 Sum of Mulliken charges =  -0.00000

 Dipole moment (field-independent basis, Debye):
    X=              0.0109    Y=              0.0064    Z=             -0.0132  Tot=              0.0183
 Quadrupole moment (field-independent basis, Debye-Ang):
   XX=            -85.1940   YY=            -85.0219   ZZ=            -84.4632
   XY=              1.7687   XZ=              0.4159   YZ=             -0.5018

 Normal termination of Gaussian 16 at Wed May  5 19:54:24 2021.
