 Gaussian 16, Revision A.03,
 Gaussian 16:  EM64L-G16RevA.03 25-Dec-2016

 -------------
 #p 6-31g* mp2
 -------------

 ------------------------------------------------------
 Input file generated by CHIRIPA (05-May-2021 14:55:22)
 ------------------------------------------------------
 Symbolic Z-matrix:
 Charge =  0 Multiplicity = 1

                         Standard orientation:
 ---------------------------------------------------------------------
 Center     Atomic      Atomic             Coordinates (Angstroms)
 Number     Number       Type             X           Y           Z
 ---------------------------------------------------------------------
      1          6           0       -1.463811   -1.440218    0.367438
      2          6           0       -1.499551   -0.130813   -0.123177
      3          6           0       -2.721627    0.506857   -0.356532
      4          6           0       -3.893970   -0.197621   -0.087064
      5          6           0       -3.891194   -1.502965    0.402182
      6          6           0       -2.657642   -2.120914    0.628092
      7          1           0       -0.510016   -1.927916    0.545822
      8          1           0       -0.573987    0.400255   -0.326509
      9          1           0       -2.778266    1.519891   -0.735968
     10          1           0       -4.830508   -2.006745    0.595349
     11          1           0       -2.632923   -3.137885    1.009151
     12          7           0       -5.193802    0.467013   -0.330166
     13          8           0       -6.212567   -0.175259   -0.084724
     14          8           0       -5.169232    1.617640   -0.761549
     15          6           0        5.444447    0.307163   -0.131483
     16          6           0        5.861626   -1.154925   -0.293488
     17          6           0        7.333523   -1.310681   -0.676963
     18          1           0        5.638973    0.843526   -1.070322
     19          1           0        6.075726    0.778617    0.634424
     20          1           0        5.228827   -1.623852   -1.057876
     21          1           0        5.665904   -1.687914    0.645784
     22          1           0        7.979823   -0.868479    0.088122
     23          1           0        7.540262   -0.804054   -1.625219
     24          1           0        7.610303   -2.363780   -0.787570
     25          6           0        3.975692    0.479169    0.251797
     26          6           0        3.558513    1.941258    0.413803
     27          6           0        2.086616    2.097013    0.797278
     28          1           0        3.344413    0.007715   -0.514109
     29          1           0        3.781166   -0.057194    1.190636
     30          1           0        3.754235    2.474246   -0.525469
     31          1           0        4.191312    2.410185    1.178191
     32          1           0        1.879877    1.590386    1.745533
     33          1           0        1.440316    1.654812    0.032194
     34          1           0        1.809836    3.150113    0.907886
 ---------------------------------------------------------------------

 SCF Done:  E(RHF) =  -669.535515006     A.U. after   15 cycles
 E2 =    -0.2090794363D+01 EUMP2 =    -0.67162630936843D+03

 The electronic state is 1-A.
 Alpha  occ. eigenvalues --  -20.60712 -20.60707 -15.85765 -11.31120 -11.27690
 Alpha  occ. eigenvalues --  -11.27676 -11.27422 -11.26706 -11.26663 -11.22427
 Alpha  occ. eigenvalues --  -11.22220 -11.22204 -11.22126 -11.22026 -11.21562
 Alpha  occ. eigenvalues --   -1.59788  -1.39342  -1.19290  -1.09172  -1.08687
 Alpha  occ. eigenvalues --   -1.04692  -1.04269  -0.96735  -0.95523  -0.87755
 Alpha  occ. eigenvalues --   -0.86090  -0.82357  -0.80340  -0.78979  -0.77406
 Alpha  occ. eigenvalues --   -0.71984  -0.71111  -0.70398  -0.65805  -0.64941
 Alpha  occ. eigenvalues --   -0.64715  -0.62087  -0.61632  -0.60095  -0.58333
 Alpha  occ. eigenvalues --   -0.56046  -0.55189  -0.53414  -0.53247  -0.53018
 Alpha  occ. eigenvalues --   -0.52707  -0.50667  -0.48766  -0.48739  -0.48620
 Alpha  occ. eigenvalues --   -0.47362  -0.46521  -0.46432  -0.44750  -0.44515
 Alpha  occ. eigenvalues --   -0.37271  -0.36293
 Alpha virt. eigenvalues --    0.05128   0.11350   0.16620   0.19885   0.22395
 Alpha virt. eigenvalues --    0.23691   0.25084   0.26238   0.26930   0.28241
 Alpha virt. eigenvalues --    0.28773   0.29881   0.31031   0.31347   0.31985

 Mulliken charges:
               1
     1  C   -0.173528
     2  C   -0.224033
     3  C   -0.173431
     4  C    0.158806
     5  C   -0.171320
     6  C   -0.218555
     7  H    0.226160
     8  H    0.233570
     9  H    0.275840
    10  H    0.275308
    11  H    0.223075
    12  N    0.488079
    13  O   -0.460743
    14  O   -0.460518
    15  C   -0.298664
    16  C   -0.300061
    17  C   -0.476069
    18  H    0.151484
    19  H    0.151653
    20  H    0.151087
    21  H    0.151548
    22  H    0.156362
    23  H    0.156344
    24  H    0.161376
    25  C   -0.298463
    26  C   -0.299626
    27  C   -0.480355
    28  H    0.144901
    29  H    0.148864
    30  H    0.154754
    31  H    0.155967
    32  H    0.157305
    33  H    0.146414
    34  H    0.166471
 Sum of Mulliken charges =  -0.00000

 Dipole moment (field-independent basis, Debye):
    X=              4.8160    Y=             -2.2770    Z=              0.8972  Tot=              5.4022
 Quadrupole moment (field-independent basis, Debye-Ang):
   XX=           -130.0178   YY=            -90.4973   ZZ=            -94.2868
   XY=             11.0256   XZ=             -4.0135   YZ=             -1.5064

 Normal termination of Gaussian 16 at Thu May  6 07:50:35 2021.
