 Gaussian 16, Revision A.03,
 Gaussian 16:  EM64L-G16RevA.03 25-Dec-2016

 -------------
 #p 6-31g* mp2
 -------------

 ------------------------------------------------------
 Input file generated by CHIRIPA (05-May-2021 14:57:22)
 ------------------------------------------------------
 Symbolic Z-matrix:
 Charge =  0 Multiplicity = 1

                         Standard orientation:
 ---------------------------------------------------------------------
 Center     Atomic      Atomic             Coordinates (Angstroms)
 Number     Number       Type             X           Y           Z
 ---------------------------------------------------------------------
      1          6           0        2.818697    2.497812    0.703516
      2          6           0        1.771247    1.657857    1.095745
      3          6           0        1.797565    0.295867    0.781360
      4          6           0        2.891693   -0.194801    0.070432
      5          6           0        3.950524    0.616561   -0.334364
      6          6           0        3.903081    1.975405   -0.009031
      7          1           0        2.790047    3.554617    0.951990
      8          1           0        0.927830    2.060808    1.649211
      9          1           0        1.000102   -0.376904    1.072651
     10          1           0        4.777902    0.185818   -0.885112
     11          1           0        4.717953    2.625366   -0.314937
     12          7           0        2.930737   -1.635013   -0.268189
     13          8           0        3.905962   -2.042756   -0.895340
     14          8           0        1.985375   -2.328837    0.099963
     15          6           0       -3.153541    2.411551   -0.647078
     16          6           0       -1.923342    1.781046   -0.860611
     17          6           0       -1.763238    0.421758   -0.575571
     18          6           0       -2.859322   -0.279818   -0.075888
     19          6           0       -4.097677    0.320034    0.147592
     20          6           0       -4.234876    1.680321   -0.144544
     21          1           0       -3.269018    3.467866   -0.871261
     22          1           0       -1.081832    2.346435   -1.250793
     23          1           0       -0.822047   -0.091360   -0.731412
     24          1           0       -4.918289   -0.269853    0.537524
     25          1           0       -5.191436    2.167359    0.022281
     26          7           0       -2.701950   -1.719365    0.229628
     27          8           0       -3.683007   -2.315266    0.669022
     28          8           0       -1.600527   -2.224523    0.023911
 ---------------------------------------------------------------------

 SCF Done:  E(RHF) =  -868.335999896     A.U. after   16 cycles
 E2 =    -0.2602564773D+01 EUMP2 =    -0.87093856466895D+03

 The electronic state is 1-A.
 Alpha  occ. eigenvalues --  -20.60717 -20.60661 -20.60592 -20.60505 -15.85728
 Alpha  occ. eigenvalues --  -15.85602 -11.31374 -11.31357 -11.27951 -11.27941
 Alpha  occ. eigenvalues --  -11.27941 -11.27902 -11.27767 -11.27755 -11.27058
 Alpha  occ. eigenvalues --  -11.27046 -11.27037 -11.27022  -1.59764  -1.59630
 Alpha  occ. eigenvalues --   -1.39304  -1.39162  -1.19587  -1.19550  -1.08918
 Alpha  occ. eigenvalues --   -1.08886  -1.05075  -1.04940  -0.95721  -0.95630
 Alpha  occ. eigenvalues --   -0.86452  -0.86319  -0.82561  -0.82408  -0.77630
 Alpha  occ. eigenvalues --   -0.77338  -0.71966  -0.71743  -0.71107  -0.70978
 Alpha  occ. eigenvalues --   -0.70774  -0.70534  -0.65229  -0.65171  -0.65114
 Alpha  occ. eigenvalues --   -0.64861  -0.62545  -0.62108  -0.55544  -0.55444
 Alpha  occ. eigenvalues --   -0.53436  -0.53274  -0.53184  -0.52915  -0.48731
 Alpha  occ. eigenvalues --   -0.48719  -0.48608  -0.48499  -0.44640  -0.44473
 Alpha  occ. eigenvalues --   -0.37605  -0.37550  -0.36907  -0.36358
 Alpha virt. eigenvalues --    0.04800   0.05198   0.10650   0.11192   0.16230
 Alpha virt. eigenvalues --    0.16640   0.20906   0.21528   0.26671   0.27447
 Alpha virt. eigenvalues --    0.27701   0.28459   0.29966   0.31109   0.31729

 Mulliken charges:
               1
     1  C   -0.173724
     2  C   -0.222759
     3  C   -0.185749
     4  C    0.158503
     5  C   -0.171176
     6  C   -0.218156
     7  H    0.224370
     8  H    0.224642
     9  H    0.286822
    10  H    0.277079
    11  H    0.223881
    12  N    0.486238
    13  O   -0.462526
    14  O   -0.446649
    15  C   -0.172284
    16  C   -0.222733
    17  C   -0.181115
    18  C    0.158809
    19  C   -0.170849
    20  C   -0.218318
    21  H    0.224665
    22  H    0.223643
    23  H    0.281148
    24  H    0.276945
    25  H    0.224003
    26  N    0.486434
    27  O   -0.460668
    28  O   -0.450478
 Sum of Mulliken charges =  -0.00000

 Dipole moment (field-independent basis, Debye):
    X=             -0.6865    Y=              9.8267    Z=              0.1298  Tot=              9.8515
 Quadrupole moment (field-independent basis, Debye-Ang):
   XX=            -94.1313   YY=           -110.5933   ZZ=           -104.4744
   XY=              1.1802   XZ=              2.7696   YZ=             -0.4307

 Normal termination of Gaussian 16 at Thu May  6 14:34:28 2021.
