 Gaussian 16, Revision A.03,
 Gaussian 16:  EM64L-G16RevA.03 25-Dec-2016

 -------------
 #p 6-31g* mp2
 -------------

 ------------------------------------------------------
 Input file generated by CHIRIPA (05-May-2021 14:53:12)
 ------------------------------------------------------
 Symbolic Z-matrix:
 Charge =  0 Multiplicity = 1

                         Standard orientation:
 ---------------------------------------------------------------------
 Center     Atomic      Atomic             Coordinates (Angstroms)
 Number     Number       Type             X           Y           Z
 ---------------------------------------------------------------------
      1          6           0       -2.274048    0.967600   -0.004696
      2          6           0       -2.199900    2.084435   -1.046409
      3          6           0       -1.028486    3.037855   -0.808559
      4          1           0       -2.359430    1.413196    0.995854
      5          1           0       -1.331885    0.402267   -0.015727
      6          1           0       -3.142454    2.646630   -1.034379
      7          1           0       -2.114878    1.636127   -2.044611
      8          1           0       -0.077847    2.495804   -0.841226
      9          1           0       -1.111262    3.512049    0.174746
     10          1           0       -0.994398    3.828424   -1.564667
     11          6           0       -3.439946    0.006315   -0.229067
     12          6           0       -3.514094   -1.110520    0.812647
     13          6           0       -4.685509   -2.063940    0.574796
     14          1           0       -4.382109    0.571648   -0.218036
     15          1           0       -3.354564   -0.439281   -1.229616
     16          1           0       -3.599117   -0.662211    1.810848
     17          1           0       -2.571540   -1.672715    0.800616
     18          1           0       -4.602732   -2.538133   -0.408509
     19          1           0       -5.636147   -1.521888    0.607463
     20          1           0       -4.719596   -2.854508    1.330904
     21          6           0        2.412950    1.772411    1.394558
     22          6           0        2.237542    0.559075    2.068034
     23          6           0        2.136056   -0.639889    1.356183
     24          6           0        2.214539   -0.588565   -0.034679
     25          6           0        2.388963    0.604423   -0.734425
     26          6           0        2.487968    1.791179   -0.002060
     27          1           0        2.490823    2.699052    1.955509
     28          1           0        2.178935    0.541482    3.152608
     29          1           0        1.999963   -1.593231    1.852202
     30          1           0        2.443741    0.590167   -1.816189
     31          1           0        2.624160    2.732002   -0.527749
     32          7           0        2.108413   -1.851392   -0.799143
     33          8           0        2.180633   -1.779332   -2.023981
     34          8           0        1.955022   -2.889345   -0.159016
 ---------------------------------------------------------------------

 SCF Done:  E(RHF) =  -669.535042858     A.U. after   15 cycles
 E2 =    -0.2093167945D+01 EUMP2 =    -0.67162821080319D+03

 The electronic state is 1-A.
 Alpha  occ. eigenvalues --  -20.60859 -20.60854 -15.85914 -11.31304 -11.27849
 Alpha  occ. eigenvalues --  -11.27846 -11.27564 -11.26859 -11.26842 -11.21703
 Alpha  occ. eigenvalues --  -11.21486 -11.21407 -11.21288 -11.21264 -11.20904
 Alpha  occ. eigenvalues --   -1.59936  -1.39488  -1.19467  -1.08851  -1.08416
 Alpha  occ. eigenvalues --   -1.04874  -1.03533  -0.95998  -0.95682  -0.87029
 Alpha  occ. eigenvalues --   -0.86252  -0.82516  -0.79613  -0.78223  -0.77563
 Alpha  occ. eigenvalues --   -0.72128  -0.71262  -0.70547  -0.65115  -0.65050
 Alpha  occ. eigenvalues --   -0.64853  -0.62213  -0.60941  -0.59374  -0.57616
 Alpha  occ. eigenvalues --   -0.55368  -0.55301  -0.53284  -0.52956  -0.52696
 Alpha  occ. eigenvalues --   -0.52363  -0.49937  -0.48890  -0.48883  -0.47913
 Alpha  occ. eigenvalues --   -0.46626  -0.45761  -0.45663  -0.44888  -0.43789
 Alpha  occ. eigenvalues --   -0.37411  -0.36383
 Alpha virt. eigenvalues --    0.04950   0.11160   0.16383   0.21211   0.22834
 Alpha virt. eigenvalues --    0.24327   0.26507   0.26870   0.27437   0.28230
 Alpha virt. eigenvalues --    0.28393   0.30751   0.31543   0.31803   0.32050

 Mulliken charges:
               1
     1  C   -0.298611
     2  C   -0.298796
     3  C   -0.483236
     4  H    0.146495
     5  H    0.150955
     6  H    0.151739
     7  H    0.154147
     8  H    0.159635
     9  H    0.150800
    10  H    0.157334
    11  C   -0.298791
    12  C   -0.300270
    13  C   -0.475760
    14  H    0.148517
    15  H    0.152804
    16  H    0.148959
    17  H    0.155177
    18  H    0.157800
    19  H    0.153818
    20  H    0.160487
    21  C   -0.169173
    22  C   -0.217698
    23  C   -0.171231
    24  C    0.159365
    25  C   -0.172537
    26  C   -0.218559
    27  H    0.226536
    28  H    0.224066
    29  H    0.276055
    30  H    0.276350
    31  H    0.226253
    32  N    0.487699
    33  O   -0.460190
    34  O   -0.460140
 Sum of Mulliken charges =  -0.00000

 Dipole moment (field-independent basis, Debye):
    X=              0.4689    Y=              4.3573    Z=              2.7158  Tot=              5.1557
 Quadrupole moment (field-independent basis, Debye-Ang):
   XX=            -94.0742   YY=            -99.7459   ZZ=            -91.0751
   XY=              9.4511   XZ=              5.3106   YZ=             -3.7707

 Normal termination of Gaussian 16 at Thu May  6 07:17:03 2021.
