 Gaussian 16, Revision A.03,
 Gaussian 16:  EM64L-G16RevA.03 25-Dec-2016

 -------------
 #p 6-31g* mp2
 -------------

 ------------------------------------------------------
 Input file generated by CHIRIPA (05-May-2021 14:57:25)
 ------------------------------------------------------
 Symbolic Z-matrix:
 Charge =  0 Multiplicity = 1

                         Standard orientation:
 ---------------------------------------------------------------------
 Center     Atomic      Atomic             Coordinates (Angstroms)
 Number     Number       Type             X           Y           Z
 ---------------------------------------------------------------------
      1          6           0       -5.826201   -1.360840   -0.887282
      2          6           0       -6.067368    0.006394   -0.716904
      3          6           0       -5.057104    0.852873   -0.250654
      4          6           0       -3.811906    0.295963    0.036789
      5          6           0       -3.540733   -1.062105   -0.122608
      6          6           0       -4.565876   -1.889794   -0.590115
      7          1           0       -6.616778   -2.011107   -1.249964
      8          1           0       -7.045183    0.419952   -0.946889
      9          1           0       -5.216549    1.914995   -0.109616
     10          1           0       -2.555770   -1.445219    0.115066
     11          1           0       -4.375725   -2.951223   -0.721475
     12          7           0       -2.734510    1.182146    0.531052
     13          8           0       -1.646125    0.666906    0.777187
     14          8           0       -2.998832    2.375197    0.662961
     15          6           0        6.135366    0.499000   -1.112908
     16          6           0        6.002359   -0.773189   -0.546897
     17          6           0        4.817934   -1.143561    0.096926
     18          6           0        3.782018   -0.212644    0.156582
     19          6           0        3.884077    1.062394   -0.397633
     20          6           0        5.077665    1.411123   -1.036604
     21          1           0        7.059015    0.778307   -1.611161
     22          1           0        6.822128   -1.483604   -0.604643
     23          1           0        4.688089   -2.121807    0.543686
     24          1           0        3.049449    1.748986   -0.324116
     25          1           0        5.178143    2.399816   -1.475276
     26          7           0        2.523269   -0.593284    0.835600
     27          8           0        1.625351    0.245079    0.874690
     28          8           0        2.458416   -1.722785    1.315870
 ---------------------------------------------------------------------

 SCF Done:  E(RHF) =  -868.335630912     A.U. after   16 cycles
 E2 =    -0.2599969125D+01 EUMP2 =    -0.87093560003764D+03

 The electronic state is 1-A.
 Alpha  occ. eigenvalues --  -20.59952 -20.59828 -20.59752 -20.59630 -15.84937
 Alpha  occ. eigenvalues --  -15.84735 -11.30572 -11.30396 -11.27206 -11.27134
 Alpha  occ. eigenvalues --  -11.27041 -11.26985 -11.26949 -11.26830 -11.26274
 Alpha  occ. eigenvalues --  -11.26233 -11.26117 -11.26069  -1.58975  -1.58781
 Alpha  occ. eigenvalues --   -1.38515  -1.38315  -1.18777  -1.18608  -1.08128
 Alpha  occ. eigenvalues --   -1.07956  -1.04216  -1.04048  -0.94915  -0.94727
 Alpha  occ. eigenvalues --   -0.85602  -0.85434  -0.81746  -0.81534  -0.76741
 Alpha  occ. eigenvalues --   -0.76546  -0.71250  -0.70795  -0.70321  -0.70127
 Alpha  occ. eigenvalues --   -0.69883  -0.69712  -0.64421  -0.64249  -0.64216
 Alpha  occ. eigenvalues --   -0.64057  -0.61555  -0.61383  -0.54719  -0.54558
 Alpha  occ. eigenvalues --   -0.52539  -0.52374  -0.52310  -0.52142  -0.47992
 Alpha  occ. eigenvalues --   -0.47910  -0.47698  -0.47657  -0.43885  -0.43633
 Alpha  occ. eigenvalues --   -0.36783  -0.36620  -0.35834  -0.35668
 Alpha virt. eigenvalues --    0.05778   0.05990   0.11815   0.11980   0.17217
 Alpha virt. eigenvalues --    0.17422   0.21922   0.22083   0.27819   0.27980
 Alpha virt. eigenvalues --    0.28851   0.29029   0.31453   0.31611   0.33143

 Mulliken charges:
               1
     1  C   -0.171898
     2  C   -0.218890
     3  C   -0.171928
     4  C    0.157790
     5  C   -0.172341
     6  C   -0.219117
     7  H    0.222754
     8  H    0.220506
     9  H    0.273669
    10  H    0.282814
    11  H    0.222233
    12  N    0.486776
    13  O   -0.444071
    14  O   -0.468527
    15  C   -0.171779
    16  C   -0.218759
    17  C   -0.171926
    18  C    0.158060
    19  C   -0.171786
    20  C   -0.218883
    21  H    0.223389
    22  H    0.220982
    23  H    0.273690
    24  H    0.280512
    25  H    0.222566
    26  N    0.486440
    27  O   -0.443812
    28  O   -0.468464
 Sum of Mulliken charges =  -0.00000

 Dipole moment (field-independent basis, Debye):
    X=              0.7093    Y=             -1.7130    Z=             -4.0311  Tot=              4.4371
 Quadrupole moment (field-independent basis, Debye-Ang):
   XX=            -43.6437   YY=           -100.9382   ZZ=           -107.2577
   XY=             10.8713   XZ=             -1.3902   YZ=             -1.1559

 Normal termination of Gaussian 16 at Wed May  5 21:07:51 2021.
