 Gaussian 16, Revision A.03,
 Gaussian 16:  EM64L-G16RevA.03 25-Dec-2016

 -------------
 #p 6-31g* mp2
 -------------

 ------------------------------------------------------
 Input file generated by CHIRIPA (05-May-2021 14:57:22)
 ------------------------------------------------------
 Symbolic Z-matrix:
 Charge =  0 Multiplicity = 1

                         Standard orientation:
 ---------------------------------------------------------------------
 Center     Atomic      Atomic             Coordinates (Angstroms)
 Number     Number       Type             X           Y           Z
 ---------------------------------------------------------------------
      1          6           0        1.828194    1.839253   -0.671667
      2          6           0        3.166403    2.090885   -0.351667
      3          6           0        4.030365    1.038717   -0.033767
      4          6           0        3.520347   -0.258600   -0.045633
      5          6           0        2.192078   -0.541487   -0.360221
      6          6           0        1.346153    0.526186   -0.674918
      7          1           0        1.164053    2.662625   -0.917375
      8          1           0        3.543514    3.109620   -0.348345
      9          1           0        5.070792    1.205126    0.217704
     10          1           0        1.845146   -1.567659   -0.355125
     11          1           0        0.307347    0.327790   -0.923043
     12          7           0        4.425438   -1.380690    0.289218
     13          8           0        3.951635   -2.514638    0.271666
     14          8           0        5.591513   -1.104988    0.562885
     15          6           0       -2.020327    2.139519    0.623676
     16          6           0       -2.120317    1.683710   -0.694945
     17          6           0       -2.866080    0.540214   -0.996281
     18          6           0       -3.501772   -0.126053    0.050273
     19          6           0       -3.421102    0.303211    1.374099
     20          6           0       -2.669894    1.449032    1.652176
     21          1           0       -1.438886    3.028717    0.848727
     22          1           0       -1.616917    2.217946   -1.495711
     23          1           0       -2.960212    0.165398   -2.008244
     24          1           0       -3.934111   -0.250472    2.151063
     25          1           0       -2.593993    1.800719    2.677164
     26          7           0       -4.294160   -1.337852   -0.256427
     27          8           0       -4.844755   -1.906995    0.683551
     28          8           0       -4.349637   -1.695571   -1.430990
 ---------------------------------------------------------------------

 SCF Done:  E(RHF) =  -868.335959506     A.U. after   16 cycles
 E2 =    -0.2602194282D+01 EUMP2 =    -0.87093815378791D+03

 The electronic state is 1-A.
 Alpha  occ. eigenvalues --  -20.61499 -20.61488 -20.61016 -20.61006 -15.86561
 Alpha  occ. eigenvalues --  -15.86065 -11.32167 -11.31542 -11.28827 -11.28712
 Alpha  occ. eigenvalues --  -11.28580 -11.28108 -11.28042 -11.27984 -11.27925
 Alpha  occ. eigenvalues --  -11.27743 -11.27226 -11.27040  -1.60569  -1.60086
 Alpha  occ. eigenvalues --   -1.40115  -1.39636  -1.20389  -1.19719  -1.09739
 Alpha  occ. eigenvalues --   -1.09126  -1.05835  -1.05113  -0.96518  -0.95943
 Alpha  occ. eigenvalues --   -0.87226  -0.86518  -0.83348  -0.82753  -0.78355
 Alpha  occ. eigenvalues --   -0.77757  -0.72771  -0.72284  -0.71900  -0.71488
 Alpha  occ. eigenvalues --   -0.71410  -0.70906  -0.66029  -0.65885  -0.65367
 Alpha  occ. eigenvalues --   -0.65113  -0.63145  -0.62459  -0.56312  -0.55743
 Alpha  occ. eigenvalues --   -0.54263  -0.53898  -0.53456  -0.53058  -0.49550
 Alpha  occ. eigenvalues --   -0.49512  -0.49051  -0.49032  -0.45467  -0.45016
 Alpha  occ. eigenvalues --   -0.38451  -0.37702  -0.37409  -0.36678
 Alpha virt. eigenvalues --    0.04146   0.04749   0.10069   0.10954   0.15520
 Alpha virt. eigenvalues --    0.16180   0.18603   0.22085   0.25060   0.26452
 Alpha virt. eigenvalues --    0.27675   0.29420   0.30046   0.30541   0.32458

 Mulliken charges:
               1
     1  C   -0.177097
     2  C   -0.217750
     3  C   -0.171714
     4  C    0.159727
     5  C   -0.172817
     6  C   -0.219529
     7  H    0.213369
     8  H    0.222679
     9  H    0.276415
    10  H    0.278796
    11  H    0.230886
    12  N    0.487736
    13  O   -0.458055
    14  O   -0.459943
    15  C   -0.166693
    16  C   -0.232548
    17  C   -0.174658
    18  C    0.160005
    19  C   -0.168588
    20  C   -0.217413
    21  H    0.225412
    22  H    0.221423
    23  H    0.278764
    24  H    0.280149
    25  H    0.228347
    26  N    0.487977
    27  O   -0.456412
    28  O   -0.458468
 Sum of Mulliken charges =  -0.00000

 Dipole moment (field-independent basis, Debye):
    X=             -0.6563    Y=              8.0180    Z=              0.1056  Tot=              8.0456
 Quadrupole moment (field-independent basis, Debye-Ang):
   XX=           -143.5698   YY=           -107.0502   ZZ=           -100.4638
   XY=              2.2687   XZ=             -8.7193   YZ=              0.4532

 Normal termination of Gaussian 16 at Thu May  6 01:46:42 2021.
