 Gaussian 16, Revision A.03,
 Gaussian 16:  EM64L-G16RevA.03 25-Dec-2016

 -------------
 #p 6-31g* mp2
 -------------

 ------------------------------------------------------
 Input file generated by CHIRIPA (05-May-2021 14:53:12)
 ------------------------------------------------------
 Symbolic Z-matrix:
 Charge =  0 Multiplicity = 1

                         Standard orientation:
 ---------------------------------------------------------------------
 Center     Atomic      Atomic             Coordinates (Angstroms)
 Number     Number       Type             X           Y           Z
 ---------------------------------------------------------------------
      1          6           0        3.646621    0.795538   -0.548278
      2          6           0        3.238013    1.931500    0.390134
      3          6           0        3.314127    3.305360   -0.276581
      4          1           0        4.669567    0.974575   -0.906708
      5          1           0        2.997688    0.810331   -1.434879
      6          1           0        3.886627    1.913713    1.275345
      7          1           0        2.215991    1.749638    0.746522
      8          1           0        2.653742    3.347417   -1.148776
      9          1           0        4.333870    3.512423   -0.616948
     10          1           0        3.017832    4.102758    0.412060
     11          6           0        3.575701   -0.584120    0.103828
     12          6           0        3.984309   -1.720081   -0.834584
     13          6           0        3.908195   -3.093941   -0.167869
     14          1           0        4.224634   -0.598912    0.990429
     15          1           0        2.552755   -0.763157    0.462258
     16          1           0        5.006331   -1.538219   -1.190972
     17          1           0        3.335695   -1.702294   -1.719795
     18          1           0        2.888452   -3.301004    0.172498
     19          1           0        4.568580   -3.135998    0.704326
     20          1           0        4.204490   -3.891339   -0.856510
     21          6           0       -0.509177   -0.248494    1.170035
     22          6           0       -1.041393    1.002441    0.840751
     23          6           0       -2.321380    1.106308    0.288124
     24          6           0       -3.044739   -0.066546    0.077282
     25          6           0       -2.542012   -1.327382    0.394848
     26          6           0       -1.259861   -1.407370    0.946427
     27          1           0        0.485988   -0.319905    1.598921
     28          1           0       -0.460674    1.904126    1.013302
     29          1           0       -2.757699    2.061947    0.023931
     30          1           0       -3.144842   -2.208453    0.211199
     31          1           0       -0.849081   -2.380203    1.201182
     32          7           0       -4.400949    0.030773   -0.507203
     33          8           0       -5.018017   -1.017518   -0.683127
     34          8           0       -4.821199    1.153501   -0.778332
 ---------------------------------------------------------------------

 SCF Done:  E(RHF) =  -669.535241315     A.U. after   15 cycles
 E2 =    -0.2092402993D+01 EUMP2 =    -0.67162764430776D+03

 The electronic state is 1-A.
 Alpha  occ. eigenvalues --  -20.60775 -20.60770 -15.85829 -11.31206 -11.27773
 Alpha  occ. eigenvalues --  -11.27769 -11.27482 -11.26790 -11.26775 -11.22681
 Alpha  occ. eigenvalues --  -11.22427 -11.22368 -11.22268 -11.21930 -11.21865
 Alpha  occ. eigenvalues --   -1.59851  -1.39404  -1.19377  -1.09374  -1.08767
 Alpha  occ. eigenvalues --   -1.04780  -1.04426  -0.96860  -0.95604  -0.87873
 Alpha  occ. eigenvalues --   -0.86178  -0.82437  -0.80499  -0.79216  -0.77480
 Alpha  occ. eigenvalues --   -0.72047  -0.71174  -0.70510  -0.66018  -0.65027
 Alpha  occ. eigenvalues --   -0.64764  -0.62168  -0.61781  -0.60228  -0.58486
 Alpha  occ. eigenvalues --   -0.56190  -0.55258  -0.53537  -0.53279  -0.53105
 Alpha  occ. eigenvalues --   -0.52872  -0.50798  -0.48843  -0.48802  -0.48774
 Alpha  occ. eigenvalues --   -0.47538  -0.46731  -0.46625  -0.44807  -0.44686
 Alpha  occ. eigenvalues --   -0.37339  -0.36384
 Alpha virt. eigenvalues --    0.05017   0.11207   0.16384   0.19085   0.22662
 Alpha virt. eigenvalues --    0.22860   0.25200   0.26193   0.26490   0.27054
 Alpha virt. eigenvalues --    0.29942   0.30648   0.30925   0.31012   0.31358

 Mulliken charges:
               1
     1  C   -0.298674
     2  C   -0.302389
     3  C   -0.477048
     4  H    0.153888
     5  H    0.153565
     6  H    0.154460
     7  H    0.141555
     8  H    0.157518
     9  H    0.159587
    10  H    0.160651
    11  C   -0.302174
    12  C   -0.300314
    13  C   -0.475203
    14  H    0.150872
    15  H    0.142213
    16  H    0.155261
    17  H    0.155251
    18  H    0.149754
    19  H    0.156302
    20  H    0.164208
    21  C   -0.173315
    22  C   -0.221941
    23  C   -0.171035
    24  C    0.158707
    25  C   -0.170843
    26  C   -0.220228
    27  H    0.231122
    28  H    0.225962
    29  H    0.275760
    30  H    0.275714
    31  H    0.223470
    32  N    0.488003
    33  O   -0.460332
    34  O   -0.460327
 Sum of Mulliken charges =  -0.00000

 Dipole moment (field-independent basis, Debye):
    X=              4.9739    Y=             -0.3253    Z=              1.9403  Tot=              5.3489
 Quadrupole moment (field-independent basis, Debye-Ang):
   XX=           -122.6338   YY=            -90.5569   ZZ=            -95.2494
   XY=              1.4116   XZ=             -6.0333   YZ=             -0.0526

 Normal termination of Gaussian 16 at Thu May  6 12:01:13 2021.
