 Gaussian 16, Revision A.03,
 Gaussian 16:  EM64L-G16RevA.03 25-Dec-2016

 -------------
 #p 6-31g* mp2
 -------------

 ------------------------------------------------------
 Input file generated by CHIRIPA (05-May-2021 14:55:25)
 ------------------------------------------------------
 Symbolic Z-matrix:
 Charge =  0 Multiplicity = 1

                         Standard orientation:
 ---------------------------------------------------------------------
 Center     Atomic      Atomic             Coordinates (Angstroms)
 Number     Number       Type             X           Y           Z
 ---------------------------------------------------------------------
      1          6           0        1.294879   -1.415893    1.896875
      2          6           0        0.891852   -1.502139    0.560218
      3          6           0        1.589808   -0.815212   -0.437549
      4          6           0        2.691144   -0.047809   -0.061462
      5          6           0        3.117307    0.058049    1.261591
      6          6           0        2.404364   -0.637447    2.242686
      7          1           0        0.746869   -1.952842    2.665488
      8          1           0        0.030588   -2.105934    0.288739
      9          1           0        1.299520   -0.864397   -1.480013
     10          1           0        3.979826    0.667915    1.501470
     11          1           0        2.719637   -0.568623    3.279947
     12          7           0        3.437971    0.683945   -1.108928
     13          8           0        4.404900    1.353296   -0.751638
     14          8           0        3.042265    0.574287   -2.267387
     15          6           0       -3.631893   -0.413361   -0.404999
     16          6           0       -2.719107   -1.639815   -0.429810
     17          6           0       -3.423178   -2.890140   -0.957792
     18          1           0       -4.511039   -0.631014    0.216831
     19          1           0       -4.006529   -0.223169   -1.420317
     20          1           0       -2.345203   -1.826811    0.585002
     21          1           0       -1.841937   -1.419151   -1.051498
     22          1           0       -3.781711   -2.727927   -1.979429
     23          1           0       -4.287837   -3.137903   -0.333629
     24          1           0       -2.752419   -3.754928   -0.966939
     25          6           0       -2.942334    0.844494    0.120396
     26          6           0       -3.855121    2.070948    0.145206
     27          6           0       -3.151050    3.321272    0.673189
     28          1           0       -2.567698    0.654302    1.135713
     29          1           0       -2.063188    1.062147   -0.501435
     30          1           0       -4.732291    1.850283    0.766895
     31          1           0       -4.229024    2.257944   -0.869606
     32          1           0       -2.286391    3.569036    0.049027
     33          1           0       -2.792516    3.159060    1.694825
     34          1           0       -3.821809    4.186061    0.682337
 ---------------------------------------------------------------------

 SCF Done:  E(RHF) =  -669.534687781     A.U. after   15 cycles
 E2 =    -0.2092388585D+01 EUMP2 =    -0.67162707636534D+03

 The electronic state is 1-A.
 Alpha  occ. eigenvalues --  -20.60724 -20.60719 -15.85775 -11.31121 -11.27673
 Alpha  occ. eigenvalues --  -11.27659 -11.27396 -11.26703 -11.26576 -11.22635
 Alpha  occ. eigenvalues --  -11.22052 -11.21942 -11.21917 -11.21839 -11.21293
 Alpha  occ. eigenvalues --   -1.59800  -1.39354  -1.19277  -1.09060  -1.08676
 Alpha  occ. eigenvalues --   -1.04680  -1.04145  -0.96549  -0.95521  -0.87572
 Alpha  occ. eigenvalues --   -0.86081  -0.82369  -0.80301  -0.78849  -0.77377
 Alpha  occ. eigenvalues --   -0.71994  -0.71122  -0.70395  -0.65686  -0.64925
 Alpha  occ. eigenvalues --   -0.64700  -0.62075  -0.61536  -0.59933  -0.58168
 Alpha  occ. eigenvalues --   -0.55809  -0.55182  -0.53304  -0.53013  -0.52990
 Alpha  occ. eigenvalues --   -0.52724  -0.50491  -0.48792  -0.48752  -0.48458
 Alpha  occ. eigenvalues --   -0.47322  -0.46337  -0.46263  -0.44764  -0.44378
 Alpha  occ. eigenvalues --   -0.37255  -0.36250
 Alpha virt. eigenvalues --    0.05105   0.11333   0.16564   0.20384   0.22581
 Alpha virt. eigenvalues --    0.23834   0.24974   0.26004   0.26974   0.28202
 Alpha virt. eigenvalues --    0.29030   0.30261   0.30696   0.31640   0.31990

 Mulliken charges:
               1
     1  C   -0.174074
     2  C   -0.219225
     3  C   -0.175166
     4  C    0.158932
     5  C   -0.171649
     6  C   -0.218070
     7  H    0.224736
     8  H    0.234404
     9  H    0.274432
    10  H    0.275194
    11  H    0.222921
    12  N    0.488098
    13  O   -0.460575
    14  O   -0.460938
    15  C   -0.297696
    16  C   -0.304617
    17  C   -0.476784
    18  H    0.151375
    19  H    0.153361
    20  H    0.145436
    21  H    0.148634
    22  H    0.160441
    23  H    0.158505
    24  H    0.157895
    25  C   -0.299054
    26  C   -0.300315
    27  C   -0.476214
    28  H    0.147808
    29  H    0.152541
    30  H    0.151624
    31  H    0.153760
    32  H    0.158385
    33  H    0.154260
    34  H    0.161634
 Sum of Mulliken charges =  -0.00000

 Dipole moment (field-independent basis, Debye):
    X=             -2.8239    Y=             -2.5094    Z=              3.6508  Tot=              5.2535
 Quadrupole moment (field-independent basis, Debye-Ang):
   XX=           -107.0603   YY=            -95.3603   ZZ=            -92.3575
   XY=             -5.8619   XZ=             12.4812   YZ=              0.8260

 Normal termination of Gaussian 16 at Thu May  6 19:22:42 2021.
