 Gaussian 16, Revision A.03,
 Gaussian 16:  EM64L-G16RevA.03 25-Dec-2016

 -------------
 #p 6-31g* mp2
 -------------

 ------------------------------------------------------
 Input file generated by CHIRIPA (05-May-2021 14:53:17)
 ------------------------------------------------------
 Symbolic Z-matrix:
 Charge =  0 Multiplicity = 1

                         Standard orientation:
 ---------------------------------------------------------------------
 Center     Atomic      Atomic             Coordinates (Angstroms)
 Number     Number       Type             X           Y           Z
 ---------------------------------------------------------------------
      1          6           0        3.792396   -0.368535    0.532689
      2          6           0        3.064442   -1.707838    0.412962
      3          6           0        3.693285   -2.801734    1.276525
      4          1           0        4.844624   -0.503551    0.247154
      5          1           0        3.792212   -0.051808    1.584867
      6          1           0        3.064792   -2.021269   -0.638882
      7          1           0        2.013779   -1.569576    0.698632
      8          1           0        3.679052   -2.514457    2.332873
      9          1           0        4.736037   -2.968716    0.987759
     10          1           0        3.157231   -3.750602    1.175739
     11          6           0        3.175493    0.735064   -0.324767
     12          6           0        3.903448    2.074367   -0.205040
     13          6           0        3.274604    3.168264   -1.068603
     14          1           0        3.175677    0.418337   -1.376945
     15          1           0        2.123265    0.870080   -0.039231
     16          1           0        4.954110    1.936106   -0.490710
     17          1           0        3.903097    2.387798    0.846804
     18          1           0        2.231852    3.335245   -0.779836
     19          1           0        3.288837    2.880986   -2.124950
     20          1           0        3.810658    4.117131   -0.967817
     21          6           0       -4.311443    1.402706    1.122654
     22          6           0       -4.808189    0.429512    0.249352
     23          6           0       -3.936702   -0.432431   -0.423041
     24          6           0       -2.568154   -0.292626   -0.197605
     25          6           0       -2.042583    0.666968    0.666249
     26          6           0       -2.932656    1.518125    1.327954
     27          1           0       -4.995653    2.068095    1.640833
     28          1           0       -5.878494    0.337581    0.087981
     29          1           0       -4.294223   -1.194690   -1.104626
     30          1           0       -0.970611    0.734429    0.806753
     31          1           0       -2.544041    2.272993    2.005595
     32          7           0       -1.635713   -1.199417   -0.903780
     33          8           0       -0.434274   -1.055832   -0.687983
     34          8           0       -2.123958   -2.036573   -1.659705
 ---------------------------------------------------------------------

 SCF Done:  E(RHF) =  -669.535795030     A.U. after   15 cycles
 E2 =    -0.2091630683D+01 EUMP2 =    -0.67162742571274D+03

 The electronic state is 1-A.
 Alpha  occ. eigenvalues --  -20.60918 -20.60911 -15.85952 -11.31293 -11.27868
 Alpha  occ. eigenvalues --  -11.27853 -11.27596 -11.26871 -11.26860 -11.21132
 Alpha  occ. eigenvalues --  -11.20759 -11.20631 -11.20551 -11.20327 -11.20155
 Alpha  occ. eigenvalues --   -1.59980  -1.39537  -1.19464  -1.08863  -1.07651
 Alpha  occ. eigenvalues --   -1.04864  -1.02778  -0.95703  -0.95278  -0.86302
 Alpha  occ. eigenvalues --   -0.86262  -0.82541  -0.78834  -0.77652  -0.77316
 Alpha  occ. eigenvalues --   -0.72171  -0.71295  -0.70573  -0.65122  -0.64868
 Alpha  occ. eigenvalues --   -0.64297  -0.62213  -0.60189  -0.58651  -0.56846
 Alpha  occ. eigenvalues --   -0.55365  -0.54596  -0.53193  -0.52957  -0.51990
 Alpha  occ. eigenvalues --   -0.51687  -0.49258  -0.48941  -0.48934  -0.47146
 Alpha  occ. eigenvalues --   -0.45893  -0.44996  -0.44919  -0.44744  -0.43028
 Alpha  occ. eigenvalues --   -0.37441  -0.36466
 Alpha virt. eigenvalues --    0.04923   0.11187   0.16406   0.20561   0.23065
 Alpha virt. eigenvalues --    0.24997   0.25412   0.27512   0.27796   0.28528
 Alpha virt. eigenvalues --    0.29308   0.31272   0.32084   0.32313   0.32534

 Mulliken charges:
               1
     1  C   -0.298991
     2  C   -0.302168
     3  C   -0.475975
     4  H    0.146269
     5  H    0.142901
     6  H    0.156874
     7  H    0.168168
     8  H    0.149392
     9  H    0.151176
    10  H    0.161119
    11  C   -0.297272
    12  C   -0.299529
    13  C   -0.473805
    14  H    0.154160
    15  H    0.151012
    16  H    0.151403
    17  H    0.147477
    18  H    0.150119
    19  H    0.157140
    20  H    0.157664
    21  C   -0.170495
    22  C   -0.218592
    23  C   -0.170579
    24  C    0.157592
    25  C   -0.171659
    26  C   -0.218984
    27  H    0.226030
    28  H    0.223847
    29  H    0.275877
    30  H    0.276698
    31  H    0.223923
    32  N    0.493092
    33  O   -0.464721
    34  O   -0.459164
 Sum of Mulliken charges =  -0.00000

 Dipole moment (field-independent basis, Debye):
    X=             -3.5358    Y=              3.0834    Z=              2.3558  Tot=              5.2497
 Quadrupole moment (field-independent basis, Debye-Ang):
   XX=            -75.6354   YY=            -97.3980   ZZ=            -95.2563
   XY=             -5.4023   XZ=             -5.0641   YZ=              0.8298

 Normal termination of Gaussian 16 at Thu May  6 15:36:15 2021.
