 Gaussian 16, Revision A.03,
 Gaussian 16:  EM64L-G16RevA.03 25-Dec-2016

 -------------
 #p 6-31g* mp2
 -------------

 ------------------------------------------------------
 Input file generated by CHIRIPA (05-May-2021 14:51:09)
 ------------------------------------------------------
 Symbolic Z-matrix:
 Charge =  0 Multiplicity = 1

                         Standard orientation:
 ---------------------------------------------------------------------
 Center     Atomic      Atomic             Coordinates (Angstroms)
 Number     Number       Type             X           Y           Z
 ---------------------------------------------------------------------
      1          6           0       -4.065323    0.189320    0.005386
      2          6           0       -4.185463   -1.107897   -0.795100
      3          6           0       -5.488357   -1.857223   -0.514437
      4          1           0       -4.133838   -0.041111    1.077372
      5          1           0       -4.920457    0.837893   -0.230185
      6          1           0       -3.329629   -1.753253   -0.559133
      7          1           0       -4.116461   -0.874374   -1.865297
      8          1           0       -6.352842   -1.234927   -0.767446
      9          1           0       -5.561539   -2.118799    0.546140
     10          1           0       -5.553469   -2.781423   -1.097080
     11          6           0       -2.768125    0.949733   -0.264386
     12          6           0       -2.647986    2.246950    0.536101
     13          6           0       -1.345092    2.996275    0.255437
     14          1           0       -1.912991    0.301159   -0.028814
     15          1           0       -2.699610    1.180163   -1.336371
     16          1           0       -2.716987    2.013426    1.606298
     17          1           0       -3.503820    2.892305    0.300133
     18          1           0       -1.271909    3.257852   -0.805140
     19          1           0       -0.480606    2.373979    0.508446
     20          1           0       -1.279980    3.920476    0.838081
     21          6           0        4.155333   -0.670586   -0.036864
     22          6           0        4.864408    0.617823   -0.455432
     23          6           0        6.341382    0.399445   -0.785061
     24          1           0        4.668205   -1.096844    0.836183
     25          1           0        4.246276   -1.409960   -0.844607
     26          1           0        4.770964    1.355017    0.352297
     27          1           0        4.349672    1.041165   -1.327468
     28          1           0        6.451102   -0.316418   -1.606098
     29          1           0        6.874788   -0.000783    0.083210
     30          1           0        6.828838    1.333353   -1.081812
     31          6           0        2.678116   -0.468467    0.295863
     32          6           0        1.969040   -1.756875    0.714432
     33          6           0        0.492067   -1.538497    1.044061
     34          1           0        2.587171    0.270907    1.103607
     35          1           0        2.165243   -0.042209   -0.577183
     36          1           0        2.483776   -2.180218    1.586467
     37          1           0        2.062484   -2.494070   -0.093298
     38          1           0       -0.041339   -1.138270    0.175789
     39          1           0        0.382346   -0.822634    1.865097
     40          1           0        0.004609   -2.472406    1.340811
 ---------------------------------------------------------------------

 SCF Done:  E(RHF) =  -470.733335175     A.U. after   11 cycles
 E2 =    -0.1582923414D+01 EUMP2 =    -0.47231625858889D+03

 The electronic state is 1-A.
 Alpha  occ. eigenvalues --  -11.21665 -11.21611 -11.21552 -11.21537 -11.21443
 Alpha  occ. eigenvalues --  -11.21380 -11.21326 -11.21252 -11.21165 -11.21078
 Alpha  occ. eigenvalues --  -11.21034 -11.21012  -1.08470  -1.08364  -1.03576
 Alpha  occ. eigenvalues --   -1.03471  -0.96034  -0.95917  -0.87056  -0.86932
 Alpha  occ. eigenvalues --   -0.79656  -0.79526  -0.78303  -0.78156  -0.65116
 Alpha  occ. eigenvalues --   -0.64986  -0.60975  -0.60870  -0.59398  -0.59285
 Alpha  occ. eigenvalues --   -0.57666  -0.57514  -0.55377  -0.55159  -0.52726
 Alpha  occ. eigenvalues --   -0.52625  -0.52516  -0.52295  -0.50026  -0.49818
 Alpha  occ. eigenvalues --   -0.48052  -0.47812  -0.46719  -0.46557  -0.45949
 Alpha  occ. eigenvalues --   -0.45751  -0.45699  -0.45361  -0.43827  -0.43722
 Alpha virt. eigenvalues --    0.21223   0.22989   0.23832   0.24616   0.25457
 Alpha virt. eigenvalues --    0.26619   0.27159   0.27226   0.28239   0.29418
 Alpha virt. eigenvalues --    0.31088   0.31416   0.31807   0.31849   0.32146

 Mulliken charges:
               1
     1  C   -0.297384
     2  C   -0.300407
     3  C   -0.475635
     4  H    0.149666
     5  H    0.149149
     6  H    0.152580
     7  H    0.151481
     8  H    0.155083
     9  H    0.155202
    10  H    0.159996
    11  C   -0.307902
    12  C   -0.298753
    13  C   -0.476831
    14  H    0.159974
    15  H    0.148493
    16  H    0.151677
    17  H    0.151550
    18  H    0.154724
    19  H    0.156409
    20  H    0.159860
    21  C   -0.298337
    22  C   -0.299747
    23  C   -0.475751
    24  H    0.149718
    25  H    0.149664
    26  H    0.152095
    27  H    0.152251
    28  H    0.155188
    29  H    0.155156
    30  H    0.160392
    31  C   -0.299051
    32  C   -0.299397
    33  C   -0.481990
    34  H    0.149531
    35  H    0.150399
    36  H    0.152223
    37  H    0.152325
    38  H    0.160600
    39  H    0.155171
    40  H    0.160629
 Sum of Mulliken charges =  -0.00000

 Dipole moment (field-independent basis, Debye):
    X=              0.0479    Y=             -0.0256    Z=              0.0061  Tot=              0.0547
 Quadrupole moment (field-independent basis, Debye-Ang):
   XX=            -86.5865   YY=            -84.9894   ZZ=            -83.3269
   XY=             -0.7456   XZ=              0.9278   YZ=             -0.1522

 Normal termination of Gaussian 16 at Thu May  6 02:10:52 2021.
