 Gaussian 16, Revision A.03,
 Gaussian 16:  EM64L-G16RevA.03 25-Dec-2016

 -------------
 #p 6-31g* mp2
 -------------

 ------------------------------------------------------
 Input file generated by CHIRIPA (05-May-2021 14:53:17)
 ------------------------------------------------------
 Symbolic Z-matrix:
 Charge =  0 Multiplicity = 1

                         Standard orientation:
 ---------------------------------------------------------------------
 Center     Atomic      Atomic             Coordinates (Angstroms)
 Number     Number       Type             X           Y           Z
 ---------------------------------------------------------------------
      1          6           0       -3.643934    1.113425   -0.247110
      2          6           0       -2.876754    2.030685    0.705808
      3          6           0       -2.726464    3.452736    0.164534
      4          1           0       -3.126092    1.085819   -1.215626
      5          1           0       -4.638007    1.541715   -0.436270
      6          1           0       -1.884935    1.600083    0.894206
      7          1           0       -3.396378    2.055959    1.672229
      8          1           0       -3.708424    3.905632   -0.006464
      9          1           0       -2.188394    3.447166   -0.788908
     10          1           0       -2.175025    4.091422    0.861567
     11          6           0       -3.802377   -0.311603    0.280070
     12          6           0       -4.569557   -1.228863   -0.672849
     13          6           0       -4.719847   -2.650914   -0.131574
     14          1           0       -2.808304   -0.739894    0.469230
     15          1           0       -4.320219   -0.283998    1.248586
     16          1           0       -4.049933   -1.254137   -1.639269
     17          1           0       -5.561376   -0.798262   -0.861247
     18          1           0       -5.257917   -2.645345    0.821867
     19          1           0       -3.737887   -3.103811    0.039424
     20          1           0       -5.271286   -3.289601   -0.828607
     21          6           0        0.646679   -1.412437    0.189165
     22          6           0        0.740196   -0.064936   -0.174175
     23          6           0        1.988264    0.554460   -0.289167
     24          6           0        3.127401   -0.206943   -0.032408
     25          6           0        3.066969   -1.551269    0.331495
     26          6           0        1.808316   -2.150003    0.440397
     27          1           0       -0.326961   -1.885573    0.276128
     28          1           0       -0.160260    0.510323   -0.369882
     29          1           0        2.089551    1.596082   -0.568778
     30          1           0        3.982356   -2.098843    0.520298
     31          1           0        1.738719   -3.196654    0.722747
     32          7           0        4.454277    0.437847   -0.150920
     33          8           0        5.442857   -0.254792    0.080592
     34          8           0        4.480578    1.623663   -0.473080
 ---------------------------------------------------------------------

 SCF Done:  E(RHF) =  -669.535301969     A.U. after   15 cycles
 E2 =    -0.2092130096D+01 EUMP2 =    -0.67162743206561D+03

 The electronic state is 1-A.
 Alpha  occ. eigenvalues --  -20.60756 -20.60751 -15.85810 -11.31181 -11.27755
 Alpha  occ. eigenvalues --  -11.27750 -11.27498 -11.26767 -11.26741 -11.22606
 Alpha  occ. eigenvalues --  -11.22579 -11.22521 -11.22415 -11.21998 -11.21885
 Alpha  occ. eigenvalues --   -1.59831  -1.39385  -1.19356  -1.09484  -1.08749
 Alpha  occ. eigenvalues --   -1.04762  -1.04495  -0.96937  -0.95584  -0.87947
 Alpha  occ. eigenvalues --   -0.86162  -0.82418  -0.80552  -0.79298  -0.77463
 Alpha  occ. eigenvalues --   -0.72028  -0.71154  -0.70475  -0.66235  -0.65007
 Alpha  occ. eigenvalues --   -0.64709  -0.62219  -0.61785  -0.60292  -0.58538
 Alpha  occ. eigenvalues --   -0.56248  -0.55265  -0.53589  -0.53346  -0.53087
 Alpha  occ. eigenvalues --   -0.52863  -0.50879  -0.48873  -0.48782  -0.48766
 Alpha  occ. eigenvalues --   -0.47598  -0.46812  -0.46769  -0.44789  -0.44766
 Alpha  occ. eigenvalues --   -0.37334  -0.36358
 Alpha virt. eigenvalues --    0.05073   0.11205   0.16532   0.17730   0.21826
 Alpha virt. eigenvalues --    0.23318   0.24991   0.26087   0.26885   0.27710
 Alpha virt. eigenvalues --    0.29464   0.30575   0.30915   0.31488   0.31987

 Mulliken charges:
               1
     1  C   -0.300850
     2  C   -0.305227
     3  C   -0.476690
     4  H    0.147492
     5  H    0.155369
     6  H    0.146528
     7  H    0.157391
     8  H    0.159249
     9  H    0.153481
    10  H    0.164680
    11  C   -0.300024
    12  C   -0.300813
    13  C   -0.474938
    14  H    0.139602
    15  H    0.154780
    16  H    0.152363
    17  H    0.156355
    18  H    0.158049
    19  H    0.148894
    20  H    0.164275
    21  C   -0.175062
    22  C   -0.224764
    23  C   -0.172088
    24  C    0.158621
    25  C   -0.170661
    26  C   -0.218608
    27  H    0.228475
    28  H    0.231693
    29  H    0.275919
    30  H    0.275634
    31  H    0.223651
    32  N    0.488052
    33  O   -0.460459
    34  O   -0.460368
 Sum of Mulliken charges =  -0.00000

 Dipole moment (field-independent basis, Debye):
    X=             -4.9274    Y=             -2.1957    Z=              0.4343  Tot=              5.4120
 Quadrupole moment (field-independent basis, Debye-Ang):
   XX=           -121.4631   YY=            -90.9025   ZZ=            -95.1285
   XY=             -9.0205   XZ=              1.7141   YZ=             -0.8079

 Normal termination of Gaussian 16 at Thu May  6 10:41:07 2021.
