 Gaussian 16, Revision A.03,
 Gaussian 16:  EM64L-G16RevA.03 25-Dec-2016

 -------------
 #p 6-31g* mp2
 -------------

 ------------------------------------------------------
 Input file generated by CHIRIPA (05-May-2021 14:55:22)
 ------------------------------------------------------
 Symbolic Z-matrix:
 Charge =  0 Multiplicity = 1

                         Standard orientation:
 ---------------------------------------------------------------------
 Center     Atomic      Atomic             Coordinates (Angstroms)
 Number     Number       Type             X           Y           Z
 ---------------------------------------------------------------------
      1          6           0        3.465582    2.164168   -0.915916
      2          6           0        3.835250    0.881613   -1.334152
      3          6           0        3.392726   -0.247237   -0.638151
      4          6           0        2.578059   -0.055978    0.476760
      5          6           0        2.192559    1.208847    0.918234
      6          6           0        2.646859    2.323410    0.206962
      7          1           0        3.813919    3.035536   -1.462518
      8          1           0        4.470984    0.754928   -2.205839
      9          1           0        3.663743   -1.251632   -0.940074
     10          1           0        1.557808    1.303360    1.790918
     11          1           0        2.358180    3.318254    0.534061
     12          7           0        2.103345   -1.243479    1.221668
     13          8           0        1.386483   -1.048154    2.200747
     14          8           0        2.457115   -2.347081    0.812344
     15          6           0       -4.146344   -0.155904   -0.291968
     16          6           0       -4.560184    1.092566    0.487805
     17          6           0       -6.056063    1.124055    0.802681
     18          1           0       -4.720485   -0.203261   -1.227416
     19          1           0       -4.418871   -1.048786    0.287588
     20          1           0       -4.285706    1.982852   -0.092426
     21          1           0       -3.984853    1.137059    1.421417
     22          1           0       -6.341965    0.253697    1.402129
     23          1           0       -6.644527    1.104297   -0.120315
     24          1           0       -6.330035    2.024978    1.360480
     25          6           0       -2.653777   -0.201823   -0.614247
     26          6           0       -2.239938   -1.450292   -1.394019
     27          6           0       -0.744058   -1.481781   -1.708896
     28          1           0       -2.381251    0.691060   -1.193803
     29          1           0       -2.079637   -0.154465    0.321201
     30          1           0       -2.815269   -1.494784   -2.327632
     31          1           0       -2.514416   -2.340579   -0.813789
     32          1           0       -0.155595   -1.462023   -0.785900
     33          1           0       -0.458157   -0.611423   -2.308345
     34          1           0       -0.470087   -2.382703   -2.266694
 ---------------------------------------------------------------------

 SCF Done:  E(RHF) =  -669.535782244     A.U. after   15 cycles
 E2 =    -0.2091628198D+01 EUMP2 =    -0.67162741044211D+03

 The electronic state is 1-A.
 Alpha  occ. eigenvalues --  -20.60831 -20.60819 -15.85866 -11.31188 -11.27759
 Alpha  occ. eigenvalues --  -11.27753 -11.27502 -11.26769 -11.26759 -11.21415
 Alpha  occ. eigenvalues --  -11.21239 -11.21125 -11.21048 -11.20905 -11.20732
 Alpha  occ. eigenvalues --   -1.59906  -1.39456  -1.19362  -1.08772  -1.08148
 Alpha  occ. eigenvalues --   -1.04759  -1.03257  -0.95710  -0.95612  -0.86731
 Alpha  occ. eigenvalues --   -0.86161  -0.82443  -0.79331  -0.77967  -0.77495
 Alpha  occ. eigenvalues --   -0.72090  -0.71247  -0.70476  -0.65018  -0.64768
 Alpha  occ. eigenvalues --   -0.64765  -0.62108  -0.60642  -0.59079  -0.57326
 Alpha  occ. eigenvalues --   -0.55270  -0.54990  -0.53102  -0.52855  -0.52406
 Alpha  occ. eigenvalues --   -0.52133  -0.49654  -0.48848  -0.48845  -0.47650
 Alpha  occ. eigenvalues --   -0.46355  -0.45510  -0.45417  -0.44860  -0.43508
 Alpha  occ. eigenvalues --   -0.37334  -0.36355
 Alpha virt. eigenvalues --    0.05030   0.11282   0.16520   0.21405   0.23132
 Alpha virt. eigenvalues --    0.24484   0.26775   0.27310   0.27606   0.28133
 Alpha virt. eigenvalues --    0.28389   0.30754   0.31590   0.32067   0.32209

 Mulliken charges:
               1
     1  C   -0.170689
     2  C   -0.218657
     3  C   -0.170097
     4  C    0.156721
     5  C   -0.170806
     6  C   -0.218520
     7  H    0.225547
     8  H    0.223468
     9  H    0.275930
    10  H    0.275433
    11  H    0.223454
    12  N    0.489383
    13  O   -0.460913
    14  O   -0.458900
    15  C   -0.298135
    16  C   -0.299645
    17  C   -0.475551
    18  H    0.148216
    19  H    0.151973
    20  H    0.149102
    21  H    0.153031
    22  H    0.156442
    23  H    0.154452
    24  H    0.159004
    25  C   -0.299981
    26  C   -0.299186
    27  C   -0.476348
    28  H    0.145127
    29  H    0.154788
    30  H    0.149423
    31  H    0.156630
    32  H    0.157389
    33  H    0.150023
    34  H    0.161891
 Sum of Mulliken charges =  -0.00000

 Dipole moment (field-independent basis, Debye):
    X=              1.7305    Y=              4.1146    Z=             -2.5834  Tot=              5.1574
 Quadrupole moment (field-independent basis, Debye-Ang):
   XX=            -86.7437   YY=            -93.5413   ZZ=            -95.1836
   XY=              9.4819   XZ=             -7.6496   YZ=              3.8210

 Normal termination of Gaussian 16 at Thu May  6 15:53:12 2021.
