 Gaussian 16, Revision A.03,
 Gaussian 16:  EM64L-G16RevA.03 25-Dec-2016

 -------------
 #p 6-31g* mp2
 -------------

 ------------------------------------------------------
 Input file generated by CHIRIPA (05-May-2021 14:55:20)
 ------------------------------------------------------
 Symbolic Z-matrix:
 Charge =  0 Multiplicity = 1

                         Standard orientation:
 ---------------------------------------------------------------------
 Center     Atomic      Atomic             Coordinates (Angstroms)
 Number     Number       Type             X           Y           Z
 ---------------------------------------------------------------------
      1          6           0       -0.874065   -2.138197    0.444588
      2          6           0       -0.907945   -0.955354    1.190414
      3          6           0       -1.950422   -0.039210    1.021685
      4          6           0       -2.947015   -0.339186    0.094265
      5          6           0       -2.941220   -1.509085   -0.663754
      6          6           0       -1.889021   -2.410807   -0.478487
      7          1           0       -0.060467   -2.844278    0.582084
      8          1           0       -0.121070   -0.741018    1.908002
      9          1           0       -2.001323    0.884093    1.585900
     10          1           0       -3.739877   -1.695100   -1.371542
     11          1           0       -1.865295   -3.328624   -1.059086
     12          7           0       -4.055785    0.623060   -0.093114
     13          8           0       -4.921744    0.335440   -0.916537
     14          8           0       -4.037885    1.646669    0.586989
     15          6           0        3.867259   -0.046777   -0.246444
     16          6           0        5.359469   -0.048265    0.087161
     17          6           0        6.003499   -1.423604   -0.090219
     18          1           0        3.354425   -0.778557    0.392652
     19          1           0        3.729942   -0.386113   -1.282490
     20          1           0        5.494031    0.292296    1.121825
     21          1           0        5.868780    0.683741   -0.552670
     22          1           0        5.898684   -1.767593   -1.124281
     23          1           0        5.521805   -2.161263    0.559727
     24          1           0        7.070240   -1.401841    0.153604
     25          6           0        3.209288    1.321084   -0.073933
     26          6           0        1.717079    1.322572   -0.407539
     27          6           0        1.073048    2.697910   -0.230159
     28          1           0        3.346606    1.660421    0.962112
     29          1           0        3.722122    2.052864   -0.713029
     30          1           0        1.207767    0.590565    0.232292
     31          1           0        1.582516    0.982012   -1.442203
     32          1           0        1.554742    3.435571   -0.880105
     33          1           0        1.177863    3.041900    0.803904
     34          1           0        0.006308    2.676149   -0.473982
 ---------------------------------------------------------------------

 SCF Done:  E(RHF) =  -669.534794863     A.U. after   15 cycles
 E2 =    -0.2092813044D+01 EUMP2 =    -0.67162760790753D+03

 The electronic state is 1-A.
 Alpha  occ. eigenvalues --  -20.60801 -20.60796 -15.85855 -11.31237 -11.27803
 Alpha  occ. eigenvalues --  -11.27795 -11.27544 -11.26828 -11.26815 -11.22087
 Alpha  occ. eigenvalues --  -11.21953 -11.21898 -11.21791 -11.21563 -11.21307
 Alpha  occ. eigenvalues --   -1.59876  -1.39429  -1.19414  -1.08901  -1.08799
 Alpha  occ. eigenvalues --   -1.04830  -1.03937  -0.96393  -0.95633  -0.87405
 Alpha  occ. eigenvalues --   -0.86222  -0.82473  -0.80007  -0.78720  -0.77511
 Alpha  occ. eigenvalues --   -0.72072  -0.71200  -0.70509  -0.65575  -0.65066
 Alpha  occ. eigenvalues --   -0.64818  -0.62203  -0.61328  -0.59758  -0.58007
 Alpha  occ. eigenvalues --   -0.55704  -0.55309  -0.53209  -0.52997  -0.52940
 Alpha  occ. eigenvalues --   -0.52791  -0.50340  -0.48835  -0.48826  -0.48312
 Alpha  occ. eigenvalues --   -0.47055  -0.46257  -0.46186  -0.44830  -0.44201
 Alpha  occ. eigenvalues --   -0.37362  -0.36346
 Alpha virt. eigenvalues --    0.05012   0.11118   0.16446   0.20306   0.22785
 Alpha virt. eigenvalues --    0.23860   0.25691   0.26699   0.27100   0.28346
 Alpha virt. eigenvalues --    0.28926   0.30274   0.31205   0.31557   0.31802

 Mulliken charges:
               1
     1  C   -0.170383
     2  C   -0.217174
     3  C   -0.169962
     4  C    0.158110
     5  C   -0.170746
     6  C   -0.218350
     7  H    0.226181
     8  H    0.223593
     9  H    0.276540
    10  H    0.275786
    11  H    0.223766
    12  N    0.488059
    13  O   -0.460207
    14  O   -0.460289
    15  C   -0.296143
    16  C   -0.299805
    17  C   -0.475635
    18  H    0.140766
    19  H    0.150658
    20  H    0.152147
    21  H    0.154325
    22  H    0.155647
    23  H    0.152544
    24  H    0.162149
    25  C   -0.298309
    26  C   -0.303890
    27  C   -0.478214
    28  H    0.147893
    29  H    0.152075
    30  H    0.149802
    31  H    0.153417
    32  H    0.157916
    33  H    0.152451
    34  H    0.165284
 Sum of Mulliken charges =  -0.00000

 Dipole moment (field-independent basis, Debye):
    X=              3.8891    Y=             -3.3726    Z=              0.5971  Tot=              5.1823
 Quadrupole moment (field-independent basis, Debye-Ang):
   XX=           -117.7913   YY=            -91.7624   ZZ=            -91.7368
   XY=             10.8424   XZ=             -0.2858   YZ=              1.4890

 Normal termination of Gaussian 16 at Thu May  6 14:07:17 2021.
