 Gaussian 16, Revision A.03,
 Gaussian 16:  EM64L-G16RevA.03 25-Dec-2016

 -------------
 #p 6-31g* mp2
 -------------

 ------------------------------------------------------
 Input file generated by CHIRIPA (05-May-2021 14:53:18)
 ------------------------------------------------------
 Symbolic Z-matrix:
 Charge =  0 Multiplicity = 1

                         Standard orientation:
 ---------------------------------------------------------------------
 Center     Atomic      Atomic             Coordinates (Angstroms)
 Number     Number       Type             X           Y           Z
 ---------------------------------------------------------------------
      1          6           0        3.774020    0.714387    0.458222
      2          6           0        3.069385    1.837275   -0.303747
      3          6           0        2.770089    3.051440    0.576037
      4          1           0        3.148777    0.408028    1.308023
      5          1           0        4.711017    1.100628    0.882778
      6          1           0        2.134673    1.448663   -0.727905
      7          1           0        3.696290    2.140865   -1.151944
      8          1           0        3.695709    3.465997    0.988312
      9          1           0        2.125219    2.769863    1.414761
     10          1           0        2.266284    3.842050    0.011257
     11          6           0        4.079925   -0.506294   -0.407855
     12          6           0        4.784560   -1.629182    0.354114
     13          6           0        5.083855   -2.843348   -0.525670
     14          1           0        3.142927   -0.892536   -0.832411
     15          1           0        4.705167   -0.199935   -1.257656
     16          1           0        4.157654   -1.932772    1.202311
     17          1           0        5.719271   -1.240570    0.778272
     18          1           0        5.728725   -2.561770   -1.364394
     19          1           0        4.158235   -3.257905   -0.937946
     20          1           0        5.587660   -3.633958    0.039110
     21          6           0       -2.028058    2.199456   -0.307363
     22          6           0       -1.217065    1.085902   -0.064861
     23          6           0       -1.782357   -0.182588    0.096155
     24          6           0       -3.168480   -0.301780    0.008138
     25          6           0       -4.003144    0.788517   -0.232442
     26          6           0       -3.416062    2.047479   -0.390233
     27          1           0       -1.580461    3.181149   -0.431192
     28          1           0       -0.138824    1.200950    0.000001
     29          1           0       -1.178031   -1.061577    0.284802
     30          1           0       -5.074850    0.642423   -0.291786
     31          1           0       -4.048354    2.910507   -0.578468
     32          7           0       -3.778463   -1.639630    0.176892
     33          8           0       -5.002289   -1.718121    0.094863
     34          8           0       -3.021194   -2.584413    0.387994
 ---------------------------------------------------------------------

 SCF Done:  E(RHF) =  -669.535538776     A.U. after   15 cycles
 E2 =    -0.2091208260D+01 EUMP2 =    -0.67162674703558D+03

 The electronic state is 1-A.
 Alpha  occ. eigenvalues --  -20.60756 -20.60751 -15.85809 -11.31170 -11.27741
 Alpha  occ. eigenvalues --  -11.27738 -11.27473 -11.26751 -11.26720 -11.22650
 Alpha  occ. eigenvalues --  -11.22174 -11.22128 -11.22036 -11.21966 -11.21358
 Alpha  occ. eigenvalues --   -1.59832  -1.39385  -1.19342  -1.09161  -1.08735
 Alpha  occ. eigenvalues --   -1.04747  -1.04242  -0.96674  -0.95571  -0.87689
 Alpha  occ. eigenvalues --   -0.86144  -0.82407  -0.80327  -0.78919  -0.77457
 Alpha  occ. eigenvalues --   -0.72028  -0.71155  -0.70448  -0.65874  -0.64993
 Alpha  occ. eigenvalues --   -0.64731  -0.62185  -0.61544  -0.60074  -0.58267
 Alpha  occ. eigenvalues --   -0.55963  -0.55238  -0.53377  -0.53091  -0.53074
 Alpha  occ. eigenvalues --   -0.52831  -0.50622  -0.48799  -0.48783  -0.48603
 Alpha  occ. eigenvalues --   -0.47373  -0.46456  -0.46369  -0.44792  -0.44483
 Alpha  occ. eigenvalues --   -0.37319  -0.36349
 Alpha virt. eigenvalues --    0.05081   0.11273   0.16561   0.18778   0.22828
 Alpha virt. eigenvalues --    0.23729   0.25455   0.26667   0.26903   0.28474
 Alpha virt. eigenvalues --    0.29136   0.29697   0.30993   0.31322   0.32248

 Mulliken charges:
               1
     1  C   -0.299443
     2  C   -0.305083
     3  C   -0.478667
     4  H    0.148739
     5  H    0.153436
     6  H    0.144500
     7  H    0.157982
     8  H    0.161812
     9  H    0.153945
    10  H    0.157871
    11  C   -0.298403
    12  C   -0.300380
    13  C   -0.476330
    14  H    0.147749
    15  H    0.151637
    16  H    0.153066
    17  H    0.152949
    18  H    0.155574
    19  H    0.156939
    20  H    0.162511
    21  C   -0.172849
    22  C   -0.227440
    23  C   -0.173126
    24  C    0.158941
    25  C   -0.171137
    26  C   -0.218517
    27  H    0.226228
    28  H    0.236286
    29  H    0.275348
    30  H    0.275538
    31  H    0.223363
    32  N    0.488080
    33  O   -0.460488
    34  O   -0.460631
 Sum of Mulliken charges =  -0.00000

 Dipole moment (field-independent basis, Debye):
    X=              2.3692    Y=              4.7037    Z=             -0.5842  Tot=              5.2990
 Quadrupole moment (field-independent basis, Debye-Ang):
   XX=           -102.5392   YY=            -97.8572   ZZ=            -95.7622
   XY=            -17.1696   XZ=              2.5942   YZ=             -0.6582

 Normal termination of Gaussian 16 at Wed May  5 22:03:24 2021.
