 Gaussian 16, Revision A.03,
 Gaussian 16:  EM64L-G16RevA.03 25-Dec-2016

 -------------
 #p 6-31g* mp2
 -------------

 ------------------------------------------------------
 Input file generated by CHIRIPA (05-May-2021 14:57:26)
 ------------------------------------------------------
 Symbolic Z-matrix:
 Charge =  0 Multiplicity = 1

                         Standard orientation:
 ---------------------------------------------------------------------
 Center     Atomic      Atomic             Coordinates (Angstroms)
 Number     Number       Type             X           Y           Z
 ---------------------------------------------------------------------
      1          6           0        1.495101   -0.766112    1.764219
      2          6           0        1.821553   -1.576423    0.671815
      3          6           0        2.813486   -1.184098   -0.231897
      4          6           0        3.461747    0.030244   -0.011847
      5          6           0        3.159023    0.859504    1.067031
      6          6           0        2.163699    0.447127    1.957998
      7          1           0        0.723226   -1.078668    2.461294
      8          1           0        1.303964   -2.519154    0.518828
      9          1           0        3.086093   -1.792067   -1.085991
     10          1           0        3.692407    1.793843    1.193240
     11          1           0        1.912255    1.078453    2.805494
     12          7           0        4.513657    0.456195   -0.961821
     13          8           0        5.070063    1.530609   -0.745755
     14          8           0        4.761820   -0.292423   -1.904488
     15          6           0       -3.879554    2.492800   -0.144820
     16          6           0       -4.758382    1.560921   -0.706767
     17          6           0       -4.441154    0.199347   -0.712281
     18          6           0       -3.231227   -0.197174   -0.144710
     19          6           0       -2.334801    0.707059    0.422806
     20          6           0       -2.672697    2.063651    0.417183
     21          1           0       -4.134012    3.548569   -0.144864
     22          1           0       -5.696338    1.891331   -1.143932
     23          1           0       -5.103136   -0.543455   -1.140584
     24          1           0       -1.407115    0.347429    0.851154
     25          1           0       -1.988261    2.785121    0.854303
     26          7           0       -2.884451   -1.635975   -0.144651
     27          8           0       -1.812328   -1.959762    0.361659
     28          8           0       -3.691340   -2.412676   -0.650917
 ---------------------------------------------------------------------

 SCF Done:  E(RHF) =  -868.339893104     A.U. after   16 cycles
 E2 =    -0.2599995245D+01 EUMP2 =    -0.87093988834907D+03

 The electronic state is 1-A.
 Alpha  occ. eigenvalues --  -20.61601 -20.61536 -20.60612 -20.60595 -15.86614
 Alpha  occ. eigenvalues --  -15.85653 -11.31743 -11.30967 -11.28290 -11.28274
 Alpha  occ. eigenvalues --  -11.27984 -11.27554 -11.27384 -11.27262 -11.27236
 Alpha  occ. eigenvalues --  -11.27142 -11.26622 -11.26282  -1.60632  -1.59683
 Alpha  occ. eigenvalues --   -1.40198  -1.39237  -1.19896  -1.19105  -1.09332
 Alpha  occ. eigenvalues --   -1.08502  -1.05268  -1.04472  -0.96210  -0.95348
 Alpha  occ. eigenvalues --   -0.86677  -0.85857  -0.83057  -0.82169  -0.78135
 Alpha  occ. eigenvalues --   -0.77234  -0.72864  -0.71936  -0.71868  -0.71009
 Alpha  occ. eigenvalues --   -0.71002  -0.70161  -0.65560  -0.65272  -0.64733
 Alpha  occ. eigenvalues --   -0.64414  -0.62626  -0.61790  -0.55775  -0.54930
 Alpha  occ. eigenvalues --   -0.53606  -0.53390  -0.52798  -0.52520  -0.49607
 Alpha  occ. eigenvalues --   -0.49563  -0.48632  -0.48620  -0.45652  -0.44654
 Alpha  occ. eigenvalues --   -0.37860  -0.37086  -0.36858  -0.36069
 Alpha virt. eigenvalues --    0.04388   0.05215   0.10793   0.11563   0.15930
 Alpha virt. eigenvalues --    0.16633   0.20711   0.21956   0.26625   0.27330
 Alpha virt. eigenvalues --    0.27856   0.28975   0.30578   0.31291   0.32687

 Mulliken charges:
               1
     1  C   -0.178706
     2  C   -0.213591
     3  C   -0.174009
     4  C    0.158892
     5  C   -0.173281
     6  C   -0.224246
     7  H    0.231769
     8  H    0.241699
     9  H    0.276622
    10  H    0.272960
    11  H    0.218931
    12  N    0.487958
    13  O   -0.462604
    14  O   -0.459485
    15  C   -0.169467
    16  C   -0.218706
    17  C   -0.169746
    18  C    0.156903
    19  C   -0.172237
    20  C   -0.219808
    21  H    0.227765
    22  H    0.225474
    23  H    0.276596
    24  H    0.274537
    25  H    0.223974
    26  N    0.491051
    27  O   -0.473471
    28  O   -0.455771
 Sum of Mulliken charges =  -0.00000

 Dipole moment (field-independent basis, Debye):
    X=             -5.1739    Y=              3.3917    Z=              3.2262  Tot=              6.9772
 Quadrupole moment (field-independent basis, Debye-Ang):
   XX=           -119.4424   YY=           -103.4851   ZZ=           -103.7562
   XY=            -20.6495   XZ=             14.7378   YZ=              2.3261

 Normal termination of Gaussian 16 at Fri May  7 00:30:05 2021.
