 Gaussian 16, Revision A.03,
 Gaussian 16:  EM64L-G16RevA.03 25-Dec-2016

 -------------
 #p 6-31g* mp2
 -------------

 ------------------------------------------------------
 Input file generated by CHIRIPA (05-May-2021 14:53:12)
 ------------------------------------------------------
 Symbolic Z-matrix:
 Charge =  0 Multiplicity = 1

                         Standard orientation:
 ---------------------------------------------------------------------
 Center     Atomic      Atomic             Coordinates (Angstroms)
 Number     Number       Type             X           Y           Z
 ---------------------------------------------------------------------
      1          6           0       -2.903375   -0.882231   -0.603112
      2          6           0       -1.538904   -0.217211   -0.787370
      3          6           0       -0.525181   -1.129481   -1.478689
      4          1           0       -2.778966   -1.803981   -0.018436
      5          1           0       -3.291489   -1.185180   -1.585449
      6          1           0       -1.154105    0.085635    0.194888
      7          1           0       -1.666603    0.703162   -1.371511
      8          1           0       -0.883814   -1.421728   -2.470947
      9          1           0       -0.368404   -2.042763   -0.895648
     10          1           0        0.443190   -0.634163   -1.600252
     11          6           0       -3.927531    0.017289    0.086595
     12          6           0       -5.292003   -0.647731    0.270852
     13          6           0       -6.305726    0.264539    0.962172
     14          1           0       -3.539418    0.320237    1.068931
     15          1           0       -4.051941    0.939038   -0.498081
     16          1           0       -5.164304   -1.568105    0.854994
     17          1           0       -5.676802   -0.950578   -0.711405
     18          1           0       -6.462502    1.177821    0.379130
     19          1           0       -5.947092    0.556786    1.954429
     20          1           0       -7.274097   -0.230780    1.083734
     21          6           0        4.136376   -1.662415    0.659597
     22          6           0        3.438383   -1.052034    1.706861
     23          6           0        2.622077    0.056842    1.464819
     24          6           0        2.526397    0.531248    0.157503
     25          6           0        3.209233   -0.055106   -0.907022
     26          6           0        4.019778   -1.162884   -0.641708
     27          1           0        4.768265   -2.523391    0.856660
     28          1           0        3.527040   -1.437823    2.718470
     29          1           0        2.070604    0.548601    2.256948
     30          1           0        3.100887    0.352165   -1.904925
     31          1           0        4.560683   -1.634899   -1.456979
     32          7           0        1.665259    1.704585   -0.111055
     33          8           0        1.597824    2.103374   -1.271682
     34          8           0        1.074041    2.203239    0.844163
 ---------------------------------------------------------------------

 SCF Done:  E(RHF) =  -669.535206839     A.U. after   15 cycles
 E2 =    -0.2093923240D+01 EUMP2 =    -0.67162913007914D+03

 The electronic state is 1-A.
 Alpha  occ. eigenvalues --  -20.60919 -20.60905 -15.85915 -11.31233 -11.27811
 Alpha  occ. eigenvalues --  -11.27796 -11.27546 -11.26823 -11.26813 -11.21189
 Alpha  occ. eigenvalues --  -11.20921 -11.20869 -11.20814 -11.20686 -11.20611
 Alpha  occ. eigenvalues --   -1.59958  -1.39518  -1.19421  -1.08824  -1.07913
 Alpha  occ. eigenvalues --   -1.04819  -1.03048  -0.95667  -0.95528  -0.86558
 Alpha  occ. eigenvalues --   -0.86212  -0.82499  -0.79096  -0.77709  -0.77554
 Alpha  occ. eigenvalues --   -0.72152  -0.71299  -0.70533  -0.65077  -0.64822
 Alpha  occ. eigenvalues --   -0.64545  -0.62172  -0.60443  -0.58900  -0.57136
 Alpha  occ. eigenvalues --   -0.55320  -0.54828  -0.53262  -0.52911  -0.52126
 Alpha  occ. eigenvalues --   -0.51932  -0.49462  -0.48925  -0.48908  -0.47437
 Alpha  occ. eigenvalues --   -0.46144  -0.45319  -0.45207  -0.44745  -0.43295
 Alpha  occ. eigenvalues --   -0.37351  -0.36389
 Alpha virt. eigenvalues --    0.04952   0.11134   0.16440   0.21336   0.23347
 Alpha virt. eigenvalues --    0.24649   0.27129   0.27210   0.27773   0.28268
 Alpha virt. eigenvalues --    0.28544   0.30721   0.31556   0.31926   0.32358

 Mulliken charges:
               1
     1  C   -0.298140
     2  C   -0.304772
     3  C   -0.479856
     4  H    0.145411
     5  H    0.147824
     6  H    0.154459
     7  H    0.163708
     8  H    0.153683
     9  H    0.149821
    10  H    0.159796
    11  C   -0.298165
    12  C   -0.299283
    13  C   -0.475400
    14  H    0.151179
    15  H    0.152691
    16  H    0.149621
    17  H    0.150828
    18  H    0.156122
    19  H    0.155167
    20  H    0.158355
    21  C   -0.170719
    22  C   -0.218295
    23  C   -0.171547
    24  C    0.161249
    25  C   -0.174585
    26  C   -0.217233
    27  H    0.225863
    28  H    0.223585
    29  H    0.275493
    30  H    0.275660
    31  H    0.223953
    32  N    0.491245
    33  O   -0.459150
    34  O   -0.458567
 Sum of Mulliken charges =  -0.00000

 Dipole moment (field-independent basis, Debye):
    X=              3.1511    Y=             -3.9812    Z=              0.9625  Tot=              5.1678
 Quadrupole moment (field-independent basis, Debye-Ang):
   XX=            -80.6351   YY=           -100.1511   ZZ=            -89.1973
   XY=             -9.1663   XZ=              2.3211   YZ=             -0.6604

 Normal termination of Gaussian 16 at Wed May  5 17:00:19 2021.
