 Gaussian 16, Revision A.03,
 Gaussian 16:  EM64L-G16RevA.03 25-Dec-2016

 -------------
 #p 6-31g* mp2
 -------------

 ------------------------------------------------------
 Input file generated by CHIRIPA (05-May-2021 14:53:14)
 ------------------------------------------------------
 Symbolic Z-matrix:
 Charge =  0 Multiplicity = 1

                         Standard orientation:
 ---------------------------------------------------------------------
 Center     Atomic      Atomic             Coordinates (Angstroms)
 Number     Number       Type             X           Y           Z
 ---------------------------------------------------------------------
      1          6           0        3.499218   -0.105285    0.042556
      2          6           0        4.027938   -1.205845   -0.877883
      3          6           0        4.700298   -2.345217   -0.111360
      4          1           0        4.329556    0.293527    0.641249
      5          1           0        2.783927   -0.542984    0.752607
      6          1           0        4.740977   -0.765948   -1.586884
      7          1           0        3.196280   -1.601951   -1.474591
      8          1           0        3.994491   -2.810823    0.584088
      9          1           0        5.547965   -1.970071    0.471157
     10          1           0        5.070891   -3.120946   -0.788681
     11          6           0        2.824339    1.040749   -0.709024
     12          6           0        2.295619    2.141308    0.211415
     13          6           0        1.623259    3.280680   -0.555108
     14          1           0        3.539630    1.478448   -1.419076
     15          1           0        1.994001    0.641937   -1.307717
     16          1           0        3.127277    2.537415    0.808123
     17          1           0        1.582580    1.701412    0.920416
     18          1           0        0.775592    2.905534   -1.137626
     19          1           0        2.329066    3.746287   -1.250557
     20          1           0        1.252666    4.056410    0.122213
     21          6           0       -4.541132   -0.144023   -1.163704
     22          6           0       -3.776658   -1.314170   -1.217162
     23          6           0       -2.627271   -1.447826   -0.432566
     24          6           0       -2.269924   -0.386819    0.398010
     25          6           0       -3.010834    0.791594    0.473410
     26          6           0       -4.156459    0.903277   -0.320075
     27          1           0       -5.432543   -0.048731   -1.776649
     28          1           0       -4.073003   -2.129141   -1.871414
     29          1           0       -2.017126   -2.342625   -0.454418
     30          1           0       -2.690167    1.586888    1.135300
     31          1           0       -4.748241    1.813190   -0.276511
     32          7           0       -1.055110   -0.516685    1.233333
     33          8           0       -0.761609    0.432510    1.956883
     34          8           0       -0.419443   -1.565207    1.148690
 ---------------------------------------------------------------------

 SCF Done:  E(RHF) =  -669.536888770     A.U. after   15 cycles
 E2 =    -0.2091832125D+01 EUMP2 =    -0.67162872089432D+03

 The electronic state is 1-A.
 Alpha  occ. eigenvalues --  -20.61121 -20.61116 -15.86122 -11.31378 -11.27932
 Alpha  occ. eigenvalues --  -11.27925 -11.27657 -11.26922 -11.26911 -11.20670
 Alpha  occ. eigenvalues --  -11.20443 -11.20391 -11.20340 -11.20184 -11.20173
 Alpha  occ. eigenvalues --   -1.60162  -1.39720  -1.19538  -1.08955  -1.07390
 Alpha  occ. eigenvalues --   -1.04922  -1.02574  -0.95807  -0.95059  -0.86326
 Alpha  occ. eigenvalues --   -0.86079  -0.82643  -0.78624  -0.77705  -0.77185
 Alpha  occ. eigenvalues --   -0.72342  -0.71471  -0.70645  -0.65194  -0.64925
 Alpha  occ. eigenvalues --   -0.64003  -0.62269  -0.59968  -0.58426  -0.56662
 Alpha  occ. eigenvalues --   -0.55431  -0.54355  -0.53259  -0.53013  -0.51784
 Alpha  occ. eigenvalues --   -0.51488  -0.49141  -0.49111  -0.48978  -0.46967
 Alpha  occ. eigenvalues --   -0.45763  -0.45020  -0.44778  -0.44490  -0.42811
 Alpha  occ. eigenvalues --   -0.37511  -0.36519
 Alpha virt. eigenvalues --    0.04768   0.11133   0.16251   0.21258   0.23819
 Alpha virt. eigenvalues --    0.25154   0.27204   0.27568   0.28169   0.28744
 Alpha virt. eigenvalues --    0.28890   0.30891   0.32136   0.32456   0.32622

 Mulliken charges:
               1
     1  C   -0.304276
     2  C   -0.297575
     3  C   -0.476382
     4  H    0.146020
     5  H    0.169260
     6  H    0.147008
     7  H    0.149925
     8  H    0.161042
     9  H    0.153098
    10  H    0.155501
    11  C   -0.295780
    12  C   -0.312109
    13  C   -0.473566
    14  H    0.144013
    15  H    0.143851
    16  H    0.148725
    17  H    0.176763
    18  H    0.148477
    19  H    0.151419
    20  H    0.157693
    21  C   -0.170303
    22  C   -0.218583
    23  C   -0.170731
    24  C    0.158171
    25  C   -0.170491
    26  C   -0.218555
    27  H    0.226415
    28  H    0.224167
    29  H    0.275877
    30  H    0.276377
    31  H    0.224340
    32  N    0.488249
    33  O   -0.458521
    34  O   -0.459520
 Sum of Mulliken charges =  -0.00000

 Dipole moment (field-independent basis, Debye):
    X=             -4.5803    Y=              0.3215    Z=             -2.7243  Tot=              5.3389
 Quadrupole moment (field-independent basis, Debye-Ang):
   XX=            -75.9559   YY=            -92.1688   ZZ=            -97.3899
   XY=              0.4851   XZ=              5.2189   YZ=              3.8362

 Normal termination of Gaussian 16 at Wed May  5 23:29:01 2021.
