 Gaussian 16, Revision A.03,
 Gaussian 16:  EM64L-G16RevA.03 25-Dec-2016

 -------------
 #p 6-31g* mp2
 -------------

 ------------------------------------------------------
 Input file generated by CHIRIPA (05-May-2021 14:57:21)
 ------------------------------------------------------
 Symbolic Z-matrix:
 Charge =  0 Multiplicity = 1

                         Standard orientation:
 ---------------------------------------------------------------------
 Center     Atomic      Atomic             Coordinates (Angstroms)
 Number     Number       Type             X           Y           Z
 ---------------------------------------------------------------------
      1          6           0       -4.240522   -2.236730    0.221493
      2          6           0       -2.934926   -1.770232    0.406750
      3          6           0       -2.641070   -0.410103    0.271680
      4          6           0       -3.681739    0.459544   -0.050831
      5          6           0       -4.992611    0.025390   -0.241658
      6          6           0       -5.263395   -1.339012   -0.101550
      7          1           0       -4.459835   -3.294971    0.328375
      8          1           0       -2.138557   -2.465120    0.657690
      9          1           0       -1.639211   -0.021929    0.409585
     10          1           0       -5.765464    0.742231   -0.491169
     11          1           0       -6.278269   -1.698467   -0.246002
     12          7           0       -3.382860    1.901714   -0.196490
     13          8           0       -4.317427    2.647491   -0.481161
     14          8           0       -2.219690    2.259002   -0.023229
     15          6           0        5.685614    1.372996   -0.016127
     16          6           0        4.505595    1.729592    0.644870
     17          6           0        3.416253    0.853826    0.675100
     18          6           0        3.542033   -0.376041    0.030977
     19          6           0        4.704355   -0.760151   -0.635924
     20          6           0        5.781059    0.131452   -0.653291
     21          1           0        6.526932    2.059463   -0.034614
     22          1           0        4.428633    2.693134    1.140560
     23          1           0        2.490933    1.104458    1.179469
     24          1           0        4.751170   -1.727590   -1.120987
     25          1           0        6.696241   -0.148152   -1.167400
     26          7           0        2.395484   -1.311558    0.056171
     27          8           0        2.531545   -2.389220   -0.518955
     28          8           0        1.382469   -0.949441    0.650568
 ---------------------------------------------------------------------

 SCF Done:  E(RHF) =  -868.340815607     A.U. after   16 cycles
 E2 =    -0.2598046840D+01 EUMP2 =    -0.87093886244673D+03

 The electronic state is 1-A.
 Alpha  occ. eigenvalues --  -20.61288 -20.61259 -20.60103 -20.60098 -15.86303
 Alpha  occ. eigenvalues --  -15.85146 -11.31344 -11.30263 -11.27901 -11.27844
 Alpha  occ. eigenvalues --  -11.27583 -11.26893 -11.26852 -11.26799 -11.26640
 Alpha  occ. eigenvalues --  -11.26554 -11.25887 -11.25635  -1.60334  -1.59182
 Alpha  occ. eigenvalues --   -1.39896  -1.38741  -1.19493  -1.18425  -1.08952
 Alpha  occ. eigenvalues --   -1.07882  -1.04846  -1.03761  -0.95839  -0.94747
 Alpha  occ. eigenvalues --   -0.86262  -0.85187  -0.82685  -0.81567  -0.77758
 Alpha  occ. eigenvalues --   -0.76629  -0.72552  -0.71625  -0.71376  -0.70603
 Alpha  occ. eigenvalues --   -0.70499  -0.69537  -0.65153  -0.64849  -0.64070
 Alpha  occ. eigenvalues --   -0.63749  -0.62193  -0.61077  -0.55373  -0.54324
 Alpha  occ. eigenvalues --   -0.53195  -0.52935  -0.52153  -0.51826  -0.49305
 Alpha  occ. eigenvalues --   -0.49271  -0.48133  -0.48110  -0.45366  -0.44200
 Alpha  occ. eigenvalues --   -0.37463  -0.36442  -0.36432  -0.35365
 Alpha virt. eigenvalues --    0.04737   0.05851   0.11225   0.12273   0.16276
 Alpha virt. eigenvalues --    0.17386   0.21341   0.22470   0.27309   0.27902
 Alpha virt. eigenvalues --    0.28599   0.29318   0.30970   0.31979   0.32409

 Mulliken charges:
               1
     1  C   -0.171473
     2  C   -0.222077
     3  C   -0.175758
     4  C    0.157167
     5  C   -0.172421
     6  C   -0.219492
     7  H    0.223481
     8  H    0.235713
     9  H    0.289609
    10  H    0.271852
    11  H    0.219663
    12  N    0.488126
    13  O   -0.464124
    14  O   -0.462707
    15  C   -0.169773
    16  C   -0.218579
    17  C   -0.169171
    18  C    0.157194
    19  C   -0.170626
    20  C   -0.218793
    21  H    0.226877
    22  H    0.226588
    23  H    0.278890
    24  H    0.274844
    25  H    0.223837
    26  N    0.492153
    27  O   -0.459849
    28  O   -0.471150
 Sum of Mulliken charges =  -0.00000

 Dipole moment (field-independent basis, Debye):
    X=              3.4425    Y=             -1.8276    Z=              0.4700  Tot=              3.9258
 Quadrupole moment (field-independent basis, Debye-Ang):
   XX=            -63.7136   YY=           -110.6310   ZZ=           -104.7038
   XY=             26.3676   XZ=             -2.6622   YZ=              2.5478

 Normal termination of Gaussian 16 at Thu May  6 09:39:25 2021.
