 Gaussian 16, Revision A.03,
 Gaussian 16:  EM64L-G16RevA.03 25-Dec-2016

 -------------
 #p 6-31g* mp2
 -------------

 ------------------------------------------------------
 Input file generated by CHIRIPA (05-May-2021 14:51:11)
 ------------------------------------------------------
 Symbolic Z-matrix:
 Charge =  0 Multiplicity = 1

                         Standard orientation:
 ---------------------------------------------------------------------
 Center     Atomic      Atomic             Coordinates (Angstroms)
 Number     Number       Type             X           Y           Z
 ---------------------------------------------------------------------
      1          6           0       -4.310057    0.040833    0.293083
      2          6           0       -5.224725   -0.448535   -0.830254
      3          6           0       -6.688089   -0.063356   -0.611175
      4          1           0       -4.660352   -0.372453    1.248819
      5          1           0       -4.394254    1.133325    0.375351
      6          1           0       -5.137781   -1.539630   -0.911294
      7          1           0       -4.872097   -0.034190   -1.783453
      8          1           0       -6.795368    1.024568   -0.551894
      9          1           0       -7.062561   -0.489426    0.325220
     10          1           0       -7.324219   -0.423095   -1.425906
     11          6           0       -2.843971   -0.336524    0.088335
     12          6           0       -1.929302    0.152845    1.211672
     13          6           0       -0.465938   -0.232335    0.992593
     14          1           0       -2.759773   -1.429015    0.006067
     15          1           0       -2.493675    0.076763   -0.867401
     16          1           0       -2.281930   -0.261500    2.164871
     17          1           0       -2.016246    1.243940    1.292712
     18          1           0       -0.091466    0.193736    0.056198
     19          1           0       -0.358660   -1.320258    0.933312
     20          1           0        0.170191    0.127404    1.807324
     21          6           0        3.850160   -0.475610   -0.537303
     22          6           0        3.794033   -1.728976    0.336714
     23          6           0        4.343979   -2.967981   -0.370551
     24          1           0        3.282638   -0.654592   -1.460790
     25          1           0        4.890795   -0.294500   -0.840076
     26          1           0        2.754005   -1.906881    0.638887
     27          1           0        4.361594   -1.546924    1.258313
     28          1           0        5.389380   -2.815437   -0.657725
     29          1           0        3.772657   -3.177440   -1.280671
     30          1           0        4.294321   -3.852390    0.272268
     31          6           0        3.303867    0.771300    0.155885
     32          6           0        3.359994    2.024667   -0.718132
     33          6           0        2.810048    3.263671   -0.010867
     34          1           0        2.263232    0.590191    0.458658
     35          1           0        3.871389    0.950282    1.079373
     36          1           0        2.792433    1.842614   -1.639731
     37          1           0        4.400021    2.202571   -1.020305
     38          1           0        3.381370    3.473130    0.899253
     39          1           0        1.764648    3.111127    0.276308
     40          1           0        2.859706    4.148080   -0.653685
 ---------------------------------------------------------------------

 SCF Done:  E(RHF) =  -470.732795659     A.U. after   11 cycles
 E2 =    -0.1583288728D+01 EUMP2 =    -0.47231608438645D+03

 The electronic state is 1-A.
 Alpha  occ. eigenvalues --  -11.21691 -11.21642 -11.21523 -11.21505 -11.21470
 Alpha  occ. eigenvalues --  -11.21406 -11.21277 -11.21205 -11.21156 -11.21102
 Alpha  occ. eigenvalues --  -11.21028 -11.21006  -1.08500  -1.08322  -1.03609
 Alpha  occ. eigenvalues --   -1.03448  -0.96076  -0.95888  -0.87103  -0.86905
 Alpha  occ. eigenvalues --   -0.79700  -0.79504  -0.78324  -0.78106  -0.65153
 Alpha  occ. eigenvalues --   -0.64950  -0.61055  -0.60808  -0.59440  -0.59259
 Alpha  occ. eigenvalues --   -0.57667  -0.57508  -0.55419  -0.55139  -0.52822
 Alpha  occ. eigenvalues --   -0.52591  -0.52487  -0.52298  -0.50094  -0.49768
 Alpha  occ. eigenvalues --   -0.47997  -0.47827  -0.46778  -0.46477  -0.45931
 Alpha  occ. eigenvalues --   -0.45775  -0.45667  -0.45462  -0.43785  -0.43677
 Alpha virt. eigenvalues --    0.21233   0.22959   0.23937   0.24555   0.25739
 Alpha virt. eigenvalues --    0.26556   0.27138   0.27483   0.27985   0.29580
 Alpha virt. eigenvalues --    0.30216   0.31124   0.31736   0.32042   0.32156

 Mulliken charges:
               1
     1  C   -0.298390
     2  C   -0.299690
     3  C   -0.475751
     4  H    0.149844
     5  H    0.149718
     6  H    0.151991
     7  H    0.151989
     8  H    0.155281
     9  H    0.155259
    10  H    0.160396
    11  C   -0.298807
    12  C   -0.299968
    13  C   -0.479984
    14  H    0.149651
    15  H    0.149753
    16  H    0.152496
    17  H    0.152370
    18  H    0.156253
    19  H    0.156098
    20  H    0.162936
    21  C   -0.297083
    22  C   -0.301706
    23  C   -0.475601
    24  H    0.148759
    25  H    0.148862
    26  H    0.154396
    27  H    0.151445
    28  H    0.154988
    29  H    0.154954
    30  H    0.159786
    31  C   -0.310557
    32  C   -0.298983
    33  C   -0.475962
    34  H    0.165010
    35  H    0.148160
    36  H    0.150718
    37  H    0.151578
    38  H    0.155095
    39  H    0.154867
    40  H    0.159831
 Sum of Mulliken charges =  -0.00000

 Dipole moment (field-independent basis, Debye):
    X=             -0.0857    Y=             -0.0150    Z=              0.0320  Tot=              0.0927
 Quadrupole moment (field-independent basis, Debye-Ang):
   XX=            -85.4791   YY=            -85.0943   ZZ=            -84.5425
   XY=              0.8949   XZ=              0.4595   YZ=             -0.7451

 Normal termination of Gaussian 16 at Wed May  5 15:13:37 2021.
