 Gaussian 16, Revision A.03,
 Gaussian 16:  EM64L-G16RevA.03 25-Dec-2016

 -------------
 #p 6-31g* mp2
 -------------

 ------------------------------------------------------
 Input file generated by CHIRIPA (05-May-2021 14:53:14)
 ------------------------------------------------------
 Symbolic Z-matrix:
 Charge =  0 Multiplicity = 1

                         Standard orientation:
 ---------------------------------------------------------------------
 Center     Atomic      Atomic             Coordinates (Angstroms)
 Number     Number       Type             X           Y           Z
 ---------------------------------------------------------------------
      1          6           0       -3.822676   -0.596179   -0.255584
      2          6           0       -2.513745    0.058782    0.186810
      3          6           0       -1.284505   -0.778896   -0.166824
      4          1           0       -3.905677   -1.587050    0.211566
      5          1           0       -3.792063   -0.763952   -1.341084
      6          1           0       -2.547380    0.226532    1.270943
      7          1           0       -2.433941    1.048288   -0.281297
      8          1           0       -1.223207   -0.935401   -1.248651
      9          1           0       -1.337290   -1.761826    0.312408
     10          1           0       -0.359815   -0.292080    0.158474
     11          6           0       -5.060525    0.229274    0.090948
     12          6           0       -6.369456   -0.425687   -0.351446
     13          6           0       -7.598696    0.411991    0.002187
     14          1           0       -5.091138    0.397047    1.176448
     15          1           0       -4.977524    1.220145   -0.376203
     16          1           0       -6.449259   -1.415194    0.116661
     17          1           0       -6.335821   -0.593437   -1.435579
     18          1           0       -7.545911    1.394921   -0.477045
     19          1           0       -7.659994    0.568496    1.084014
     20          1           0       -8.523386   -0.074826   -0.323111
     21          6           0        4.154344   -2.284507    0.007386
     22          6           0        3.015253   -1.894823    0.719524
     23          6           0        2.626663   -0.552412    0.757965
     24          6           0        3.403840    0.378036    0.069815
     25          6           0        4.543929    0.020994   -0.648524
     26          6           0        4.913708   -1.327042   -0.673165
     27          1           0        4.448904   -3.329510   -0.017115
     28          1           0        2.423617   -2.636229    1.248983
     29          1           0        1.749392   -0.223192    1.301498
     30          1           0        5.113621    0.782966   -1.166471
     31          1           0        5.798819   -1.626790   -1.227036
     32          7           0        3.002415    1.802165    0.103206
     33          8           0        3.704062    2.602557   -0.511366
     34          8           0        1.993730    2.091038    0.743318
 ---------------------------------------------------------------------

 SCF Done:  E(RHF) =  -669.535468675     A.U. after   15 cycles
 E2 =    -0.2091318876D+01 EUMP2 =    -0.67162678755017D+03

 The electronic state is 1-A.
 Alpha  occ. eigenvalues --  -20.60804 -20.60798 -15.85848 -11.31191 -11.27759
 Alpha  occ. eigenvalues --  -11.27744 -11.27498 -11.26775 -11.26761 -11.21513
 Alpha  occ. eigenvalues --  -11.21463 -11.21307 -11.21238 -11.21140 -11.20971
 Alpha  occ. eigenvalues --   -1.59872  -1.39427  -1.19365  -1.08763  -1.08333
 Alpha  occ. eigenvalues --   -1.04766  -1.03454  -0.95934  -0.95599  -0.86959
 Alpha  occ. eigenvalues --   -0.86163  -0.82432  -0.79515  -0.78135  -0.77486
 Alpha  occ. eigenvalues --   -0.72067  -0.71191  -0.70486  -0.65018  -0.64962
 Alpha  occ. eigenvalues --   -0.64781  -0.62158  -0.60851  -0.59278  -0.57524
 Alpha  occ. eigenvalues --   -0.55277  -0.55218  -0.53161  -0.52949  -0.52493
 Alpha  occ. eigenvalues --   -0.52308  -0.49873  -0.48826  -0.48824  -0.47828
 Alpha  occ. eigenvalues --   -0.46536  -0.45683  -0.45602  -0.44836  -0.43706
 Alpha  occ. eigenvalues --   -0.37342  -0.36343
 Alpha virt. eigenvalues --    0.05015   0.11214   0.16541   0.21029   0.22977
 Alpha virt. eigenvalues --    0.24179   0.26658   0.26793   0.27508   0.27925
 Alpha virt. eigenvalues --    0.29046   0.30061   0.31519   0.31602   0.32067

 Mulliken charges:
               1
     1  C   -0.298638
     2  C   -0.298228
     3  C   -0.482090
     4  H    0.147131
     5  H    0.149256
     6  H    0.152143
     7  H    0.158992
     8  H    0.156780
     9  H    0.147987
    10  H    0.163689
    11  C   -0.298433
    12  C   -0.299519
    13  C   -0.475711
    14  H    0.149762
    15  H    0.151644
    16  H    0.150804
    17  H    0.151719
    18  H    0.156008
    19  H    0.155230
    20  H    0.159704
    21  C   -0.170819
    22  C   -0.218786
    23  C   -0.170227
    24  C    0.158119
    25  C   -0.171082
    26  C   -0.218320
    27  H    0.225640
    28  H    0.224103
    29  H    0.277324
    30  H    0.275528
    31  H    0.223433
    32  N    0.488621
    33  O   -0.459896
    34  O   -0.461866
 Sum of Mulliken charges =  -0.00000

 Dipole moment (field-independent basis, Debye):
    X=              1.4367    Y=             -4.9514    Z=             -0.1429  Tot=              5.1576
 Quadrupole moment (field-independent basis, Debye-Ang):
   XX=            -83.2510   YY=            -98.9596   ZZ=            -92.9500
   XY=            -15.5071   XZ=             -2.8290   YZ=             -1.7336

 Normal termination of Gaussian 16 at Thu May  6 20:21:58 2021.
