 Gaussian 16, Revision A.03,
 Gaussian 16:  EM64L-G16RevA.03 25-Dec-2016

 -------------
 #p 6-31g* mp2
 -------------

 ------------------------------------------------------
 Input file generated by CHIRIPA (05-May-2021 14:55:24)
 ------------------------------------------------------
 Symbolic Z-matrix:
 Charge =  0 Multiplicity = 1

                         Standard orientation:
 ---------------------------------------------------------------------
 Center     Atomic      Atomic             Coordinates (Angstroms)
 Number     Number       Type             X           Y           Z
 ---------------------------------------------------------------------
      1          6           0        1.583166    0.549146    1.342122
      2          6           0        1.981749   -0.787200    1.233344
      3          6           0        3.180969   -1.120879    0.596887
      4          6           0        3.960709   -0.088243    0.078273
      5          6           0        3.590773    1.252606    0.170802
      6          6           0        2.387532    1.562996    0.811440
      7          1           0        0.650021    0.799310    1.838161
      8          1           0        1.359073   -1.576652    1.644544
      9          1           0        3.513524   -2.147126    0.498689
     10          1           0        4.232607    2.017631   -0.248964
     11          1           0        2.080501    2.601690    0.894452
     12          7           0        5.232398   -0.429167   -0.597728
     13          8           0        5.901519    0.499109   -1.046302
     14          8           0        5.535947   -1.618203   -0.666204
     15          6           0       -5.522102    0.135691   -0.477547
     16          6           0       -6.537259   -0.657380    0.346151
     17          6           0       -7.974559   -0.457695   -0.135604
     18          1           0       -5.779354    1.202947   -0.435905
     19          1           0       -5.601453   -0.164056   -1.531705
     20          1           0       -6.455063   -0.357225    1.398656
     21          1           0       -6.277449   -1.722852    0.302700
     22          1           0       -8.079043   -0.775195   -1.178138
     23          1           0       -8.257666    0.598191   -0.075956
     24          1           0       -8.683677   -1.033640    0.467139
     25          6           0       -4.080763   -0.053631   -0.008051
     26          6           0       -3.065606    0.739442   -0.831749
     27          6           0       -1.628306    0.539756   -0.349994
     28          1           0       -4.001412    0.246116    1.046107
     29          1           0       -3.823511   -1.120886   -0.049693
     30          1           0       -3.325416    1.804912   -0.788299
     31          1           0       -3.147802    0.439285   -1.884253
     32          1           0       -1.345199   -0.516130   -0.409642
     33          1           0       -1.523822    0.857256    0.692540
     34          1           0       -0.919187    1.115701   -0.952736
 ---------------------------------------------------------------------

 SCF Done:  E(RHF) =  -669.535207647     A.U. after   15 cycles
 E2 =    -0.2091444858D+01 EUMP2 =    -0.67162665250556D+03

 The electronic state is 1-A.
 Alpha  occ. eigenvalues --  -20.60714 -20.60709 -15.85769 -11.31113 -11.27701
 Alpha  occ. eigenvalues --  -11.27696 -11.27402 -11.26693 -11.26682 -11.22285
 Alpha  occ. eigenvalues --  -11.22050 -11.22024 -11.21988 -11.21876 -11.21441
 Alpha  occ. eigenvalues --   -1.59791  -1.39345  -1.19294  -1.09016  -1.08686
 Alpha  occ. eigenvalues --   -1.04698  -1.04130  -0.96604  -0.95520  -0.87621
 Alpha  occ. eigenvalues --   -0.86093  -0.82362  -0.80203  -0.78814  -0.77411
 Alpha  occ. eigenvalues --   -0.71987  -0.71115  -0.70408  -0.65644  -0.64945
 Alpha  occ. eigenvalues --   -0.64701  -0.62049  -0.61532  -0.59958  -0.58202
 Alpha  occ. eigenvalues --   -0.55980  -0.55159  -0.53411  -0.53045  -0.52827
 Alpha  occ. eigenvalues --   -0.52789  -0.50536  -0.48746  -0.48743  -0.48508
 Alpha  occ. eigenvalues --   -0.47224  -0.46360  -0.46271  -0.44756  -0.44372
 Alpha  occ. eigenvalues --   -0.37217  -0.36307
 Alpha virt. eigenvalues --    0.05118   0.11308   0.16578   0.20545   0.22427
 Alpha virt. eigenvalues --    0.23868   0.25616   0.26362   0.27100   0.27336
 Alpha virt. eigenvalues --    0.28713   0.30092   0.31085   0.31483   0.32239

 Mulliken charges:
               1
     1  C   -0.164274
     2  C   -0.220740
     3  C   -0.170936
     4  C    0.158122
     5  C   -0.170881
     6  C   -0.221520
     7  H    0.228208
     8  H    0.223264
     9  H    0.275266
    10  H    0.275289
    11  H    0.223106
    12  N    0.488117
    13  O   -0.460754
    14  O   -0.460745
    15  C   -0.298615
    16  C   -0.299944
    17  C   -0.476000
    18  H    0.150290
    19  H    0.151192
    20  H    0.151481
    21  H    0.152290
    22  H    0.156140
    23  H    0.155619
    24  H    0.161277
    25  C   -0.298538
    26  C   -0.300954
    27  C   -0.475733
    28  H    0.147284
    29  H    0.149748
    30  H    0.152651
    31  H    0.155654
    32  H    0.156725
    33  H    0.142895
    34  H    0.165016
 Sum of Mulliken charges =  -0.00000

 Dipole moment (field-independent basis, Debye):
    X=             -4.6267    Y=              1.1956    Z=              2.3199  Tot=              5.3121
 Quadrupole moment (field-independent basis, Debye-Ang):
   XX=           -131.7430   YY=            -89.6794   ZZ=            -94.6568
   XY=              6.1362   XZ=              8.8515   YZ=             -0.5993

 Normal termination of Gaussian 16 at Thu May  6 20:55:54 2021.
