 Gaussian 16, Revision A.03,
 Gaussian 16:  EM64L-G16RevA.03 25-Dec-2016

 -------------
 #p 6-31g* mp2
 -------------

 ------------------------------------------------------
 Input file generated by CHIRIPA (05-May-2021 14:57:21)
 ------------------------------------------------------
 Symbolic Z-matrix:
 Charge =  0 Multiplicity = 1

                         Standard orientation:
 ---------------------------------------------------------------------
 Center     Atomic      Atomic             Coordinates (Angstroms)
 Number     Number       Type             X           Y           Z
 ---------------------------------------------------------------------
      1          6           0       -0.806721   -1.646460    1.026535
      2          6           0       -1.075691   -1.586373   -0.344802
      3          6           0       -2.190802   -0.889604   -0.819764
      4          6           0       -3.019515   -0.261684    0.108805
      5          6           0       -2.778217   -0.303381    1.481149
      6          6           0       -1.657343   -1.005902    1.933535
      7          1           0        0.061762   -2.189961    1.386728
      8          1           0       -0.416824   -2.082888   -1.051493
      9          1           0       -2.422575   -0.827054   -1.876072
     10          1           0       -3.453314    0.201592    2.161344
     11          1           0       -1.450925   -1.050886    2.999093
     12          7           0       -4.203083    0.478999   -0.382066
     13          8           0       -4.917726    1.023736    0.456496
     14          8           0       -4.393711    0.500785   -1.596077
     15          6           0        2.116936    2.790172    0.083273
     16          6           0        3.116245    2.256944    0.903986
     17          6           0        3.516225    0.924917    0.761615
     18          6           0        2.892848    0.151114   -0.216098
     19          6           0        1.894275    0.653445   -1.049047
     20          6           0        1.510210    1.988135   -0.888911
     21          1           0        1.812405    3.825957    0.200770
     22          1           0        3.589183    2.877477    1.659838
     23          1           0        4.287264    0.486573    1.383524
     24          1           0        1.441227    0.010221   -1.793647
     25          1           0        0.733863    2.399571   -1.527698
     26          7           0        3.307863   -1.260453   -0.376224
     27          8           0        2.743134   -1.921368   -1.245079
     28          8           0        4.190024   -1.679196    0.370157
 ---------------------------------------------------------------------

 SCF Done:  E(RHF) =  -868.339515238     A.U. after   16 cycles
 E2 =    -0.2600765944D+01 EUMP2 =    -0.87094028118195D+03

 The electronic state is 1-A.
 Alpha  occ. eigenvalues --  -20.61733 -20.61693 -20.60935 -20.60929 -15.86737
 Alpha  occ. eigenvalues --  -15.85983 -11.31806 -11.31261 -11.28360 -11.28347
 Alpha  occ. eigenvalues --  -11.27995 -11.27808 -11.27786 -11.27424 -11.27278
 Alpha  occ. eigenvalues --  -11.27234 -11.26782 -11.26653  -1.60786  -1.60015
 Alpha  occ. eigenvalues --   -1.40348  -1.39570  -1.19954  -1.19400  -1.09394
 Alpha  occ. eigenvalues --   -1.08790  -1.05308  -1.04782  -0.96280  -0.95649
 Alpha  occ. eigenvalues --   -0.86725  -0.86158  -0.83120  -0.82485  -0.78221
 Alpha  occ. eigenvalues --   -0.77556  -0.72957  -0.72204  -0.72113  -0.71344
 Alpha  occ. eigenvalues --   -0.71053  -0.70453  -0.65604  -0.65310  -0.65032
 Alpha  occ. eigenvalues --   -0.64718  -0.62683  -0.62095  -0.55801  -0.55213
 Alpha  occ. eigenvalues --   -0.53746  -0.53410  -0.53025  -0.52822  -0.49734
 Alpha  occ. eigenvalues --   -0.49679  -0.48964  -0.48944  -0.45805  -0.44996
 Alpha  occ. eigenvalues --   -0.37988  -0.37387  -0.36924  -0.36225
 Alpha virt. eigenvalues --    0.04244   0.04953   0.10465   0.11543   0.15795
 Alpha virt. eigenvalues --    0.16447   0.20550   0.21718   0.26044   0.27255
 Alpha virt. eigenvalues --    0.28273   0.28490   0.30294   0.31042   0.32121

 Mulliken charges:
               1
     1  C   -0.173048
     2  C   -0.227684
     3  C   -0.176933
     4  C    0.158273
     5  C   -0.172329
     6  C   -0.218277
     7  H    0.232339
     8  H    0.239835
     9  H    0.273774
    10  H    0.274509
    11  H    0.223518
    12  N    0.487687
    13  O   -0.460838
    14  O   -0.461753
    15  C   -0.169667
    16  C   -0.218946
    17  C   -0.172084
    18  C    0.154714
    19  C   -0.165741
    20  C   -0.217874
    21  H    0.229289
    22  H    0.225110
    23  H    0.275427
    24  H    0.270304
    25  H    0.228289
    26  N    0.487154
    27  O   -0.467908
    28  O   -0.457139
 Sum of Mulliken charges =  -0.00000

 Dipole moment (field-independent basis, Debye):
    X=              2.8617    Y=              2.4488    Z=              2.3677  Tot=              4.4488
 Quadrupole moment (field-independent basis, Debye-Ang):
   XX=           -137.5697   YY=           -102.3207   ZZ=            -97.9575
   XY=             21.4940   XZ=             -1.1957   YZ=             -0.0798

 Normal termination of Gaussian 16 at Thu May  6 14:31:41 2021.
