 Gaussian 16, Revision A.03,
 Gaussian 16:  EM64L-G16RevA.03 25-Dec-2016

 -------------
 #p 6-31g* mp2
 -------------

 ------------------------------------------------------
 Input file generated by CHIRIPA (05-May-2021 14:53:17)
 ------------------------------------------------------
 Symbolic Z-matrix:
 Charge =  0 Multiplicity = 1

                         Standard orientation:
 ---------------------------------------------------------------------
 Center     Atomic      Atomic             Coordinates (Angstroms)
 Number     Number       Type             X           Y           Z
 ---------------------------------------------------------------------
      1          6           0        4.760709   -0.328082   -0.229362
      2          6           0        5.139498   -1.515167    0.656828
      3          6           0        6.216709   -2.400856    0.029958
      4          1           0        4.410541   -0.701384   -1.201458
      5          1           0        5.659020    0.272015   -0.430151
      6          1           0        4.240480   -2.112078    0.857025
      7          1           0        5.488625   -1.139002    1.626996
      8          1           0        7.129554   -1.825224   -0.154331
      9          1           0        5.874317   -2.803829   -0.928677
     10          1           0        6.472324   -3.243273    0.680231
     11          6           0        3.684940    0.566664    0.383727
     12          6           0        3.306150    1.753749   -0.502462
     13          6           0        2.228940    2.639438    0.124407
     14          1           0        2.786629   -0.033433    0.584517
     15          1           0        4.035108    0.939966    1.355824
     16          1           0        2.957024    1.377584   -1.472631
     17          1           0        4.205169    2.350660   -0.702659
     18          1           0        2.571332    3.042411    1.083043
     19          1           0        1.316095    2.063806    0.308696
     20          1           0        1.973325    3.481855   -0.525866
     21          6           0       -4.961640   -1.982423    0.120376
     22          6           0       -3.734481   -2.188585   -0.518451
     23          6           0       -2.805693   -1.149030   -0.624394
     24          6           0       -3.138351    0.089447   -0.077767
     25          6           0       -4.352673    0.326059    0.564674
     26          6           0       -5.266281   -0.727970    0.658950
     27          1           0       -5.677249   -2.795596    0.198143
     28          1           0       -3.495198   -3.161760   -0.937642
     29          1           0       -1.848320   -1.281099   -1.113691
     30          1           0       -4.562807    1.307243    0.972768
     31          1           0       -6.218539   -0.564975    1.155622
     32          7           0       -2.163119    1.197640   -0.183747
     33          8           0       -2.480166    2.279389    0.306087
     34          8           0       -1.100153    0.963508   -0.754642
 ---------------------------------------------------------------------

 SCF Done:  E(RHF) =  -669.536211401     A.U. after   15 cycles
 E2 =    -0.2090934348D+01 EUMP2 =    -0.67162714574889D+03

 The electronic state is 1-A.
 Alpha  occ. eigenvalues --  -20.60992 -20.60987 -15.86018 -11.31329 -11.27892
 Alpha  occ. eigenvalues --  -11.27885 -11.27624 -11.26893 -11.26883 -11.21112
 Alpha  occ. eigenvalues --  -11.20706 -11.20698 -11.20454 -11.20353 -11.19322
 Alpha  occ. eigenvalues --   -1.60048  -1.39605  -1.19495  -1.08901  -1.07600
 Alpha  occ. eigenvalues --   -1.04889  -1.02598  -0.95745  -0.95027  -0.86290
 Alpha  occ. eigenvalues --   -0.86043  -0.82578  -0.78720  -0.77634  -0.77360
 Alpha  occ. eigenvalues --   -0.72236  -0.71362  -0.70603  -0.65150  -0.64892
 Alpha  occ. eigenvalues --   -0.64236  -0.62237  -0.59985  -0.58492  -0.56634
 Alpha  occ. eigenvalues --   -0.55396  -0.54307  -0.53221  -0.52980  -0.51713
 Alpha  occ. eigenvalues --   -0.51464  -0.49256  -0.48990  -0.48703  -0.47003
 Alpha  occ. eigenvalues --   -0.45767  -0.45063  -0.44889  -0.44710  -0.42867
 Alpha  occ. eigenvalues --   -0.37472  -0.36489
 Alpha virt. eigenvalues --    0.04872   0.11166   0.16366   0.21301   0.23620
 Alpha virt. eigenvalues --    0.25326   0.27220   0.27430   0.28169   0.28298
 Alpha virt. eigenvalues --    0.29078   0.30866   0.32288   0.32452   0.32546

 Mulliken charges:
               1
     1  C   -0.297488
     2  C   -0.298659
     3  C   -0.475101
     4  H    0.148230
     5  H    0.148157
     6  H    0.149707
     7  H    0.151222
     8  H    0.154912
     9  H    0.153842
    10  H    0.157979
    11  C   -0.297773
    12  C   -0.298444
    13  C   -0.481000
    14  H    0.150225
    15  H    0.146920
    16  H    0.152773
    17  H    0.145703
    18  H    0.145429
    19  H    0.179058
    20  H    0.159337
    21  C   -0.170522
    22  C   -0.218522
    23  C   -0.170817
    24  C    0.158089
    25  C   -0.170647
    26  C   -0.218567
    27  H    0.226139
    28  H    0.223917
    29  H    0.275512
    30  H    0.276040
    31  H    0.223976
    32  N    0.488530
    33  O   -0.457945
    34  O   -0.460214
 Sum of Mulliken charges =  -0.00000

 Dipole moment (field-independent basis, Debye):
    X=             -3.8190    Y=             -3.8864    Z=              0.3485  Tot=              5.4599
 Quadrupole moment (field-independent basis, Debye-Ang):
   XX=            -72.7167   YY=            -94.5234   ZZ=            -94.3426
   XY=             10.9031   XZ=             -2.3080   YZ=              2.0551

 Normal termination of Gaussian 16 at Thu May  6 17:15:57 2021.
