 Gaussian 16, Revision A.03,
 Gaussian 16:  EM64L-G16RevA.03 25-Dec-2016

 -------------
 #p 6-31g* mp2
 -------------

 ------------------------------------------------------
 Input file generated by CHIRIPA (05-May-2021 14:51:11)
 ------------------------------------------------------
 Symbolic Z-matrix:
 Charge =  0 Multiplicity = 1

                         Standard orientation:
 ---------------------------------------------------------------------
 Center     Atomic      Atomic             Coordinates (Angstroms)
 Number     Number       Type             X           Y           Z
 ---------------------------------------------------------------------
      1          6           0        3.113473   -0.417554    0.270259
      2          6           0        4.129110   -0.040843   -0.808886
      3          6           0        5.267050    0.827996   -0.272225
      4          1           0        2.699733    0.499519    0.711554
      5          1           0        3.630633   -0.948899    1.081193
      6          1           0        3.609951    0.488417   -1.618191
      7          1           0        4.540340   -0.958920   -1.247796
      8          1           0        5.810671    0.304183    0.520680
      9          1           0        4.874996    1.759744    0.148180
     10          1           0        5.981486    1.085570   -1.060322
     11          6           0        1.969857   -1.286063   -0.250856
     12          6           0        0.954220   -1.662774    0.828289
     13          6           0       -0.183720   -2.531613    0.291628
     14          1           0        1.452698   -0.754719   -1.061790
     15          1           0        2.383598   -2.203137   -0.692151
     16          1           0        0.542990   -0.744698    1.267199
     17          1           0        1.473379   -2.192035    1.637593
     18          1           0        0.208335   -3.463361   -0.128778
     19          1           0       -0.727340   -2.007801   -0.501277
     20          1           0       -0.898156   -2.789187    1.079725
     21          6           0       -1.788333    0.883462    0.112448
     22          6           0       -1.248784    2.311045    0.206677
     23          6           0        0.259793    2.357911    0.451206
     24          1           0       -1.548928    0.345810    1.040112
     25          1           0       -1.267936    0.355004   -0.698301
     26          1           0       -1.771021    2.837080    1.016104
     27          1           0       -1.489668    2.845420   -0.721243
     28          1           0        0.797387    1.857471   -0.360676
     29          1           0        0.514437    1.849085    1.386542
     30          1           0        0.624320    3.387905    0.515183
     31          6           0       -3.294997    0.820155   -0.131851
     32          6           0       -3.834546   -0.607428   -0.226080
     33          6           0       -5.343123   -0.654294   -0.470609
     34          1           0       -3.815395    1.348613    0.678898
     35          1           0       -3.534402    1.357808   -1.059514
     36          1           0       -3.593663   -1.141802    0.701840
     37          1           0       -3.312310   -1.133463   -1.035507
     38          1           0       -5.597767   -0.145468   -1.405945
     39          1           0       -5.880718   -0.153854    0.341273
     40          1           0       -5.707651   -1.684288   -0.534586
 ---------------------------------------------------------------------

 SCF Done:  E(RHF) =  -470.730628544     A.U. after   11 cycles
 E2 =    -0.1586993874D+01 EUMP2 =    -0.47231762241796D+03

 The electronic state is 1-A.
 Alpha  occ. eigenvalues --  -11.21686 -11.21607 -11.21530 -11.21445 -11.21419
 Alpha  occ. eigenvalues --  -11.21385 -11.21294 -11.21203 -11.21190 -11.21077
 Alpha  occ. eigenvalues --  -11.21007 -11.20901  -1.08544  -1.08283  -1.03605
 Alpha  occ. eigenvalues --   -1.03418  -0.96102  -0.95832  -0.87079  -0.86892
 Alpha  occ. eigenvalues --   -0.79705  -0.79481  -0.78378  -0.78115  -0.65162
 Alpha  occ. eigenvalues --   -0.64964  -0.61037  -0.60847  -0.59396  -0.59246
 Alpha  occ. eigenvalues --   -0.57731  -0.57486  -0.55399  -0.55131  -0.52750
 Alpha  occ. eigenvalues --   -0.52623  -0.52411  -0.52256  -0.50001  -0.49840
 Alpha  occ. eigenvalues --   -0.48098  -0.47826  -0.46924  -0.46500  -0.46109
 Alpha  occ. eigenvalues --   -0.45896  -0.45294  -0.45056  -0.43841  -0.43666
 Alpha virt. eigenvalues --    0.20414   0.22375   0.23691   0.23996   0.24646
 Alpha virt. eigenvalues --    0.25830   0.26648   0.27518   0.29698   0.29992
 Alpha virt. eigenvalues --    0.30562   0.31041   0.31609   0.31841   0.32489

 Mulliken charges:
               1
     1  C   -0.304803
     2  C   -0.299527
     3  C   -0.475652
     4  H    0.157967
     5  H    0.148892
     6  H    0.150800
     7  H    0.151643
     8  H    0.154999
     9  H    0.155496
    10  H    0.159820
    11  C   -0.299033
    12  C   -0.306247
    13  C   -0.478361
    14  H    0.148179
    15  H    0.149543
    16  H    0.159322
    17  H    0.151027
    18  H    0.153885
    19  H    0.159996
    20  H    0.158828
    21  C   -0.303632
    22  C   -0.299769
    23  C   -0.481498
    24  H    0.154008
    25  H    0.151777
    26  H    0.152136
    27  H    0.152008
    28  H    0.159100
    29  H    0.156955
    30  H    0.160989
    31  C   -0.297853
    32  C   -0.300873
    33  C   -0.475844
    34  H    0.149463
    35  H    0.149354
    36  H    0.153259
    37  H    0.152946
    38  H    0.155037
    39  H    0.155078
    40  H    0.160584
 Sum of Mulliken charges =  -0.00000

 Dipole moment (field-independent basis, Debye):
    X=             -0.0654    Y=              0.0574    Z=              0.0219  Tot=              0.0897
 Quadrupole moment (field-independent basis, Debye-Ang):
   XX=            -86.5921   YY=            -84.6661   ZZ=            -83.8074
   XY=             -1.1082   XZ=             -0.4284   YZ=             -0.3185

 Normal termination of Gaussian 16 at Wed May  5 19:50:55 2021.
