 Gaussian 16, Revision A.03,
 Gaussian 16:  EM64L-G16RevA.03 25-Dec-2016

 -------------
 #p 6-31g* mp2
 -------------

 ------------------------------------------------------
 Input file generated by CHIRIPA (05-May-2021 14:53:17)
 ------------------------------------------------------
 Symbolic Z-matrix:
 Charge =  0 Multiplicity = 1

                         Standard orientation:
 ---------------------------------------------------------------------
 Center     Atomic      Atomic             Coordinates (Angstroms)
 Number     Number       Type             X           Y           Z
 ---------------------------------------------------------------------
      1          6           0       -3.336725   -0.408697    0.424543
      2          6           0       -4.020721   -1.752280    0.169749
      3          6           0       -3.334656   -2.911486    0.893179
      4          1           0       -2.287403   -0.472309    0.105450
      5          1           0       -3.323326   -0.211104    1.505363
      6          1           0       -4.034059   -1.946630   -0.910374
      7          1           0       -5.068588   -1.685401    0.489308
      8          1           0       -3.334182   -2.744121    1.975117
      9          1           0       -2.293776   -3.006833    0.567481
     10          1           0       -3.839919   -3.862359    0.697195
     11          6           0       -4.011052    0.759905   -0.291964
     12          6           0       -3.327056    2.103488   -0.037170
     13          6           0       -4.013121    3.262694   -0.760599
     14          1           0       -4.024451    0.562313   -1.372784
     15          1           0       -5.060374    0.823518    0.027129
     16          1           0       -2.279189    2.036610   -0.356729
     17          1           0       -3.313718    2.297839    1.042953
     18          1           0       -5.054001    3.358042   -0.434902
     19          1           0       -4.013595    3.095329   -1.842537
     20          1           0       -3.507858    4.213567   -0.564616
     21          6           0        4.639448    1.551124    0.568993
     22          6           0        4.993320    0.389353   -0.124970
     23          6           0        4.021391   -0.552988   -0.474106
     24          6           0        2.699184   -0.300411   -0.111804
     25          6           0        2.315203    0.847487    0.579702
     26          6           0        3.303874    1.776085    0.918498
     27          1           0        5.400969    2.277818    0.836195
     28          1           0        6.029763    0.212013   -0.397702
     29          1           0        4.267632   -1.460866   -1.011267
     30          1           0        1.273783    0.996550    0.837852
     31          1           0        3.026147    2.677444    1.457448
     32          7           0        1.661385   -1.290750   -0.475945
     33          8           0        0.503477   -1.044829   -0.145170
     34          8           0        2.025514   -2.294149   -1.085239
 ---------------------------------------------------------------------

 SCF Done:  E(RHF) =  -669.536438292     A.U. after   15 cycles
 E2 =    -0.2091170054D+01 EUMP2 =    -0.67162760834577D+03

 The electronic state is 1-A.
 Alpha  occ. eigenvalues --  -20.61001 -20.60995 -15.86039 -11.31321 -11.27881
 Alpha  occ. eigenvalues --  -11.27875 -11.27614 -11.26882 -11.26871 -11.21108
 Alpha  occ. eigenvalues --  -11.20713 -11.20600 -11.20497 -11.20159 -11.19801
 Alpha  occ. eigenvalues --   -1.60061  -1.39619  -1.19487  -1.08898  -1.07541
 Alpha  occ. eigenvalues --   -1.04878  -1.02686  -0.95746  -0.95120  -0.86280
 Alpha  occ. eigenvalues --   -0.86141  -0.82584  -0.78803  -0.77656  -0.77273
 Alpha  occ. eigenvalues --   -0.72265  -0.71373  -0.70596  -0.65147  -0.64880
 Alpha  occ. eigenvalues --   -0.64157  -0.62224  -0.60075  -0.58545  -0.56728
 Alpha  occ. eigenvalues --   -0.55384  -0.54387  -0.53212  -0.52969  -0.51874
 Alpha  occ. eigenvalues --   -0.51537  -0.49084  -0.49026  -0.48973  -0.47104
 Alpha  occ. eigenvalues --   -0.45840  -0.45046  -0.44860  -0.44645  -0.42915
 Alpha  occ. eigenvalues --   -0.37465  -0.36478
 Alpha virt. eigenvalues --    0.04887   0.11177   0.16390   0.21146   0.23600
 Alpha virt. eigenvalues --    0.25174   0.26410   0.27424   0.27808   0.28805
 Alpha virt. eigenvalues --    0.29114   0.31084   0.32127   0.32358   0.32471

 Mulliken charges:
               1
     1  C   -0.311034
     2  C   -0.297238
     3  C   -0.480126
     4  H    0.178009
     5  H    0.142644
     6  H    0.151684
     7  H    0.145568
     8  H    0.149456
     9  H    0.173032
    10  H    0.154929
    11  C   -0.296952
    12  C   -0.298915
    13  C   -0.474875
    14  H    0.149529
    15  H    0.146099
    16  H    0.150626
    17  H    0.148321
    18  H    0.154679
    19  H    0.155467
    20  H    0.155806
    21  C   -0.170506
    22  C   -0.218614
    23  C   -0.170569
    24  C    0.157238
    25  C   -0.170908
    26  C   -0.218591
    27  H    0.226130
    28  H    0.223899
    29  H    0.275872
    30  H    0.276391
    31  H    0.224175
    32  N    0.497098
    33  O   -0.469629
    34  O   -0.458698
 Sum of Mulliken charges =  -0.00000

 Dipole moment (field-independent basis, Debye):
    X=              3.9972    Y=              3.3869    Z=              1.2111  Tot=              5.3773
 Quadrupole moment (field-independent basis, Debye-Ang):
   XX=            -73.7940   YY=            -96.9628   ZZ=            -94.5505
   XY=              6.5831   XZ=              1.0108   YZ=              1.4637

 Normal termination of Gaussian 16 at Thu May  6 04:21:11 2021.
