 Gaussian 16, Revision A.03,
 Gaussian 16:  EM64L-G16RevA.03 25-Dec-2016

 -------------
 #p 6-31g* mp2
 -------------

 ------------------------------------------------------
 Input file generated by CHIRIPA (05-May-2021 14:53:15)
 ------------------------------------------------------
 Symbolic Z-matrix:
 Charge =  0 Multiplicity = 1

                         Standard orientation:
 ---------------------------------------------------------------------
 Center     Atomic      Atomic             Coordinates (Angstroms)
 Number     Number       Type             X           Y           Z
 ---------------------------------------------------------------------
      1          6           0       -4.121104    0.327601   -0.170073
      2          6           0       -4.462733   -1.083015    0.311004
      3          6           0       -5.769772   -1.609627   -0.282395
      4          1           0       -4.944089    1.006717    0.091540
      5          1           0       -4.052969    0.327004   -1.266774
      6          1           0       -4.528841   -1.080058    1.406557
      7          1           0       -3.638753   -1.758815    0.048385
      8          1           0       -5.711508   -1.641358   -1.375189
      9          1           0       -6.606654   -0.958744   -0.009300
     10          1           0       -5.994739   -2.619405    0.074815
     11          6           0       -2.817193    0.867841    0.414465
     12          6           0       -2.475564    2.278457   -0.066612
     13          6           0       -1.168525    2.805069    0.526787
     14          1           0       -2.885328    0.868437    1.511166
     15          1           0       -1.994207    0.188725    0.152852
     16          1           0       -3.299544    2.954256    0.196007
     17          1           0       -2.409456    2.275499   -1.162166
     18          1           0       -0.331643    2.154186    0.253692
     19          1           0       -1.226788    2.836799    1.619581
     20          1           0       -0.943557    3.814847    0.169577
     21          6           0        1.513018   -2.686138   -0.007157
     22          6           0        0.855678   -1.555364   -0.502915
     23          6           0        1.509254   -0.320651   -0.556515
     24          6           0        2.826018   -0.252428   -0.104003
     25          6           0        3.507872   -1.361040    0.395340
     26          6           0        2.834687   -2.585545    0.439601
     27          1           0        0.997688   -3.641326    0.030853
     28          1           0       -0.170743   -1.630526   -0.850557
     29          1           0        1.024128    0.570643   -0.935544
     30          1           0        4.531107   -1.254929    0.734679
     31          1           0        3.347677   -3.462053    0.825113
     32          7           0        3.528310    1.049303   -0.155804
     33          8           0        4.688341    1.083077    0.248947
     34          8           0        2.905436    2.011176   -0.600174
 ---------------------------------------------------------------------

 SCF Done:  E(RHF) =  -669.535275498     A.U. after   15 cycles
 E2 =    -0.2092349833D+01 EUMP2 =    -0.67162762533048D+03

 The electronic state is 1-A.
 Alpha  occ. eigenvalues --  -20.60792 -20.60786 -15.85838 -11.31219 -11.27790
 Alpha  occ. eigenvalues --  -11.27786 -11.27531 -11.26813 -11.26802 -11.22180
 Alpha  occ. eigenvalues --  -11.21915 -11.21857 -11.21821 -11.21553 -11.21054
 Alpha  occ. eigenvalues --   -1.59861  -1.39414  -1.19395  -1.08883  -1.08784
 Alpha  occ. eigenvalues --   -1.04805  -1.03894  -0.96320  -0.95617  -0.87329
 Alpha  occ. eigenvalues --   -0.86198  -0.82451  -0.79959  -0.78705  -0.77492
 Alpha  occ. eigenvalues --   -0.72057  -0.71180  -0.70512  -0.65547  -0.65046
 Alpha  occ. eigenvalues --   -0.64821  -0.62208  -0.61253  -0.59693  -0.57929
 Alpha  occ. eigenvalues --   -0.55648  -0.55287  -0.53126  -0.52988  -0.52963
 Alpha  occ. eigenvalues --   -0.52639  -0.50258  -0.48820  -0.48813  -0.48256
 Alpha  occ. eigenvalues --   -0.47014  -0.46236  -0.46159  -0.44804  -0.44154
 Alpha  occ. eigenvalues --   -0.37368  -0.36384
 Alpha virt. eigenvalues --    0.04989   0.11164   0.16412   0.19162   0.22870
 Alpha virt. eigenvalues --    0.23522   0.24854   0.26499   0.26909   0.28446
 Alpha virt. eigenvalues --    0.29440   0.31140   0.31354   0.31546   0.31752

 Mulliken charges:
               1
     1  C   -0.298714
     2  C   -0.298114
     3  C   -0.475887
     4  H    0.152993
     5  H    0.148690
     6  H    0.154044
     7  H    0.143782
     8  H    0.155239
     9  H    0.157620
    10  H    0.160437
    11  C   -0.299173
    12  C   -0.302101
    13  C   -0.477969
    14  H    0.152814
    15  H    0.139814
    16  H    0.154248
    17  H    0.150547
    18  H    0.155652
    19  H    0.156253
    20  H    0.167519
    21  C   -0.170878
    22  C   -0.220815
    23  C   -0.173004
    24  C    0.157683
    25  C   -0.170658
    26  C   -0.218320
    27  H    0.225970
    28  H    0.225222
    29  H    0.280352
    30  H    0.275798
    31  H    0.223672
    32  N    0.488278
    33  O   -0.460035
    34  O   -0.460959
 Sum of Mulliken charges =  -0.00000

 Dipole moment (field-independent basis, Debye):
    X=             -2.4968    Y=             -4.4805    Z=              0.2429  Tot=              5.1349
 Quadrupole moment (field-independent basis, Debye-Ang):
   XX=           -105.7288   YY=            -91.6860   ZZ=            -94.2855
   XY=            -15.3546   XZ=              1.7807   YZ=             -0.3521

 Normal termination of Gaussian 16 at Wed May  5 23:29:59 2021.
