 Gaussian 16, Revision A.03,
 Gaussian 16:  EM64L-G16RevA.03 25-Dec-2016

 -------------
 #p 6-31g* mp2
 -------------

 ------------------------------------------------------
 Input file generated by CHIRIPA (05-May-2021 14:55:18)
 ------------------------------------------------------
 Symbolic Z-matrix:
 Charge =  0 Multiplicity = 1

                         Standard orientation:
 ---------------------------------------------------------------------
 Center     Atomic      Atomic             Coordinates (Angstroms)
 Number     Number       Type             X           Y           Z
 ---------------------------------------------------------------------
      1          6           0        0.737984   -1.862756    0.704052
      2          6           0        1.305365   -1.044832    1.686702
      3          6           0        2.307101   -0.127575    1.355474
      4          6           0        2.719381   -0.054339    0.025831
      5          6           0        2.173543   -0.855574   -0.975855
      6          6           0        1.173117   -1.765687   -0.621753
      7          1           0       -0.039680   -2.572528    0.970242
      8          1           0        0.969400   -1.118045    2.717145
      9          1           0        2.763518    0.517708    2.096225
     10          1           0        2.529163   -0.759713   -1.994562
     11          1           0        0.734281   -2.399632   -1.386986
     12          7           0        3.779181    0.912939   -0.336933
     13          8           0        4.124911    0.958145   -1.515519
     14          8           0        4.244054    1.607570    0.564187
     15          6           0       -3.672306    0.912498   -0.164070
     16          6           0       -2.876453    2.180885    0.145444
     17          6           0       -3.720508    3.450748    0.032251
     18          1           0       -4.090227    0.987595   -1.177306
     19          1           0       -4.527544    0.847862    0.522797
     20          1           0       -2.022185    2.242394   -0.540894
     21          1           0       -2.460220    2.102675    1.157989
     22          1           0       -4.564621    3.415593    0.728555
     23          1           0       -4.124099    3.556106   -0.979982
     24          1           0       -3.131856    4.345488    0.257612
     25          6           0       -2.842160   -0.365278   -0.055114
     26          6           0       -3.638012   -1.633665   -0.364628
     27          6           0       -2.793957   -2.903528   -0.251434
     28          1           0       -1.986922   -0.300642   -0.741980
     29          1           0       -2.424238   -0.440377    0.958123
     30          1           0       -4.054246   -1.555456   -1.377172
     31          1           0       -4.492279   -1.695175    0.321711
     32          1           0       -2.390366   -3.008886    0.760798
     33          1           0       -1.949844   -2.868374   -0.947738
     34          1           0       -3.382609   -3.798269   -0.476795
 ---------------------------------------------------------------------

 SCF Done:  E(RHF) =  -669.534861860     A.U. after   15 cycles
 E2 =    -0.2092955332D+01 EUMP2 =    -0.67162781719209D+03

 The electronic state is 1-A.
 Alpha  occ. eigenvalues --  -20.60725 -20.60720 -15.85781 -11.31123 -11.27722
 Alpha  occ. eigenvalues --  -11.27713 -11.27375 -11.26704 -11.26687 -11.22466
 Alpha  occ. eigenvalues --  -11.22352 -11.22022 -11.21927 -11.21833 -11.21302
 Alpha  occ. eigenvalues --   -1.59802  -1.39356  -1.19305  -1.09051  -1.08685
 Alpha  occ. eigenvalues --   -1.04714  -1.04185  -0.96664  -0.95530  -0.87690
 Alpha  occ. eigenvalues --   -0.86108  -0.82376  -0.80269  -0.78799  -0.77425
 Alpha  occ. eigenvalues --   -0.71999  -0.71126  -0.70411  -0.65679  -0.64954
 Alpha  occ. eigenvalues --   -0.64731  -0.62084  -0.61577  -0.60051  -0.58263
 Alpha  occ. eigenvalues --   -0.56004  -0.55193  -0.53356  -0.53077  -0.53009
 Alpha  occ. eigenvalues --   -0.52797  -0.50623  -0.48758  -0.48754  -0.48541
 Alpha  occ. eigenvalues --   -0.47279  -0.46344  -0.46236  -0.44767  -0.44395
 Alpha  occ. eigenvalues --   -0.37214  -0.36318
 Alpha virt. eigenvalues --    0.05109   0.11212   0.16558   0.19936   0.22627
 Alpha virt. eigenvalues --    0.24078   0.24545   0.26012   0.27050   0.27383
 Alpha virt. eigenvalues --    0.29248   0.29886   0.31236   0.31614   0.32229

 Mulliken charges:
               1
     1  C   -0.167541
     2  C   -0.221250
     3  C   -0.170159
     4  C    0.157935
     5  C   -0.171269
     6  C   -0.223918
     7  H    0.232956
     8  H    0.222749
     9  H    0.275322
    10  H    0.275259
    11  H    0.223778
    12  N    0.488102
    13  O   -0.460847
    14  O   -0.460673
    15  C   -0.299080
    16  C   -0.299765
    17  C   -0.476230
    18  H    0.150847
    19  H    0.149672
    20  H    0.154770
    21  H    0.151125
    22  H    0.154826
    23  H    0.155917
    24  H    0.162799
    25  C   -0.299917
    26  C   -0.299403
    27  C   -0.480002
    28  H    0.153109
    29  H    0.145802
    30  H    0.155407
    31  H    0.154794
    32  H    0.148588
    33  H    0.149989
    34  H    0.166307
 Sum of Mulliken charges =  -0.00000

 Dipole moment (field-independent basis, Debye):
    X=             -3.8833    Y=             -3.3426    Z=              1.2485  Tot=              5.2737
 Quadrupole moment (field-independent basis, Debye-Ang):
   XX=           -115.7347   YY=            -95.5388   ZZ=            -89.2560
   XY=             -8.5351   XZ=              3.5860   YZ=              1.4485

 Normal termination of Gaussian 16 at Wed May  5 22:05:43 2021.
