 Gaussian 16, Revision A.03,
 Gaussian 16:  EM64L-G16RevA.03 25-Dec-2016

 -------------
 #p 6-31g* mp2
 -------------

 ------------------------------------------------------
 Input file generated by CHIRIPA (05-May-2021 14:51:08)
 ------------------------------------------------------
 Symbolic Z-matrix:
 Charge =  0 Multiplicity = 1

                         Standard orientation:
 ---------------------------------------------------------------------
 Center     Atomic      Atomic             Coordinates (Angstroms)
 Number     Number       Type             X           Y           Z
 ---------------------------------------------------------------------
      1          6           0       -3.676546    0.972158   -0.438068
      2          6           0       -2.432092    1.427466    0.324830
      3          6           0       -1.836372    2.720165   -0.233597
      4          1           0       -3.418807    0.831438   -1.496705
      5          1           0       -4.431531    1.769780   -0.403532
      6          1           0       -1.680201    0.628676    0.290042
      7          1           0       -2.692777    1.566934    1.381811
      8          1           0       -2.567027    3.533971   -0.183957
      9          1           0       -1.548697    2.590382   -1.281929
     10          1           0       -0.947718    3.027452    0.326518
     11          6           0       -4.283573   -0.318820    0.108394
     12          6           0       -5.528027   -0.774128   -0.654504
     13          6           0       -6.123747   -2.066827   -0.096077
     14          1           0       -3.528589   -1.116442    0.073858
     15          1           0       -4.541312   -0.178100    1.167032
     16          1           0       -5.267342   -0.913597   -1.711485
     17          1           0       -6.279918    0.024662   -0.619715
     18          1           0       -6.411422   -1.937044    0.952256
     19          1           0       -5.393092   -2.880633   -0.145717
     20          1           0       -7.012401   -2.374114   -0.656192
     21          6           0        3.266193   -0.593730    0.114797
     22          6           0        2.314991    0.022256    1.141325
     23          6           0        0.890618   -0.522038    1.028626
     24          1           0        2.878362   -0.403657   -0.895354
     25          1           0        3.278231   -1.684760    0.244824
     26          1           0        2.305808    1.111920    1.010307
     27          1           0        2.705231   -0.169140    2.149143
     28          1           0        0.879324   -1.606160    1.180786
     29          1           0        0.477632   -0.317821    0.035480
     30          1           0        0.227463   -0.068234    1.771691
     31          6           0        4.693927   -0.059607    0.214877
     32          6           0        5.645128   -0.675594   -0.811651
     33          6           0        7.069501   -0.131300   -0.698952
     34          1           0        4.681890    1.031421    0.084851
     35          1           0        5.081758   -0.249681    1.225028
     36          1           0        5.254888   -0.484197   -1.819468
     37          1           0        5.654311   -1.765257   -0.680633
     38          1           0        7.482487   -0.335517    0.294194
     39          1           0        7.080795    0.952822   -0.851112
     40          1           0        7.732657   -0.585105   -1.442017
 ---------------------------------------------------------------------

 SCF Done:  E(RHF) =  -470.732567955     A.U. after   11 cycles
 E2 =    -0.1582973749D+01 EUMP2 =    -0.47231554170406D+03

 The electronic state is 1-A.
 Alpha  occ. eigenvalues --  -11.21631 -11.21617 -11.21556 -11.21428 -11.21419
 Alpha  occ. eigenvalues --  -11.21368 -11.21333 -11.21270 -11.21095 -11.21082
 Alpha  occ. eigenvalues --  -11.21036 -11.21022  -1.08456  -1.08356  -1.03574
 Alpha  occ. eigenvalues --   -1.03448  -0.96027  -0.95908  -0.87052  -0.86924
 Alpha  occ. eigenvalues --   -0.79710  -0.79455  -0.78279  -0.78153  -0.65121
 Alpha  occ. eigenvalues --   -0.64969  -0.61094  -0.60762  -0.59468  -0.59203
 Alpha  occ. eigenvalues --   -0.57642  -0.57504  -0.55371  -0.55142  -0.52751
 Alpha  occ. eigenvalues --   -0.52596  -0.52438  -0.52336  -0.50054  -0.49799
 Alpha  occ. eigenvalues --   -0.47945  -0.47835  -0.46801  -0.46411  -0.45845
 Alpha  occ. eigenvalues --   -0.45753  -0.45699  -0.45506  -0.43790  -0.43676
 Alpha virt. eigenvalues --    0.21852   0.23043   0.23609   0.25122   0.26270
 Alpha virt. eigenvalues --    0.26693   0.26993   0.27360   0.28033   0.29124
 Alpha virt. eigenvalues --    0.30409   0.31108   0.31501   0.31712   0.32327

 Mulliken charges:
               1
     1  C   -0.297507
     2  C   -0.309108
     3  C   -0.475598
     4  H    0.148772
     5  H    0.148831
     6  H    0.164508
     7  H    0.150231
     8  H    0.155053
     9  H    0.154075
    10  H    0.159696
    11  C   -0.298319
    12  C   -0.299540
    13  C   -0.475664
    14  H    0.149765
    15  H    0.149409
    16  H    0.151749
    17  H    0.151809
    18  H    0.155082
    19  H    0.155165
    20  H    0.160058
    21  C   -0.298740
    22  C   -0.299600
    23  C   -0.479781
    24  H    0.149803
    25  H    0.149532
    26  H    0.152227
    27  H    0.152091
    28  H    0.155144
    29  H    0.156470
    30  H    0.164138
    31  C   -0.298345
    32  C   -0.299665
    33  C   -0.475725
    34  H    0.149664
    35  H    0.149713
    36  H    0.151944
    37  H    0.151917
    38  H    0.155204
    39  H    0.155249
    40  H    0.160294
 Sum of Mulliken charges =  -0.00000

 Dipole moment (field-independent basis, Debye):
    X=              0.0520    Y=             -0.0297    Z=              0.0191  Tot=              0.0629
 Quadrupole moment (field-independent basis, Debye-Ang):
   XX=            -86.0658   YY=            -84.9844   ZZ=            -84.0200
   XY=             -1.2490   XZ=             -0.0371   YZ=              0.1331

 Normal termination of Gaussian 16 at Wed May  5 18:06:29 2021.
