 Gaussian 16, Revision A.03,
 Gaussian 16:  EM64L-G16RevA.03 25-Dec-2016

 -------------
 #p 6-31g* mp2
 -------------

 ------------------------------------------------------
 Input file generated by CHIRIPA (05-May-2021 14:57:21)
 ------------------------------------------------------
 Symbolic Z-matrix:
 Charge =  0 Multiplicity = 1

                         Standard orientation:
 ---------------------------------------------------------------------
 Center     Atomic      Atomic             Coordinates (Angstroms)
 Number     Number       Type             X           Y           Z
 ---------------------------------------------------------------------
      1          6           0        2.998087   -2.003989    1.627420
      2          6           0        1.999520   -1.805582    0.668243
      3          6           0        2.098760   -0.759666   -0.254124
      4          6           0        3.215170    0.072557   -0.188377
      5          6           0        4.226608   -0.099346    0.755409
      6          6           0        4.106489   -1.151740    1.667870
      7          1           0        2.912885   -2.818997    2.340089
      8          1           0        1.137602   -2.465887    0.634476
      9          1           0        1.340298   -0.583323   -1.007156
     10          1           0        5.074036    0.575343    0.764272
     11          1           0        4.883519   -1.303442    2.411682
     12          7           0        3.331282    1.183251   -1.159603
     13          8           0        4.324780    1.902542   -1.080745
     14          8           0        2.426594    1.313490   -1.981317
     15          6           0       -2.993350    2.222012    1.394452
     16          6           0       -1.858825    1.663461    0.796630
     17          6           0       -1.959329    0.493772    0.037501
     18          6           0       -3.215628   -0.093636   -0.103766
     19          6           0       -4.364443    0.438703    0.479440
     20          6           0       -4.240340    1.608933    1.234232
     21          1           0       -2.906111    3.130864    1.982477
     22          1           0       -0.889111    2.137421    0.919360
     23          1           0       -1.097305    0.040041   -0.436272
     24          1           0       -5.317562   -0.056587    0.339198
     25          1           0       -5.123135    2.040477    1.697360
     26          7           0       -3.334518   -1.332218   -0.905126
     27          8           0       -4.452749   -1.830455   -1.014472
     28          8           0       -2.307222   -1.781329   -1.408712
 ---------------------------------------------------------------------

 SCF Done:  E(RHF) =  -868.338587817     A.U. after   16 cycles
 E2 =    -0.2599626798D+01 EUMP2 =    -0.87093821461501D+03

 The electronic state is 1-A.
 Alpha  occ. eigenvalues --  -20.61117 -20.61084 -20.61083 -20.61073 -15.86148
 Alpha  occ. eigenvalues --  -15.86129 -11.31460 -11.31386 -11.27992 -11.27987
 Alpha  occ. eigenvalues --  -11.27964 -11.27914 -11.27670 -11.27611 -11.27001
 Alpha  occ. eigenvalues --  -11.26924 -11.26909 -11.26873  -1.60173  -1.60161
 Alpha  occ. eigenvalues --   -1.39734  -1.39714  -1.19604  -1.19533  -1.08996
 Alpha  occ. eigenvalues --   -1.08946  -1.04993  -1.04905  -0.95850  -0.95805
 Alpha  occ. eigenvalues --   -0.86388  -0.86313  -0.82665  -0.82642  -0.77794
 Alpha  occ. eigenvalues --   -0.77660  -0.72376  -0.72335  -0.71493  -0.71489
 Alpha  occ. eigenvalues --   -0.70767  -0.70576  -0.65242  -0.65185  -0.65000
 Alpha  occ. eigenvalues --   -0.64865  -0.62483  -0.62107  -0.55487  -0.55385
 Alpha  occ. eigenvalues --   -0.53343  -0.53242  -0.53118  -0.52915  -0.49141
 Alpha  occ. eigenvalues --   -0.49107  -0.49104  -0.49095  -0.45167  -0.45127
 Alpha  occ. eigenvalues --   -0.37572  -0.37497  -0.36632  -0.36466
 Alpha virt. eigenvalues --    0.04711   0.04838   0.11001   0.11140   0.16256
 Alpha virt. eigenvalues --    0.16362   0.19796   0.21942   0.24986   0.27585
 Alpha virt. eigenvalues --    0.27821   0.29352   0.30952   0.31147   0.31623

 Mulliken charges:
               1
     1  C   -0.171316
     2  C   -0.220315
     3  C   -0.184562
     4  C    0.159496
     5  C   -0.171950
     6  C   -0.218045
     7  H    0.227660
     8  H    0.233710
     9  H    0.280721
    10  H    0.275668
    11  H    0.224270
    12  N    0.486997
    13  O   -0.459515
    14  O   -0.461248
    15  C   -0.170555
    16  C   -0.219438
    17  C   -0.172786
    18  C    0.158109
    19  C   -0.170470
    20  C   -0.218598
    21  H    0.227268
    22  H    0.228291
    23  H    0.273497
    24  H    0.275717
    25  H    0.224180
    26  N    0.487897
    27  O   -0.457991
    28  O   -0.466693
 Sum of Mulliken charges =  -0.00000

 Dipole moment (field-independent basis, Debye):
    X=             -0.0030    Y=              0.4479    Z=              6.3434  Tot=              6.3592
 Quadrupole moment (field-independent basis, Debye-Ang):
   XX=           -101.1890   YY=           -106.7416   ZZ=           -107.0026
   XY=            -25.8754   XZ=              3.0572   YZ=              0.8618

 Normal termination of Gaussian 16 at Wed May  5 20:54:23 2021.
