 Gaussian 16, Revision A.03,
 Gaussian 16:  EM64L-G16RevA.03 25-Dec-2016

 -------------
 #p 6-31g* mp2
 -------------

 ------------------------------------------------------
 Input file generated by CHIRIPA (05-May-2021 14:57:22)
 ------------------------------------------------------
 Symbolic Z-matrix:
 Charge =  0 Multiplicity = 1

                         Standard orientation:
 ---------------------------------------------------------------------
 Center     Atomic      Atomic             Coordinates (Angstroms)
 Number     Number       Type             X           Y           Z
 ---------------------------------------------------------------------
      1          6           0        4.633220   -1.769524    0.993269
      2          6           0        5.030187   -0.472780    1.335895
      3          6           0        4.354883    0.636564    0.818335
      4          6           0        3.282131    0.411540   -0.042977
      5          6           0        2.862707   -0.868151   -0.403206
      6          6           0        3.552652   -1.962731    0.126341
      7          1           0        5.163500   -2.625554    1.399978
      8          1           0        5.869015   -0.319725    2.008939
      9          1           0        4.641098    1.651302    1.066941
     10          1           0        2.022775   -0.989024   -1.076497
     11          1           0        3.242151   -2.968663   -0.141492
     12          7           0        2.559466    1.578137   -0.597240
     13          8           0        1.617535    1.353127   -1.354056
     14          8           0        2.948658    2.695436   -0.264359
     15          6           0       -5.255516    0.944490    1.205911
     16          6           0       -4.199019    1.688064    0.669784
     17          6           0       -3.166218    1.053810   -0.027060
     18          6           0       -3.221969   -0.331778   -0.169632
     19          6           0       -4.261055   -1.100219    0.352949
     20          6           0       -5.283114   -0.444829    1.046063
     21          1           0       -6.053649    1.445404    1.745787
     22          1           0       -4.174974    2.767155    0.792379
     23          1           0       -2.336376    1.605108   -0.452325
     24          1           0       -4.257489   -2.174571    0.214476
     25          1           0       -6.102352   -1.024851    1.461356
     26          7           0       -2.134276   -1.014423   -0.905374
     27          8           0       -2.206641   -2.236259   -1.017250
     28          8           0       -1.229972   -0.314717   -1.356244
 ---------------------------------------------------------------------

 SCF Done:  E(RHF) =  -868.338467734     A.U. after   16 cycles
 E2 =    -0.2599586805D+01 EUMP2 =    -0.87093805453889D+03

 The electronic state is 1-A.
 Alpha  occ. eigenvalues --  -20.60528 -20.60426 -20.59971 -20.59874 -15.85492
 Alpha  occ. eigenvalues --  -15.84961 -11.30840 -11.30351 -11.27463 -11.27327
 Alpha  occ. eigenvalues --  -11.27187 -11.27022 -11.26784 -11.26759 -11.26469
 Alpha  occ. eigenvalues --  -11.26389 -11.26047 -11.25912  -1.59560  -1.59013
 Alpha  occ. eigenvalues --   -1.39100  -1.38550  -1.19023  -1.18552  -1.08434
 Alpha  occ. eigenvalues --   -1.07961  -1.04414  -1.03946  -0.95265  -0.94774
 Alpha  occ. eigenvalues --   -0.85815  -0.85346  -0.82088  -0.81582  -0.77130
 Alpha  occ. eigenvalues --   -0.76605  -0.71748  -0.71128  -0.70877  -0.70338
 Alpha  occ. eigenvalues --   -0.70125  -0.69658  -0.64670  -0.64420  -0.64196
 Alpha  occ. eigenvalues --   -0.63952  -0.61745  -0.61259  -0.54939  -0.54487
 Alpha  occ. eigenvalues --   -0.52761  -0.52500  -0.52305  -0.52027  -0.48529
 Alpha  occ. eigenvalues --   -0.48476  -0.47980  -0.47904  -0.44532  -0.43914
 Alpha  occ. eigenvalues --   -0.37024  -0.36578  -0.36020  -0.35558
 Alpha virt. eigenvalues --    0.05357   0.05900   0.11632   0.12089   0.16847
 Alpha virt. eigenvalues --    0.17352   0.21769   0.22238   0.27705   0.28154
 Alpha virt. eigenvalues --    0.28667   0.29208   0.31309   0.31735   0.32974

 Mulliken charges:
               1
     1  C   -0.171320
     2  C   -0.219683
     3  C   -0.172246
     4  C    0.155046
     5  C   -0.174476
     6  C   -0.220634
     7  H    0.222720
     8  H    0.219811
     9  H    0.272298
    10  H    0.294317
    11  H    0.225296
    12  N    0.486256
    13  O   -0.449541
    14  O   -0.469296
    15  C   -0.170869
    16  C   -0.219355
    17  C   -0.172468
    18  C    0.156396
    19  C   -0.171640
    20  C   -0.219102
    21  H    0.224586
    22  H    0.224985
    23  H    0.286398
    24  H    0.273370
    25  H    0.221654
    26  N    0.487583
    27  O   -0.468410
    28  O   -0.451676
 Sum of Mulliken charges =  -0.00000

 Dipole moment (field-independent basis, Debye):
    X=             -1.4616    Y=             -1.6492    Z=              4.3307  Tot=              4.8591
 Quadrupole moment (field-independent basis, Debye-Ang):
   XX=            -63.4328   YY=           -105.0185   ZZ=           -105.9041
   XY=            -15.5507   XZ=             -0.4754   YZ=              0.6491

 Normal termination of Gaussian 16 at Thu May  6 08:07:40 2021.
