 Gaussian 16, Revision A.03,
 Gaussian 16:  EM64L-G16RevA.03 25-Dec-2016

 -------------
 #p 6-31g* mp2
 -------------

 ------------------------------------------------------
 Input file generated by CHIRIPA (05-May-2021 14:55:19)
 ------------------------------------------------------
 Symbolic Z-matrix:
 Charge =  0 Multiplicity = 1

                         Standard orientation:
 ---------------------------------------------------------------------
 Center     Atomic      Atomic             Coordinates (Angstroms)
 Number     Number       Type             X           Y           Z
 ---------------------------------------------------------------------
      1          6           0        4.079541    2.341780    0.566130
      2          6           0        4.560802    1.643806   -0.546408
      3          6           0        4.020021    0.402369   -0.894169
      4          6           0        2.994375   -0.113837   -0.103680
      5          6           0        2.493468    0.557386    1.010699
      6          6           0        3.049227    1.797303    1.339769
      7          1           0        4.505450    3.305568    0.829019
      8          1           0        5.360876    2.064225   -1.149048
      9          1           0        4.373700   -0.159320   -1.750226
     10          1           0        1.695056    0.112689    1.592249
     11          1           0        2.673493    2.337122    2.204329
     12          7           0        2.413947   -1.427287   -0.461945
     13          8           0        1.511077   -1.860449    0.250680
     14          8           0        2.872867   -1.998735   -1.448594
     15          6           0       -4.158350    0.450530   -0.394056
     16          6           0       -5.483203    1.097823    0.010620
     17          6           0       -5.876056    2.260394   -0.901458
     18          1           0       -3.366589    1.212042   -0.381487
     19          1           0       -4.233638    0.094991   -1.431032
     20          1           0       -5.405902    1.450799    1.046983
     21          1           0       -6.271866    0.334640   -0.002728
     22          1           0       -5.980695    1.919588   -1.936593
     23          1           0       -5.109810    3.042090   -0.880917
     24          1           0       -6.826129    2.708462   -0.594121
     25          6           0       -3.752145   -0.713276    0.508318
     26          6           0       -2.427292   -1.360568    0.103642
     27          6           0       -2.034439   -2.523140    1.015720
     28          1           0       -3.676856   -0.357736    1.545294
     29          1           0       -4.543905   -1.474788    0.495750
     30          1           0       -1.638629   -0.597386    0.116989
     31          1           0       -2.504593   -1.713545   -0.932721
     32          1           0       -2.800684   -3.304835    0.995180
     33          1           0       -1.929799   -2.182334    2.050855
     34          1           0       -1.084366   -2.971208    0.708384
 ---------------------------------------------------------------------

 SCF Done:  E(RHF) =  -669.536153067     A.U. after   15 cycles
 E2 =    -0.2091069888D+01 EUMP2 =    -0.67162722295562D+03

 The electronic state is 1-A.
 Alpha  occ. eigenvalues --  -20.60940 -20.60932 -15.85971 -11.31290 -11.27853
 Alpha  occ. eigenvalues --  -11.27849 -11.27591 -11.26862 -11.26852 -11.21303
 Alpha  occ. eigenvalues --  -11.20962 -11.20859 -11.20767 -11.20662 -11.19786
 Alpha  occ. eigenvalues --   -1.59997  -1.39554  -1.19458  -1.08863  -1.07874
 Alpha  occ. eigenvalues --   -1.04855  -1.02875  -0.95711  -0.95311  -0.86343
 Alpha  occ. eigenvalues --   -0.86254  -0.82540  -0.78980  -0.77656  -0.77588
 Alpha  occ. eigenvalues --   -0.72204  -0.71309  -0.70567  -0.65117  -0.64859
 Alpha  occ. eigenvalues --   -0.64522  -0.62202  -0.60293  -0.58713  -0.56874
 Alpha  occ. eigenvalues --   -0.55359  -0.54640  -0.53186  -0.52948  -0.51951
 Alpha  occ. eigenvalues --   -0.51742  -0.49312  -0.48955  -0.48936  -0.47262
 Alpha  occ. eigenvalues --   -0.46056  -0.45211  -0.45147  -0.44908  -0.43112
 Alpha  occ. eigenvalues --   -0.37437  -0.36457
 Alpha virt. eigenvalues --    0.04924   0.11191   0.16412   0.21218   0.23302
 Alpha virt. eigenvalues --    0.24794   0.26896   0.27354   0.27804   0.28270
 Alpha virt. eigenvalues --    0.28902   0.30795   0.31730   0.32183   0.32787

 Mulliken charges:
               1
     1  C   -0.170591
     2  C   -0.218573
     3  C   -0.170540
     4  C    0.157881
     5  C   -0.171323
     6  C   -0.218526
     7  H    0.225989
     8  H    0.223820
     9  H    0.275869
    10  H    0.276191
    11  H    0.223797
    12  N    0.492714
    13  O   -0.464115
    14  O   -0.459021
    15  C   -0.297140
    16  C   -0.298951
    17  C   -0.475195
    18  H    0.146307
    19  H    0.149904
    20  H    0.150083
    21  H    0.152079
    22  H    0.155370
    23  H    0.153338
    24  H    0.158982
    25  C   -0.297667
    26  C   -0.296538
    27  C   -0.482369
    28  H    0.145440
    29  H    0.148712
    30  H    0.149219
    31  H    0.152303
    32  H    0.148280
    33  H    0.146288
    34  H    0.187980
 Sum of Mulliken charges =  -0.00000

 Dipole moment (field-independent basis, Debye):
    X=              2.3280    Y=              4.5307    Z=              1.2000  Tot=              5.2333
 Quadrupole moment (field-independent basis, Debye-Ang):
   XX=            -81.7527   YY=            -96.6126   ZZ=            -92.4184
   XY=             14.4526   XZ=              1.0197   YZ=              0.7684

 Normal termination of Gaussian 16 at Thu May  6 20:37:26 2021.
