 Gaussian 16, Revision A.03,
 Gaussian 16:  EM64L-G16RevA.03 25-Dec-2016

 -------------
 #p 6-31g* mp2
 -------------

 ------------------------------------------------------
 Input file generated by CHIRIPA (05-May-2021 14:51:10)
 ------------------------------------------------------
 Symbolic Z-matrix:
 Charge =  0 Multiplicity = 1

                         Standard orientation:
 ---------------------------------------------------------------------
 Center     Atomic      Atomic             Coordinates (Angstroms)
 Number     Number       Type             X           Y           Z
 ---------------------------------------------------------------------
      1          6           0        2.560798   -0.506420    0.173578
      2          6           0        2.967607    0.131094   -1.155357
      3          6           0        4.120851    1.123862   -1.006250
      4          1           0        2.276262    0.284817    0.880634
      5          1           0        3.431071   -1.016648    0.609108
      6          1           0        2.096470    0.638793   -1.588922
      7          1           0        3.251024   -0.661764   -1.859394
      8          1           0        5.006296    0.627077   -0.596626
      9          1           0        3.845182    1.935024   -0.324617
     10          1           0        4.395434    1.567688   -1.968270
     11          6           0        1.409082   -1.501233    0.040825
     12          6           0        1.002273   -2.138747    1.369760
     13          6           0       -0.150971   -3.131515    1.220653
     14          1           0        0.538808   -0.991005   -0.394705
     15          1           0        1.693618   -2.292470   -0.666231
     16          1           0        0.718855   -1.345889    2.073797
     17          1           0        1.873409   -2.646447    1.803325
     18          1           0        0.124697   -3.942678    0.539020
     19          1           0       -1.036417   -2.634730    0.811029
     20          1           0       -0.425555   -3.575341    2.182673
     21          6           0       -2.408745    0.373870   -0.023681
     22          6           0       -2.649333   -0.373456   -1.335781
     23          6           0       -3.498761   -1.631485   -1.152396
     24          1           0       -1.917540   -0.301046    0.690566
     25          1           0       -3.377335    0.645545    0.418384
     26          1           0       -1.680553   -0.642427   -1.775934
     27          1           0       -3.139850    0.303376   -2.047053
     28          1           0       -4.478759   -1.377261   -0.735772
     29          1           0       -3.011170   -2.328440   -0.463113
     30          1           0       -3.658370   -2.150195   -2.102829
     31          6           0       -1.561134    1.633783   -0.190722
     32          6           0       -1.320546    2.381109    1.121378
     33          6           0       -0.471119    3.639138    0.937992
     34          1           0       -0.592544    1.362108   -0.632787
     35          1           0       -2.052340    2.308699   -0.904970
     36          1           0       -0.830029    1.704277    1.832650
     37          1           0       -2.289327    2.650080    1.561531
     38          1           0       -0.958710    4.336093    0.248710
     39          1           0        0.508879    3.384914    0.521368
     40          1           0       -0.311508    4.157848    1.888426
 ---------------------------------------------------------------------

 SCF Done:  E(RHF) =  -470.732406668     A.U. after   11 cycles
 E2 =    -0.1586181564D+01 EUMP2 =    -0.47231858823121D+03

 The electronic state is 1-A.
 Alpha  occ. eigenvalues --  -11.21681 -11.21680 -11.21671 -11.21644 -11.21474
 Alpha  occ. eigenvalues --  -11.21467 -11.21412 -11.21405 -11.21142 -11.21119
 Alpha  occ. eigenvalues --  -11.21118 -11.21076  -1.08582  -1.08431  -1.03640
 Alpha  occ. eigenvalues --   -1.03553  -0.96078  -0.96009  -0.87094  -0.87026
 Alpha  occ. eigenvalues --   -0.79696  -0.79624  -0.78374  -0.78276  -0.65712
 Alpha  occ. eigenvalues --   -0.64622  -0.61282  -0.60736  -0.59428  -0.59385
 Alpha  occ. eigenvalues --   -0.57696  -0.57617  -0.55533  -0.55167  -0.52745
 Alpha  occ. eigenvalues --   -0.52725  -0.52524  -0.52411  -0.50143  -0.49857
 Alpha  occ. eigenvalues --   -0.48136  -0.47841  -0.46808  -0.46573  -0.46253
 Alpha  occ. eigenvalues --   -0.45854  -0.45664  -0.45330  -0.43851  -0.43839
 Alpha virt. eigenvalues --    0.18265   0.21301   0.23389   0.24579   0.25203
 Alpha virt. eigenvalues --    0.25604   0.27269   0.28070   0.28819   0.30327
 Alpha virt. eigenvalues --    0.30801   0.31280   0.31478   0.32210   0.32439

 Mulliken charges:
               1
     1  C   -0.298501
     2  C   -0.302271
     3  C   -0.475814
     4  H    0.149859
     5  H    0.150147
     6  H    0.153091
     7  H    0.152421
     8  H    0.155518
     9  H    0.155219
    10  H    0.160671
    11  C   -0.307712
    12  C   -0.299718
    13  C   -0.485670
    14  H    0.158703
    15  H    0.149953
    16  H    0.151650
    17  H    0.152733
    18  H    0.155810
    19  H    0.163602
    20  H    0.160906
    21  C   -0.304803
    22  C   -0.302813
    23  C   -0.480902
    24  H    0.154347
    25  H    0.150759
    26  H    0.154168
    27  H    0.152665
    28  H    0.155397
    29  H    0.160100
    30  H    0.160808
    31  C   -0.302956
    32  C   -0.300087
    33  C   -0.476204
    34  H    0.152940
    35  H    0.150367
    36  H    0.151835
    37  H    0.152548
    38  H    0.155668
    39  H    0.154927
    40  H    0.160638
 Sum of Mulliken charges =  -0.00000

 Dipole moment (field-independent basis, Debye):
    X=             -0.0076    Y=             -0.0062    Z=             -0.0091  Tot=              0.0134
 Quadrupole moment (field-independent basis, Debye-Ang):
   XX=            -84.5462   YY=            -85.2647   ZZ=            -84.7347
   XY=             -2.1813   XZ=              0.0345   YZ=              0.0604

 Normal termination of Gaussian 16 at Wed May  5 15:12:27 2021.
