 Gaussian 16, Revision A.03,
 Gaussian 16:  EM64L-G16RevA.03 25-Dec-2016

 -------------
 #p 6-31g* mp2
 -------------

 ------------------------------------------------------
 Input file generated by CHIRIPA (05-May-2021 14:55:24)
 ------------------------------------------------------
 Symbolic Z-matrix:
 Charge =  0 Multiplicity = 1

                         Standard orientation:
 ---------------------------------------------------------------------
 Center     Atomic      Atomic             Coordinates (Angstroms)
 Number     Number       Type             X           Y           Z
 ---------------------------------------------------------------------
      1          6           0        1.973946    2.650261    0.334250
      2          6           0        2.824530    1.819666    1.071230
      3          6           0        3.027561    0.490897    0.686915
      4          6           0        2.361034    0.023543   -0.444727
      5          6           0        1.507328    0.826356   -1.199689
      6          6           0        1.319214    2.151834   -0.796863
      7          1           0        1.822020    3.681203    0.639985
      8          1           0        3.334317    2.204047    1.950101
      9          1           0        3.680542   -0.173943    1.239202
     10          1           0        1.012987    0.414687   -2.071225
     11          1           0        0.658061    2.794598   -1.371125
     12          7           0        2.568077   -1.381423   -0.861382
     13          8           0        1.969182   -1.769102   -1.862215
     14          8           0        3.325334   -2.068354   -0.179234
     15          6           0       -2.575115   -0.833445    0.886062
     16          6           0       -1.178312   -0.336770    1.260549
     17          6           0       -0.383655   -1.362005    2.070000
     18          1           0       -3.125718   -1.085434    1.802730
     19          1           0       -2.483359   -1.764953    0.310500
     20          1           0       -1.272622    0.594263    1.834049
     21          1           0       -0.631037   -0.085754    0.342892
     22          1           0       -0.260045   -2.289492    1.501590
     23          1           0       -0.905276   -1.605612    3.001218
     24          1           0        0.611697   -0.986361    2.326955
     25          6           0       -3.381776    0.180393    0.076644
     26          6           0       -4.778578   -0.316282   -0.297844
     27          6           0       -5.573235    0.708952   -1.107295
     28          1           0       -3.473531    1.111900    0.652205
     29          1           0       -2.831172    0.432381   -0.840025
     30          1           0       -5.325855   -0.567299    0.619813
     31          1           0       -4.684269   -1.247315   -0.871343
     32          1           0       -5.051614    0.952559   -2.038513
     33          1           0       -5.696845    1.636438   -0.538885
     34          1           0       -6.568587    0.333309   -1.364250
 ---------------------------------------------------------------------

 SCF Done:  E(RHF) =  -669.534618979     A.U. after   15 cycles
 E2 =    -0.2094329556D+01 EUMP2 =    -0.67162894853531D+03

 The electronic state is 1-A.
 Alpha  occ. eigenvalues --  -20.60820 -20.60813 -15.85873 -11.31243 -11.27829
 Alpha  occ. eigenvalues --  -11.27807 -11.27567 -11.26855 -11.26830 -11.21656
 Alpha  occ. eigenvalues --  -11.21483 -11.21425 -11.21282 -11.21188 -11.20864
 Alpha  occ. eigenvalues --   -1.59893  -1.39447  -1.19442  -1.08820  -1.08422
 Alpha  occ. eigenvalues --   -1.04852  -1.03501  -0.95962  -0.95655  -0.86973
 Alpha  occ. eigenvalues --   -0.86239  -0.82488  -0.79574  -0.78247  -0.77533
 Alpha  occ. eigenvalues --   -0.72092  -0.71225  -0.70543  -0.65088  -0.65065
 Alpha  occ. eigenvalues --   -0.64838  -0.62192  -0.60923  -0.59364  -0.57618
 Alpha  occ. eigenvalues --   -0.55338  -0.55262  -0.53214  -0.52931  -0.52551
 Alpha  occ. eigenvalues --   -0.52373  -0.49892  -0.48853  -0.48845  -0.47895
 Alpha  occ. eigenvalues --   -0.46612  -0.45786  -0.45709  -0.44838  -0.43767
 Alpha  occ. eigenvalues --   -0.37376  -0.36343
 Alpha virt. eigenvalues --    0.04968   0.11120   0.16467   0.21230   0.22853
 Alpha virt. eigenvalues --    0.24181   0.26354   0.27042   0.27523   0.28106
 Alpha virt. eigenvalues --    0.28499   0.30871   0.31504   0.31533   0.31842

 Mulliken charges:
               1
     1  C   -0.170593
     2  C   -0.217874
     3  C   -0.172756
     4  C    0.167455
     5  C   -0.179605
     6  C   -0.212906
     7  H    0.226041
     8  H    0.223940
     9  H    0.276135
    10  H    0.275498
    11  H    0.224246
    12  N    0.488244
    13  O   -0.461410
    14  O   -0.459959
    15  C   -0.298468
    16  C   -0.303342
    17  C   -0.480493
    18  H    0.149031
    19  H    0.153843
    20  H    0.146786
    21  H    0.156226
    22  H    0.162621
    23  H    0.154174
    24  H    0.157911
    25  C   -0.296606
    26  C   -0.299806
    27  C   -0.475561
    28  H    0.146732
    29  H    0.144878
    30  H    0.152520
    31  H    0.154398
    32  H    0.153799
    33  H    0.153671
    34  H    0.161230
 Sum of Mulliken charges =  -0.00000

 Dipole moment (field-independent basis, Debye):
    X=             -0.6385    Y=              4.9255    Z=              1.4391  Tot=              5.1710
 Quadrupole moment (field-independent basis, Debye-Ang):
   XX=            -97.1662   YY=            -95.1085   ZZ=            -93.1842
   XY=             11.8392   XZ=              5.9571   YZ=             -2.0392

 Normal termination of Gaussian 16 at Thu May  6 09:31:49 2021.
