 Gaussian 16, Revision A.03,
 Gaussian 16:  EM64L-G16RevA.03 25-Dec-2016

 -------------
 #p 6-31g* mp2
 -------------

 ------------------------------------------------------
 Input file generated by CHIRIPA (05-May-2021 14:57:22)
 ------------------------------------------------------
 Symbolic Z-matrix:
 Charge =  0 Multiplicity = 1

                         Standard orientation:
 ---------------------------------------------------------------------
 Center     Atomic      Atomic             Coordinates (Angstroms)
 Number     Number       Type             X           Y           Z
 ---------------------------------------------------------------------
      1          6           0        3.162887    2.577225    0.414062
      2          6           0        2.864839    2.038070   -0.841724
      3          6           0        2.909404    0.656325   -1.049912
      4          6           0        3.257407   -0.160613    0.024703
      5          6           0        3.559705    0.346348    1.287595
      6          6           0        3.508759    1.731135    1.472847
      7          1           0        3.125790    3.651779    0.566879
      8          1           0        2.595916    2.692746   -1.665815
      9          1           0        2.683381    0.212270   -2.011758
     10          1           0        3.824465   -0.331646    2.089869
     11          1           0        3.740722    2.147055    2.449192
     12          7           0        3.307963   -1.625015   -0.183556
     13          8           0        3.617354   -2.323309    0.779407
     14          8           0        3.037241   -2.046789   -1.305810
     15          6           0       -0.800112   -0.414926   -0.565802
     16          6           0       -1.532066   -1.433258    0.053684
     17          6           0       -2.889520   -1.259100    0.339226
     18          6           0       -3.485831   -0.048430   -0.010033
     19          6           0       -2.783446    0.985018   -0.628038
     20          6           0       -1.427033    0.788840   -0.904090
     21          1           0        0.253987   -0.558769   -0.783932
     22          1           0       -1.047809   -2.369167    0.317532
     23          1           0       -3.479892   -2.030819    0.818110
     24          1           0       -3.293764    1.906938   -0.879151
     25          1           0       -0.861074    1.581435   -1.385264
     26          7           0       -4.922357    0.147599    0.287234
     27          8           0       -5.424418    1.223521   -0.030514
     28          8           0       -5.519043   -0.778386    0.832352
 ---------------------------------------------------------------------

 SCF Done:  E(RHF) =  -868.338094630     A.U. after   16 cycles
 E2 =    -0.2601262610D+01 EUMP2 =    -0.87093935724051D+03

 The electronic state is 1-A.
 Alpha  occ. eigenvalues --  -20.62024 -20.62007 -20.60673 -20.60662 -15.87041
 Alpha  occ. eigenvalues --  -15.85723 -11.32372 -11.31038 -11.28965 -11.28859
 Alpha  occ. eigenvalues --  -11.28581 -11.27945 -11.27828 -11.27652 -11.27566
 Alpha  occ. eigenvalues --  -11.27250 -11.26665 -11.26501  -1.61090  -1.59748
 Alpha  occ. eigenvalues --   -1.40640  -1.39303  -1.20535  -1.19203  -1.09918
 Alpha  occ. eigenvalues --   -1.08595  -1.05917  -1.04603  -0.96759  -0.95442
 Alpha  occ. eigenvalues --   -0.87311  -0.85995  -0.83579  -0.82283  -0.78654
 Alpha  occ. eigenvalues --   -0.77345  -0.73242  -0.72470  -0.71941  -0.71597
 Alpha  occ. eigenvalues --   -0.71072  -0.70269  -0.66163  -0.65880  -0.64849
 Alpha  occ. eigenvalues --   -0.64609  -0.63247  -0.61956  -0.56365  -0.55244
 Alpha  occ. eigenvalues --   -0.54095  -0.53963  -0.52925  -0.52688  -0.50025
 Alpha  occ. eigenvalues --   -0.50001  -0.48700  -0.48695  -0.46027  -0.44720
 Alpha  occ. eigenvalues --   -0.38475  -0.37534  -0.37133  -0.36215
 Alpha virt. eigenvalues --    0.03832   0.05194   0.09994   0.11443   0.15329
 Alpha virt. eigenvalues --    0.16701   0.20090   0.21754   0.25964   0.26995
 Alpha virt. eigenvalues --    0.27525   0.28465   0.29780   0.31001   0.32292

 Mulliken charges:
               1
     1  C   -0.169391
     2  C   -0.219300
     3  C   -0.186632
     4  C    0.158058
     5  C   -0.169312
     6  C   -0.216712
     7  H    0.230392
     8  H    0.225492
     9  H    0.276018
    10  H    0.279032
    11  H    0.228695
    12  N    0.486791
    13  O   -0.454503
    14  O   -0.461742
    15  C   -0.172701
    16  C   -0.221307
    17  C   -0.170891
    18  C    0.157853
    19  C   -0.171481
    20  C   -0.220535
    21  H    0.231086
    22  H    0.230699
    23  H    0.276029
    24  H    0.273242
    25  H    0.215230
    26  N    0.488086
    27  O   -0.462149
    28  O   -0.460046
 Sum of Mulliken charges =  -0.00000

 Dipole moment (field-independent basis, Debye):
    X=              5.2406    Y=              4.4678    Z=             -0.0907  Tot=              6.8872
 Quadrupole moment (field-independent basis, Debye-Ang):
   XX=           -141.7524   YY=           -102.2535   ZZ=           -100.0405
   XY=             19.7585   XZ=              7.8848   YZ=             -2.5890

 Normal termination of Gaussian 16 at Fri May  7 07:56:18 2021.
