 Gaussian 16, Revision A.03,
 Gaussian 16:  EM64L-G16RevA.03 25-Dec-2016

 -------------
 #p 6-31g* mp2
 -------------

 ------------------------------------------------------
 Input file generated by CHIRIPA (05-May-2021 14:53:18)
 ------------------------------------------------------
 Symbolic Z-matrix:
 Charge =  0 Multiplicity = 1

                         Standard orientation:
 ---------------------------------------------------------------------
 Center     Atomic      Atomic             Coordinates (Angstroms)
 Number     Number       Type             X           Y           Z
 ---------------------------------------------------------------------
      1          6           0       -3.294878    0.618390   -0.066333
      2          6           0       -3.801434    1.797211   -0.898058
      3          6           0       -2.983206    3.070131   -0.679035
      4          1           0       -3.317325    0.891917    0.997445
      5          1           0       -2.242502    0.426703   -0.317641
      6          1           0       -4.852944    1.985734   -0.646261
      7          1           0       -3.777959    1.520777   -1.959966
      8          1           0       -1.934975    2.905454   -0.948654
      9          1           0       -3.016068    3.373053    0.372516
     10          1           0       -3.362546    3.900151   -1.283211
     11          6           0       -4.102723   -0.661379   -0.274435
     12          6           0       -3.596166   -1.840200    0.557290
     13          6           0       -4.414395   -3.113120    0.338268
     14          1           0       -5.155099   -0.469692   -0.023126
     15          1           0       -4.080275   -0.934907   -1.338213
     16          1           0       -3.619641   -1.563766    1.619199
     17          1           0       -2.544656   -2.028723    0.305493
     18          1           0       -4.381532   -3.416042   -0.713283
     19          1           0       -5.462626   -2.948443    0.607886
     20          1           0       -4.035054   -3.943140    0.942443
     21          6           0        0.927108    1.307870    1.053615
     22          6           0        0.750931   -0.002576    0.597309
     23          6           0        1.831226   -0.727378    0.085281
     24          6           0        3.079423   -0.108024    0.044121
     25          6           0        3.286855    1.195995    0.491109
     26          6           0        2.192277    1.901925    0.999155
     27          1           0        0.082362    1.863583    1.449824
     28          1           0       -0.230477   -0.466469    0.638392
     29          1           0        1.722984   -1.743303   -0.274719
     30          1           0        4.277179    1.631643    0.437387
     31          1           0        2.332049    2.919485    1.352822
     32          7           0        4.230642   -0.865350   -0.495832
     33          8           0        5.320167   -0.297086   -0.521314
     34          8           0        4.021645   -2.012867   -0.883341
 ---------------------------------------------------------------------

 SCF Done:  E(RHF) =  -669.535663698     A.U. after   15 cycles
 E2 =    -0.2092085428D+01 EUMP2 =    -0.67162774912606D+03

 The electronic state is 1-A.
 Alpha  occ. eigenvalues --  -20.60732 -20.60727 -15.85785 -11.31142 -11.27712
 Alpha  occ. eigenvalues --  -11.27701 -11.27426 -11.26716 -11.26665 -11.22561
 Alpha  occ. eigenvalues --  -11.22505 -11.22446 -11.22262 -11.21979 -11.21761
 Alpha  occ. eigenvalues --   -1.59808  -1.39362  -1.19310  -1.09386  -1.08700
 Alpha  occ. eigenvalues --   -1.04711  -1.04409  -0.96854  -0.95539  -0.87867
 Alpha  occ. eigenvalues --   -0.86111  -0.82372  -0.80487  -0.79253  -0.77420
 Alpha  occ. eigenvalues --   -0.72003  -0.71131  -0.70402  -0.66052  -0.64957
 Alpha  occ. eigenvalues --   -0.64686  -0.62064  -0.61796  -0.60221  -0.58474
 Alpha  occ. eigenvalues --   -0.56142  -0.55187  -0.53520  -0.53293  -0.53042
 Alpha  occ. eigenvalues --   -0.52799  -0.50787  -0.48801  -0.48766  -0.48758
 Alpha  occ. eigenvalues --   -0.47522  -0.46726  -0.46655  -0.44769  -0.44680
 Alpha  occ. eigenvalues --   -0.37277  -0.36311
 Alpha virt. eigenvalues --    0.05097   0.11221   0.16557   0.19540   0.22453
 Alpha virt. eigenvalues --    0.22695   0.24782   0.25854   0.26662   0.28511
 Alpha virt. eigenvalues --    0.29692   0.30025   0.30766   0.31501   0.31857

 Mulliken charges:
               1
     1  C   -0.306019
     2  C   -0.299018
     3  C   -0.479151
     4  H    0.146989
     5  H    0.147218
     6  H    0.155256
     7  H    0.156070
     8  H    0.155535
     9  H    0.151841
    10  H    0.165142
    11  C   -0.298432
    12  C   -0.302693
    13  C   -0.476182
    14  H    0.153364
    15  H    0.153333
    16  H    0.152512
    17  H    0.146305
    18  H    0.157869
    19  H    0.157788
    20  H    0.162886
    21  C   -0.173783
    22  C   -0.225685
    23  C   -0.172638
    24  C    0.158713
    25  C   -0.171096
    26  C   -0.218668
    27  H    0.228491
    28  H    0.233044
    29  H    0.275263
    30  H    0.275431
    31  H    0.223402
    32  N    0.488074
    33  O   -0.460578
    34  O   -0.460585
 Sum of Mulliken charges =  -0.00000

 Dipole moment (field-independent basis, Debye):
    X=             -4.3020    Y=              2.6551    Z=              1.8357  Tot=              5.3783
 Quadrupole moment (field-independent basis, Debye-Ang):
   XX=           -117.2414   YY=            -93.0601   ZZ=            -94.6112
   XY=             10.9516   XZ=              6.0625   YZ=              0.7499

 Normal termination of Gaussian 16 at Thu May  6 20:34:27 2021.
