 Gaussian 16, Revision A.03,
 Gaussian 16:  EM64L-G16RevA.03 25-Dec-2016

 -------------
 #p 6-31g* mp2
 -------------

 ------------------------------------------------------
 Input file generated by CHIRIPA (05-May-2021 14:57:25)
 ------------------------------------------------------
 Symbolic Z-matrix:
 Charge =  0 Multiplicity = 1

                         Standard orientation:
 ---------------------------------------------------------------------
 Center     Atomic      Atomic             Coordinates (Angstroms)
 Number     Number       Type             X           Y           Z
 ---------------------------------------------------------------------
      1          6           0        2.023457   -2.665968    0.513315
      2          6           0        2.036404   -2.195425   -0.803858
      3          6           0        2.470133   -0.897505   -1.089917
      4          6           0        2.885943   -0.093516   -0.029732
      5          6           0        2.884693   -0.533452    1.293047
      6          6           0        2.446896   -1.834944    1.555726
      7          1           0        1.684946   -3.675611    0.726451
      8          1           0        1.708118   -2.838591   -1.615406
      9          1           0        2.490435   -0.507747   -2.100410
     10          1           0        3.217864    0.131058    2.080983
     11          1           0        2.437919   -2.197703    2.579625
     12          7           0        3.347266    1.282425   -0.320194
     13          8           0        3.708598    1.971009    0.631608
     14          8           0        3.338783    1.646249   -1.494160
     15          6           0       -1.788598    2.608931    0.273331
     16          6           0       -0.984464    1.525272   -0.094871
     17          6           0       -1.539582    0.252722   -0.259218
     18          6           0       -2.908649    0.099030   -0.046318
     19          6           0       -3.736107    1.159016    0.321149
     20          6           0       -3.159436    2.422673    0.479802
     21          1           0       -1.348997    3.594023    0.398787
     22          1           0        0.080449    1.666974   -0.255884
     23          1           0       -0.940237   -0.603584   -0.543721
     24          1           0       -4.794484    0.986690    0.474651
     25          1           0       -3.786368    3.262435    0.765809
     26          7           0       -3.507736   -1.243454   -0.217290
     27          8           0       -4.716572   -1.352625   -0.023812
     28          8           0       -2.757121   -2.161101   -0.541539
 ---------------------------------------------------------------------

 SCF Done:  E(RHF) =  -868.339698746     A.U. after   16 cycles
 E2 =    -0.2600512905D+01 EUMP2 =    -0.87094021165119D+03

 The electronic state is 1-A.
 Alpha  occ. eigenvalues --  -20.61585 -20.61577 -20.60926 -20.60897 -15.86627
 Alpha  occ. eigenvalues --  -15.85961 -11.31855 -11.31131 -11.28401 -11.28368
 Alpha  occ. eigenvalues --  -11.27988 -11.27690 -11.27644 -11.27335 -11.27294
 Alpha  occ. eigenvalues --  -11.27276 -11.26650 -11.26593  -1.60681  -1.59991
 Alpha  occ. eigenvalues --   -1.40226  -1.39551  -1.20004  -1.19281  -1.09394
 Alpha  occ. eigenvalues --   -1.08702  -1.05353  -1.04653  -0.96249  -0.95570
 Alpha  occ. eigenvalues --   -0.86732  -0.86055  -0.83066  -0.82415  -0.78161
 Alpha  occ. eigenvalues --   -0.77500  -0.72821  -0.72189  -0.72044  -0.71310
 Alpha  occ. eigenvalues --   -0.71007  -0.70361  -0.65611  -0.65285  -0.64928
 Alpha  occ. eigenvalues --   -0.64642  -0.62675  -0.62019  -0.55762  -0.55139
 Alpha  occ. eigenvalues --   -0.53688  -0.53388  -0.52994  -0.52739  -0.49598
 Alpha  occ. eigenvalues --   -0.49576  -0.48950  -0.48920  -0.45646  -0.45001
 Alpha  occ. eigenvalues --   -0.37929  -0.37238  -0.36972  -0.36251
 Alpha virt. eigenvalues --    0.04316   0.05028   0.10666   0.11405   0.15863
 Alpha virt. eigenvalues --    0.16575   0.20996   0.21440   0.26635   0.27047
 Alpha virt. eigenvalues --    0.28006   0.28432   0.30220   0.31225   0.32061

 Mulliken charges:
               1
     1  C   -0.167778
     2  C   -0.221430
     3  C   -0.179634
     4  C    0.150593
     5  C   -0.171559
     6  C   -0.218294
     7  H    0.234173
     8  H    0.231965
     9  H    0.277621
    10  H    0.276649
    11  H    0.227415
    12  N    0.486692
    13  O   -0.459161
    14  O   -0.460235
    15  C   -0.170945
    16  C   -0.220061
    17  C   -0.174796
    18  C    0.157640
    19  C   -0.171265
    20  C   -0.219094
    21  H    0.230594
    22  H    0.226746
    23  H    0.273585
    24  H    0.274590
    25  H    0.223651
    26  N    0.488341
    27  O   -0.460001
    28  O   -0.466003
 Sum of Mulliken charges =  -0.00000

 Dipole moment (field-independent basis, Debye):
    X=              0.6693    Y=             -0.2623    Z=              1.7166  Tot=              1.8610
 Quadrupole moment (field-independent basis, Debye-Ang):
   XX=           -123.3083   YY=           -102.3209   ZZ=           -100.5526
   XY=            -30.0882   XZ=              0.9715   YZ=              1.1651

 Normal termination of Gaussian 16 at Thu May  6 11:26:50 2021.
