 Gaussian 16, Revision A.03,
 Gaussian 16:  EM64L-G16RevA.03 25-Dec-2016

 -------------
 #p 6-31g* mp2
 -------------

 ------------------------------------------------------
 Input file generated by CHIRIPA (05-May-2021 14:51:11)
 ------------------------------------------------------
 Symbolic Z-matrix:
 Charge =  0 Multiplicity = 1

                         Standard orientation:
 ---------------------------------------------------------------------
 Center     Atomic      Atomic             Coordinates (Angstroms)
 Number     Number       Type             X           Y           Z
 ---------------------------------------------------------------------
      1          6           0        2.996169    0.170369    0.178040
      2          6           0        2.646642   -1.249342   -0.269436
      3          6           0        3.693075   -2.278616    0.158776
      4          1           0        3.975675    0.447521   -0.235120
      5          1           0        3.102152    0.187024    1.271606
      6          1           0        2.539990   -1.263017   -1.361706
      7          1           0        1.667767   -1.523075    0.144679
      8          1           0        3.794462   -2.294335    1.248764
      9          1           0        4.671640   -2.032800   -0.266180
     10          1           0        3.423327   -3.286614   -0.171430
     11          6           0        1.959526    1.210637   -0.242605
     12          6           0        2.309054    2.630348    0.204872
     13          6           0        1.262620    3.659622   -0.223341
     14          1           0        1.853544    1.193983   -1.336170
     15          1           0        0.980021    0.933486    0.170555
     16          1           0        3.287928    2.904081   -0.209244
     17          1           0        2.415706    2.644024    1.297142
     18          1           0        0.284056    3.413807    0.201616
     19          1           0        1.161234    3.675342   -1.313329
     20          1           0        1.532368    4.667620    0.106865
     21          6           0       -1.906481   -1.161663    0.219311
     22          6           0       -2.096872   -2.584541   -0.307146
     23          6           0       -0.945637   -3.515294    0.075150
     24          1           0       -0.961693   -0.757215   -0.168944
     25          1           0       -1.806958   -1.193134    1.313157
     26          1           0       -2.197391   -2.550258   -1.399546
     27          1           0       -3.041410   -2.985579    0.082252
     28          1           0       -0.847125   -3.579203    1.163641
     29          1           0        0.001689   -3.141408   -0.326577
     30          1           0       -1.102222   -4.527213   -0.311320
     31          6           0       -3.049215   -0.219342   -0.154746
     32          6           0       -2.858824    1.203534    0.371711
     33          6           0       -4.010059    2.134287   -0.010586
     34          1           0       -3.148738   -0.187872   -1.248592
     35          1           0       -3.994003   -0.623791    0.233509
     36          1           0       -1.914285    1.604572   -0.017688
     37          1           0       -2.758304    1.169251    1.464110
     38          1           0       -4.957384    1.760401    0.391142
     39          1           0       -4.108570    2.198196   -1.099076
     40          1           0       -3.853474    3.146207    0.375885
 ---------------------------------------------------------------------

 SCF Done:  E(RHF) =  -470.732843150     A.U. after   11 cycles
 E2 =    -0.1584696787D+01 EUMP2 =    -0.47231753993704D+03

 The electronic state is 1-A.
 Alpha  occ. eigenvalues --  -11.21622 -11.21614 -11.21600 -11.21585 -11.21413
 Alpha  occ. eigenvalues --  -11.21411 -11.21354 -11.21350 -11.21087 -11.21077
 Alpha  occ. eigenvalues --  -11.21067 -11.21037  -1.08479  -1.08409  -1.03576
 Alpha  occ. eigenvalues --   -1.03502  -0.96019  -0.95954  -0.87019  -0.86986
 Alpha  occ. eigenvalues --   -0.79714  -0.79508  -0.78468  -0.78075  -0.65235
 Alpha  occ. eigenvalues --   -0.64916  -0.61097  -0.60805  -0.59438  -0.59264
 Alpha  occ. eigenvalues --   -0.57764  -0.57463  -0.55370  -0.55166  -0.52686
 Alpha  occ. eigenvalues --   -0.52671  -0.52442  -0.52384  -0.50027  -0.49826
 Alpha  occ. eigenvalues --   -0.48192  -0.47739  -0.46837  -0.46557  -0.46342
 Alpha  occ. eigenvalues --   -0.45778  -0.45728  -0.44923  -0.43801  -0.43769
 Alpha virt. eigenvalues --    0.20766   0.22029   0.23422   0.24453   0.25280
 Alpha virt. eigenvalues --    0.25938   0.26806   0.27093   0.28418   0.29664
 Alpha virt. eigenvalues --    0.30832   0.31304   0.31700   0.31782   0.32134

 Mulliken charges:
               1
     1  C   -0.297252
     2  C   -0.308544
     3  C   -0.475963
     4  H    0.149654
     5  H    0.149585
     6  H    0.150728
     7  H    0.160882
     8  H    0.155399
     9  H    0.155242
    10  H    0.160817
    11  C   -0.305866
    12  C   -0.299156
    13  C   -0.479150
    14  H    0.148576
    15  H    0.157049
    16  H    0.152079
    17  H    0.152101
    18  H    0.158462
    19  H    0.154909
    20  H    0.160493
    21  C   -0.306871
    22  C   -0.299002
    23  C   -0.482171
    24  H    0.158269
    25  H    0.148429
    26  H    0.151897
    27  H    0.151885
    28  H    0.154402
    29  H    0.162632
    30  H    0.160211
    31  C   -0.297619
    32  C   -0.305518
    33  C   -0.475502
    34  H    0.149695
    35  H    0.149832
    36  H    0.156893
    37  H    0.151386
    38  H    0.155259
    39  H    0.155469
    40  H    0.160381
 Sum of Mulliken charges =  -0.00000

 Dipole moment (field-independent basis, Debye):
    X=              0.0049    Y=             -0.0000    Z=             -0.0000  Tot=              0.0049
 Quadrupole moment (field-independent basis, Debye-Ang):
   XX=            -85.3536   YY=            -86.0935   ZZ=            -83.3645
   XY=              1.3177   XZ=             -1.1038   YZ=              0.0345

 Normal termination of Gaussian 16 at Wed May  5 16:43:50 2021.
