 Gaussian 16, Revision A.03,
 Gaussian 16:  EM64L-G16RevA.03 25-Dec-2016

 -------------
 #p 6-31g* mp2
 -------------

 ------------------------------------------------------
 Input file generated by CHIRIPA (05-May-2021 14:51:11)
 ------------------------------------------------------
 Symbolic Z-matrix:
 Charge =  0 Multiplicity = 1

                         Standard orientation:
 ---------------------------------------------------------------------
 Center     Atomic      Atomic             Coordinates (Angstroms)
 Number     Number       Type             X           Y           Z
 ---------------------------------------------------------------------
      1          6           0        4.099356   -0.034319    0.137629
      2          6           0        5.010564   -0.821785   -0.804487
      3          6           0        6.330087   -0.103342   -1.088199
      4          1           0        3.894579    0.952236   -0.300230
      5          1           0        4.629699    0.147149    1.082721
      6          1           0        4.478153   -1.002912   -1.747009
      7          1           0        5.213040   -1.806653   -0.364424
      8          1           0        6.885141    0.063839   -0.159455
      9          1           0        6.146078    0.872147   -1.549895
     10          1           0        6.966106   -0.683853   -1.763733
     11          6           0        2.776368   -0.739637    0.430813
     12          6           0        1.865160    0.047829    1.372929
     13          6           0        0.545638   -0.670615    1.656641
     14          1           0        2.246025   -0.921106   -0.514279
     15          1           0        2.981145   -1.726192    0.868672
     16          1           0        1.662684    1.032697    0.932866
     17          1           0        2.397571    0.228956    2.315451
     18          1           0        0.729646   -1.646104    2.118337
     19          1           0       -0.009416   -0.837796    0.727897
     20          1           0       -0.090381   -0.090103    2.332175
     21          6           0       -4.084040    0.079843   -0.016725
     22          6           0       -4.541419   -1.149826   -0.802029
     23          6           0       -5.835479   -1.753003   -0.254872
     24          1           0       -3.944238   -0.197146    1.037161
     25          1           0       -4.880203    0.836855   -0.037983
     26          1           0       -3.744082   -1.903752   -0.780463
     27          1           0       -4.679964   -0.869924   -1.854206
     28          1           0       -6.647867   -1.020015   -0.291674
     29          1           0       -5.706667   -2.059717    0.788169
     30          1           0       -6.144238   -2.630859   -0.830978
     31          6           0       -2.791684    0.694113   -0.551716
     32          6           0       -2.334305    1.923783    0.233587
     33          6           0       -1.040246    2.526960   -0.313570
     34          1           0       -1.995521   -0.062899   -0.530460
     35          1           0       -2.931486    0.971102   -1.605603
     36          1           0       -2.195760    1.643880    1.285765
     37          1           0       -3.131643    2.677708    0.212021
     38          1           0       -1.169058    2.833674   -1.356611
     39          1           0       -0.227858    1.793971   -0.276768
     40          1           0       -0.731486    3.404815    0.262536
 ---------------------------------------------------------------------

 SCF Done:  E(RHF) =  -470.732594696     A.U. after   11 cycles
 E2 =    -0.1584046913D+01 EUMP2 =    -0.47231664160897D+03

 The electronic state is 1-A.
 Alpha  occ. eigenvalues --  -11.21622 -11.21610 -11.21579 -11.21571 -11.21429
 Alpha  occ. eigenvalues --  -11.21373 -11.21367 -11.21313 -11.21143 -11.21074
 Alpha  occ. eigenvalues --  -11.21050 -11.21038  -1.08471  -1.08393  -1.03605
 Alpha  occ. eigenvalues --   -1.03469  -0.96033  -0.95945  -0.87052  -0.86964
 Alpha  occ. eigenvalues --   -0.79649  -0.79553  -0.78268  -0.78225  -0.65274
 Alpha  occ. eigenvalues --   -0.64909  -0.61294  -0.60617  -0.59375  -0.59315
 Alpha  occ. eigenvalues --   -0.57645  -0.57559  -0.55374  -0.55163  -0.52711
 Alpha  occ. eigenvalues --   -0.52653  -0.52463  -0.52377  -0.50135  -0.49770
 Alpha  occ. eigenvalues --   -0.48025  -0.47848  -0.46712  -0.46520  -0.45886
 Alpha  occ. eigenvalues --   -0.45739  -0.45700  -0.45532  -0.43808  -0.43758
 Alpha virt. eigenvalues --    0.20120   0.22989   0.23750   0.25311   0.25680
 Alpha virt. eigenvalues --    0.26106   0.26573   0.27664   0.28494   0.29282
 Alpha virt. eigenvalues --    0.30358   0.31068   0.31489   0.31877   0.32414

 Mulliken charges:
               1
     1  C   -0.298394
     2  C   -0.299696
     3  C   -0.475749
     4  H    0.150102
     5  H    0.149609
     6  H    0.152036
     7  H    0.151897
     8  H    0.155177
     9  H    0.155340
    10  H    0.160284
    11  C   -0.298537
    12  C   -0.305381
    13  C   -0.481473
    14  H    0.149263
    15  H    0.149830
    16  H    0.157122
    17  H    0.152633
    18  H    0.155769
    19  H    0.158551
    20  H    0.161559
    21  C   -0.298143
    22  C   -0.299674
    23  C   -0.475707
    24  H    0.150098
    25  H    0.149371
    26  H    0.151907
    27  H    0.151745
    28  H    0.155092
    29  H    0.155326
    30  H    0.160155
    31  C   -0.302902
    32  C   -0.299597
    33  C   -0.482324
    34  H    0.153689
    35  H    0.149287
    36  H    0.153304
    37  H    0.151785
    38  H    0.154746
    39  H    0.162117
    40  H    0.159784
 Sum of Mulliken charges =  -0.00000

 Dipole moment (field-independent basis, Debye):
    X=              0.0234    Y=             -0.0066    Z=              0.0151  Tot=              0.0286
 Quadrupole moment (field-independent basis, Debye-Ang):
   XX=            -86.1844   YY=            -84.7234   ZZ=            -83.9123
   XY=             -1.3877   XZ=              1.2148   YZ=             -0.4763

 Normal termination of Gaussian 16 at Thu May  6 02:15:09 2021.
