 Gaussian 16, Revision A.03,
 Gaussian 16:  EM64L-G16RevA.03 25-Dec-2016

 -------------
 #p 6-31g* mp2
 -------------

 ------------------------------------------------------
 Input file generated by CHIRIPA (05-May-2021 14:55:19)
 ------------------------------------------------------
 Symbolic Z-matrix:
 Charge =  0 Multiplicity = 1

                         Standard orientation:
 ---------------------------------------------------------------------
 Center     Atomic      Atomic             Coordinates (Angstroms)
 Number     Number       Type             X           Y           Z
 ---------------------------------------------------------------------
      1          6           0        0.580591   -0.187573    1.174562
      2          6           0        1.082635    0.988537    0.607783
      3          6           0        2.363875    1.016783    0.049060
      4          6           0        3.119244   -0.154570    0.074363
      5          6           0        2.647031   -1.341882    0.631674
      6          6           0        1.363012   -1.346985    1.184681
      7          1           0       -0.415787   -0.200526    1.606372
      8          1           0        0.477232    1.890450    0.598517
      9          1           0        2.777235    1.913589   -0.396238
     10          1           0        3.274088   -2.225163    0.626076
     11          1           0        0.975706   -2.261803    1.624166
     12          7           0        4.477107   -0.136918   -0.514107
     13          8           0        5.122695   -1.182213   -0.479291
     14          8           0        4.870101    0.921878   -0.999023
     15          6           0       -4.122799   -0.389477    0.026677
     16          6           0       -3.960461   -1.644643   -0.831339
     17          6           0       -4.800179   -2.818462   -0.326544
     18          1           0       -3.843516   -0.622971    1.063223
     19          1           0       -5.183045   -0.101545    0.045922
     20          1           0       -2.900640   -1.929323   -0.850089
     21          1           0       -4.239980   -1.408084   -1.866000
     22          1           0       -5.863670   -2.558502   -0.324300
     23          1           0       -4.516721   -3.082703    0.697384
     24          1           0       -4.669020   -3.705251   -0.954448
     25          6           0       -3.289557    0.792625   -0.465331
     26          6           0       -3.451895    2.047790    0.392683
     27          6           0       -2.612178    3.221610   -0.112110
     28          1           0       -2.229312    0.504693   -0.484577
     29          1           0       -3.568840    1.026119   -1.501877
     30          1           0       -3.172376    1.811232    1.427346
     31          1           0       -4.511717    2.332470    0.411434
     32          1           0       -2.895636    3.485852   -1.136038
     33          1           0       -1.548686    2.961651   -0.114356
     34          1           0       -2.743335    4.108399    0.515793
 ---------------------------------------------------------------------

 SCF Done:  E(RHF) =  -669.535428321     A.U. after   15 cycles
 E2 =    -0.2092136857D+01 EUMP2 =    -0.67162756517765D+03

 The electronic state is 1-A.
 Alpha  occ. eigenvalues --  -20.60783 -20.60778 -15.85837 -11.31223 -11.27791
 Alpha  occ. eigenvalues --  -11.27784 -11.27542 -11.26812 -11.26797 -11.22628
 Alpha  occ. eigenvalues --  -11.22341 -11.22310 -11.22235 -11.22158 -11.21717
 Alpha  occ. eigenvalues --   -1.59858  -1.39411  -1.19396  -1.09341  -1.08788
 Alpha  occ. eigenvalues --   -1.04802  -1.04413  -0.96863  -0.95620  -0.87877
 Alpha  occ. eigenvalues --   -0.86201  -0.82450  -0.80472  -0.79126  -0.77495
 Alpha  occ. eigenvalues --   -0.72055  -0.71181  -0.70514  -0.66026  -0.65046
 Alpha  occ. eigenvalues --   -0.64803  -0.62231  -0.61741  -0.60218  -0.58455
 Alpha  occ. eigenvalues --   -0.56227  -0.55264  -0.53536  -0.53312  -0.53127
 Alpha  occ. eigenvalues --   -0.52863  -0.50803  -0.48837  -0.48808  -0.48751
 Alpha  occ. eigenvalues --   -0.47516  -0.46661  -0.46601  -0.44812  -0.44659
 Alpha  occ. eigenvalues --   -0.37365  -0.36396
 Alpha virt. eigenvalues --    0.05015   0.11146   0.16428   0.18283   0.22349
 Alpha virt. eigenvalues --    0.23727   0.25009   0.25481   0.26810   0.28206
 Alpha virt. eigenvalues --    0.29310   0.30842   0.30934   0.31400   0.31772

 Mulliken charges:
               1
     1  C   -0.174193
     2  C   -0.224701
     3  C   -0.172293
     4  C    0.158990
     5  C   -0.170870
     6  C   -0.219159
     7  H    0.227554
     8  H    0.233061
     9  H    0.276383
    10  H    0.275790
    11  H    0.223629
    12  N    0.488004
    13  O   -0.460357
    14  O   -0.460131
    15  C   -0.298482
    16  C   -0.300306
    17  C   -0.475964
    18  H    0.144223
    19  H    0.153096
    20  H    0.150890
    21  H    0.155253
    22  H    0.157162
    23  H    0.153315
    24  H    0.162846
    25  C   -0.303348
    26  C   -0.301016
    27  C   -0.479014
    28  H    0.147870
    29  H    0.154631
    30  H    0.146818
    31  H    0.157308
    32  H    0.161521
    33  H    0.147193
    34  H    0.164299
 Sum of Mulliken charges =  -0.00000

 Dipole moment (field-independent basis, Debye):
    X=             -4.9476    Y=             -0.0529    Z=              1.9763  Tot=              5.3280
 Quadrupole moment (field-independent basis, Debye-Ang):
   XX=           -124.0307   YY=            -90.5923   ZZ=            -94.6354
   XY=             -1.0134   XZ=              7.2586   YZ=             -1.6897

 Normal termination of Gaussian 16 at Wed May  5 22:07:57 2021.
