 Gaussian 16, Revision A.03,
 Gaussian 16:  EM64L-G16RevA.03 25-Dec-2016

 -------------
 #p 6-31g* mp2
 -------------

 ------------------------------------------------------
 Input file generated by CHIRIPA (05-May-2021 14:57:21)
 ------------------------------------------------------
 Symbolic Z-matrix:
 Charge =  0 Multiplicity = 1

                         Standard orientation:
 ---------------------------------------------------------------------
 Center     Atomic      Atomic             Coordinates (Angstroms)
 Number     Number       Type             X           Y           Z
 ---------------------------------------------------------------------
      1          6           0       -3.109025    2.240617    0.393467
      2          6           0       -3.585012    1.192175    1.187651
      3          6           0       -3.202850   -0.126897    0.925830
      4          6           0       -2.339475   -0.362517   -0.142981
      5          6           0       -1.848221    0.660624   -0.952389
      6          6           0       -2.243675    1.971969   -0.672140
      7          1           0       -3.411060    3.262302    0.604014
      8          1           0       -4.257166    1.397847    2.015874
      9          1           0       -3.556328   -0.957489    1.524651
     10          1           0       -1.179359    0.424374   -1.771063
     11          1           0       -1.872443    2.784219   -1.290591
     12          7           0       -1.927862   -1.754869   -0.429914
     13          8           0       -1.166237   -1.936088   -1.377397
     14          8           0       -2.374658   -2.638611    0.298104
     15          6           0        2.422680   -2.357682    0.498165
     16          6           0        2.201955   -1.858028   -0.789525
     17          6           0        2.191296   -0.479852   -1.024183
     18          6           0        2.405829    0.373834    0.056782
     19          6           0        2.628510   -0.093322    1.351180
     20          6           0        2.634879   -1.475290    1.562531
     21          1           0        2.429294   -3.429756    0.671401
     22          1           0        2.036870   -2.540950   -1.618023
     23          1           0        2.022859   -0.065980   -2.010976
     24          1           0        2.790040    0.612265    2.157080
     25          1           0        2.806554   -1.860493    2.563627
     26          7           0        2.396815    1.834855   -0.179304
     27          8           0        2.588381    2.566003    0.789904
     28          8           0        2.198355    2.221192   -1.329085
 ---------------------------------------------------------------------

 SCF Done:  E(RHF) =  -868.340532533     A.U. after   16 cycles
 E2 =    -0.2600825371D+01 EUMP2 =    -0.87094135790448D+03

 The electronic state is 1-A.
 Alpha  occ. eigenvalues --  -20.61073 -20.61054 -20.60766 -20.60734 -15.86081
 Alpha  occ. eigenvalues --  -15.85786 -11.31156 -11.30799 -11.27700 -11.27642
 Alpha  occ. eigenvalues --  -11.27328 -11.27298 -11.27237 -11.26853 -11.26659
 Alpha  occ. eigenvalues --  -11.26534 -11.26273 -11.26092  -1.60124  -1.59832
 Alpha  occ. eigenvalues --   -1.39691  -1.39397  -1.19286  -1.18898  -1.08731
 Alpha  occ. eigenvalues --   -1.08345  -1.04635  -1.04224  -0.95625  -0.95251
 Alpha  occ. eigenvalues --   -0.86048  -0.85638  -0.82477  -0.82083  -0.77565
 Alpha  occ. eigenvalues --   -0.77187  -0.72343  -0.72014  -0.71431  -0.71146
 Alpha  occ. eigenvalues --   -0.70387  -0.69976  -0.64938  -0.64622  -0.64531
 Alpha  occ. eigenvalues --   -0.64197  -0.61989  -0.61581  -0.55139  -0.54706
 Alpha  occ. eigenvalues --   -0.52992  -0.52733  -0.52571  -0.52296  -0.49106
 Alpha  occ. eigenvalues --   -0.49053  -0.48789  -0.48730  -0.45173  -0.44881
 Alpha  occ. eigenvalues --   -0.37277  -0.36824  -0.36204  -0.35727
 Alpha virt. eigenvalues --    0.04891   0.05334   0.11293   0.11946   0.16414
 Alpha virt. eigenvalues --    0.17045   0.21335   0.22167   0.26705   0.27899
 Alpha virt. eigenvalues --    0.28466   0.29272   0.31148   0.31592   0.32097

 Mulliken charges:
               1
     1  C   -0.169670
     2  C   -0.218567
     3  C   -0.172082
     4  C    0.158874
     5  C   -0.172753
     6  C   -0.217638
     7  H    0.228007
     8  H    0.223073
     9  H    0.273443
    10  H    0.274127
    11  H    0.232943
    12  N    0.489755
    13  O   -0.466811
    14  O   -0.462193
    15  C   -0.171897
    16  C   -0.201290
    17  C   -0.175091
    18  C    0.156326
    19  C   -0.174255
    20  C   -0.218870
    21  H    0.228784
    22  H    0.232308
    23  H    0.270765
    24  H    0.271991
    25  H    0.221973
    26  N    0.488476
    27  O   -0.461810
    28  O   -0.467916
 Sum of Mulliken charges =  -0.00000

 Dipole moment (field-independent basis, Debye):
    X=             -1.5040    Y=             -0.3667    Z=              1.7732  Tot=              2.3538
 Quadrupole moment (field-independent basis, Debye-Ang):
   XX=            -97.7939   YY=           -112.1219   ZZ=            -97.8295
   XY=            -23.4836   XZ=             -1.8007   YZ=             -1.4667

 Normal termination of Gaussian 16 at Thu May  6 06:30:30 2021.
