 Gaussian 16, Revision A.03,
 Gaussian 16:  EM64L-G16RevA.03 25-Dec-2016

 -------------
 #p 6-31g* mp2
 -------------

 ------------------------------------------------------
 Input file generated by CHIRIPA (05-May-2021 14:57:23)
 ------------------------------------------------------
 Symbolic Z-matrix:
 Charge =  0 Multiplicity = 1

                         Standard orientation:
 ---------------------------------------------------------------------
 Center     Atomic      Atomic             Coordinates (Angstroms)
 Number     Number       Type             X           Y           Z
 ---------------------------------------------------------------------
      1          6           0       -3.443644    2.541567   -0.078434
      2          6           0       -4.551189    1.818285   -0.533107
      3          6           0       -4.587321    0.425769   -0.414192
      4          6           0       -3.493684   -0.214066    0.167065
      5          6           0       -2.375850    0.478602    0.629609
      6          6           0       -2.361417    1.870600    0.500452
      7          1           0       -3.424004    3.623106   -0.174788
      8          1           0       -5.393084    2.336715   -0.983094
      9          1           0       -5.432075   -0.158839   -0.757765
     10          1           0       -1.551604   -0.066132    1.073795
     11          1           0       -1.499955    2.429725    0.854440
     12          7           0       -3.520449   -1.687987    0.298376
     13          8           0       -2.544293   -2.228096    0.814165
     14          8           0       -4.517077   -2.275227   -0.116978
     15          6           0        5.959089    0.166928    0.331654
     16          6           0        5.133648    1.290787    0.441700
     17          6           0        3.763770    1.193982    0.179760
     18          6           0        3.250500   -0.047781   -0.191545
     19          6           0        4.046984   -1.185720   -0.309854
     20          6           0        5.414083   -1.065565   -0.043112
     21          1           0        7.022163    0.251198    0.537000
     22          1           0        5.554156    2.249234    0.732555
     23          1           0        3.101869    2.047967    0.257307
     24          1           0        3.598824   -2.127699   -0.601823
     25          1           0        6.052734   -1.940053   -0.129377
     26          7           0        1.801744   -0.162623   -0.471391
     27          8           0        1.374014   -1.267972   -0.796798
     28          8           0        1.121368    0.854886   -0.360027
 ---------------------------------------------------------------------

 SCF Done:  E(RHF) =  -868.338884139     A.U. after   16 cycles
 E2 =    -0.2599496987D+01 EUMP2 =    -0.87093838112610D+03

 The electronic state is 1-A.
 Alpha  occ. eigenvalues --  -20.61289 -20.61182 -20.59527 -20.59481 -15.86263
 Alpha  occ. eigenvalues --  -15.84554 -11.31497 -11.29794 -11.28091 -11.28007
 Alpha  occ. eigenvalues --  -11.27766 -11.27055 -11.27004 -11.26462 -11.26241
 Alpha  occ. eigenvalues --  -11.26190 -11.25496 -11.25286  -1.60298  -1.58581
 Alpha  occ. eigenvalues --   -1.39855  -1.38136  -1.19656  -1.17983  -1.09075
 Alpha  occ. eigenvalues --   -1.07428  -1.05039  -1.03351  -0.95932  -0.94270
 Alpha  occ. eigenvalues --   -0.86443  -0.84783  -0.82771  -0.81091  -0.77835
 Alpha  occ. eigenvalues --   -0.76135  -0.72479  -0.71611  -0.70786  -0.70764
 Alpha  occ. eigenvalues --   -0.69894  -0.69139  -0.65312  -0.65041  -0.63644
 Alpha  occ. eigenvalues --   -0.63384  -0.62389  -0.60698  -0.55544  -0.53953
 Alpha  occ. eigenvalues --   -0.53374  -0.53130  -0.51721  -0.51463  -0.49250
 Alpha  occ. eigenvalues --   -0.49203  -0.47548  -0.47525  -0.45284  -0.43565
 Alpha  occ. eigenvalues --   -0.37627  -0.36635  -0.36017  -0.34907
 Alpha virt. eigenvalues --    0.04672   0.06392   0.11021   0.12706   0.16187
 Alpha virt. eigenvalues --    0.17870   0.21152   0.22703   0.27077   0.27909
 Alpha virt. eigenvalues --    0.28724   0.29549   0.30788   0.31996   0.32427

 Mulliken charges:
               1
     1  C   -0.172643
     2  C   -0.219709
     3  C   -0.172686
     4  C    0.155555
     5  C   -0.157436
     6  C   -0.213465
     7  H    0.219640
     8  H    0.217591
     9  H    0.271095
    10  H    0.279975
    11  H    0.224879
    12  N    0.488481
    13  O   -0.457359
    14  O   -0.466921
    15  C   -0.170225
    16  C   -0.218402
    17  C   -0.171013
    18  C    0.158291
    19  C   -0.169927
    20  C   -0.218507
    21  H    0.226780
    22  H    0.223415
    23  H    0.271704
    24  H    0.279064
    25  H    0.225500
    26  N    0.488905
    27  O   -0.448948
    28  O   -0.473635
 Sum of Mulliken charges =  -0.00000

 Dipole moment (field-independent basis, Debye):
    X=              5.7574    Y=              5.3840    Z=              0.5245  Tot=              7.9000
 Quadrupole moment (field-independent basis, Debye-Ang):
   XX=            -70.1623   YY=           -103.3462   ZZ=           -105.8502
   XY=            -17.8555   XZ=              5.8888   YZ=              2.1710

 Normal termination of Gaussian 16 at Thu May  6 22:41:38 2021.
