 Gaussian 16, Revision A.03,
 Gaussian 16:  EM64L-G16RevA.03 25-Dec-2016

 -------------
 #p 6-31g* mp2
 -------------

 ------------------------------------------------------
 Input file generated by CHIRIPA (05-May-2021 14:53:16)
 ------------------------------------------------------
 Symbolic Z-matrix:
 Charge =  0 Multiplicity = 1

                         Standard orientation:
 ---------------------------------------------------------------------
 Center     Atomic      Atomic             Coordinates (Angstroms)
 Number     Number       Type             X           Y           Z
 ---------------------------------------------------------------------
      1          6           0       -4.503623    0.172025    0.261851
      2          6           0       -3.368683   -0.841930    0.409467
      3          6           0       -2.031171   -0.186114    0.754086
      4          1           0       -4.238281    0.898864   -0.518048
      5          1           0       -4.602806    0.739677    1.197441
      6          1           0       -3.272580   -1.408449   -0.525646
      7          1           0       -3.636841   -1.566553    1.188973
      8          1           0       -2.103711    0.364056    1.697830
      9          1           0       -1.737380    0.523058   -0.026531
     10          1           0       -1.233907   -0.929119    0.854949
     11          6           0       -5.847118   -0.468359   -0.082616
     12          6           0       -6.982059    0.545596   -0.230232
     13          6           0       -8.319570   -0.110221   -0.574851
     14          1           0       -5.747936   -1.036012   -1.018206
     15          1           0       -6.112461   -1.195198    0.697284
     16          1           0       -6.713900    1.270218   -1.009737
     17          1           0       -7.078162    1.112115    0.704881
     18          1           0       -8.613362   -0.819392    0.205766
     19          1           0       -8.247031   -0.660391   -1.518595
     20          1           0       -9.116835    0.632785   -0.675713
     21          6           0        1.732626    1.122901    0.042041
     22          6           0        1.889558   -0.266522    0.004657
     23          6           0        3.165048   -0.835565   -0.057493
     24          6           0        4.266642    0.018389   -0.080847
     25          6           0        4.142896    1.406436   -0.044777
     26          6           0        2.857811    1.953482    0.017248
     27          1           0        0.738068    1.556404    0.090272
     28          1           0        1.017524   -0.914005    0.023787
     29          1           0        3.315315   -1.907917   -0.087472
     30          1           0        5.031146    2.026126   -0.065161
     31          1           0        2.738951    3.032870    0.046172
     32          7           0        5.622025   -0.572388   -0.146577
     33          8           0        6.576520    0.201689   -0.166043
     34          8           0        5.704214   -1.798329   -0.177385
 ---------------------------------------------------------------------

 SCF Done:  E(RHF) =  -669.535343303     A.U. after   15 cycles
 E2 =    -0.2091233551D+01 EUMP2 =    -0.67162657685355D+03

 The electronic state is 1-A.
 Alpha  occ. eigenvalues --  -20.60690 -20.60685 -15.85743 -11.31084 -11.27657
 Alpha  occ. eigenvalues --  -11.27644 -11.27353 -11.26661 -11.26609 -11.22617
 Alpha  occ. eigenvalues --  -11.22492 -11.22202 -11.22138 -11.22007 -11.21510
 Alpha  occ. eigenvalues --   -1.59766  -1.39321  -1.19252  -1.09205  -1.08646
 Alpha  occ. eigenvalues --   -1.04656  -1.04353  -0.96839  -0.95485  -0.87872
 Alpha  occ. eigenvalues --   -0.86045  -0.82323  -0.80436  -0.78966  -0.77378
 Alpha  occ. eigenvalues --   -0.71961  -0.71089  -0.70353  -0.65829  -0.64901
 Alpha  occ. eigenvalues --   -0.64694  -0.62059  -0.61732  -0.60210  -0.58423
 Alpha  occ. eigenvalues --   -0.56128  -0.55146  -0.53618  -0.53257  -0.52980
 Alpha  occ. eigenvalues --   -0.52647  -0.50762  -0.48773  -0.48718  -0.48678
 Alpha  occ. eigenvalues --   -0.47434  -0.46522  -0.46409  -0.44731  -0.44587
 Alpha  occ. eigenvalues --   -0.37223  -0.36260
 Alpha virt. eigenvalues --    0.05157   0.11370   0.16651   0.19907   0.22331
 Alpha virt. eigenvalues --    0.23768   0.25219   0.25944   0.26104   0.27312
 Alpha virt. eigenvalues --    0.29076   0.29397   0.30896   0.31633   0.32095

 Mulliken charges:
               1
     1  C   -0.299460
     2  C   -0.299557
     3  C   -0.483529
     4  H    0.149484
     5  H    0.150803
     6  H    0.154179
     7  H    0.156260
     8  H    0.160751
     9  H    0.150175
    10  H    0.158017
    11  C   -0.298999
    12  C   -0.300173
    13  C   -0.476130
    14  H    0.150740
    15  H    0.151213
    16  H    0.152206
    17  H    0.152540
    18  H    0.156055
    19  H    0.155946
    20  H    0.161697
    21  C   -0.175090
    22  C   -0.222849
    23  C   -0.171897
    24  C    0.158558
    25  C   -0.171108
    26  C   -0.218954
    27  H    0.230406
    28  H    0.228726
    29  H    0.275348
    30  H    0.275120
    31  H    0.223023
    32  N    0.488022
    33  O   -0.460779
    34  O   -0.460743
 Sum of Mulliken charges =  -0.00000

 Dipole moment (field-independent basis, Debye):
    X=             -5.0922    Y=              2.0655    Z=              0.2614  Tot=              5.5014
 Quadrupole moment (field-independent basis, Debye-Ang):
   XX=           -135.3960   YY=            -90.6585   ZZ=            -94.7153
   XY=             10.7630   XZ=              0.8511   YZ=             -0.3103

 Normal termination of Gaussian 16 at Thu May  6 02:45:34 2021.
