 Gaussian 16, Revision A.03,
 Gaussian 16:  EM64L-G16RevA.03 25-Dec-2016

 -------------
 #p 6-31g* mp2
 -------------

 ------------------------------------------------------
 Input file generated by CHIRIPA (05-May-2021 14:55:22)
 ------------------------------------------------------
 Symbolic Z-matrix:
 Charge =  0 Multiplicity = 1

                         Standard orientation:
 ---------------------------------------------------------------------
 Center     Atomic      Atomic             Coordinates (Angstroms)
 Number     Number       Type             X           Y           Z
 ---------------------------------------------------------------------
      1          6           0       -2.983328   -2.013520   -1.285279
      2          6           0       -1.938538   -1.771365   -0.387339
      3          6           0       -1.840133   -0.542975    0.272904
      4          6           0       -2.808182    0.425130    0.010329
      5          6           0       -3.860923    0.214010   -0.878746
      6          6           0       -3.939500   -1.021808   -1.527690
      7          1           0       -3.052070   -2.970648   -1.793783
      8          1           0       -1.194539   -2.539696   -0.197133
      9          1           0       -1.041696   -0.328908    0.972970
     10          1           0       -4.587580    0.999375   -1.047832
     11          1           0       -4.751988   -1.207080   -2.224527
     12          7           0       -2.714500    1.729503    0.703318
     13          8           0       -3.580015    2.565979    0.454664
     14          8           0       -1.777332    1.890697    1.482015
     15          6           0        3.842684    0.437311   -0.046954
     16          6           0        5.053968    0.463658   -0.979738
     17          6           0        5.499127    1.883703   -1.330593
     18          1           0        3.011352    0.977225   -0.520584
     19          1           0        4.086170    0.984403    0.874349
     20          1           0        4.808739   -0.084504   -1.898431
     21          1           0        5.882453   -0.076547   -0.503914
     22          1           0        5.770433    2.437019   -0.425698
     23          1           0        4.690619    2.429015   -1.828137
     24          1           0        6.366330    1.879148   -1.998274
     25          6           0        3.385786   -0.975303    0.312898
     26          6           0        2.174503   -1.001651    1.245681
     27          6           0        1.729344   -2.421696    1.596536
     28          1           0        3.142302   -1.522395   -0.608406
     29          1           0        4.217119   -1.515217    0.786528
     30          1           0        1.346017   -0.461446    0.769858
     31          1           0        2.419732   -0.453488    2.164374
     32          1           0        2.537852   -2.967007    2.094081
     33          1           0        1.458038   -2.975011    0.691641
     34          1           0        0.862141   -2.417140    2.264217
 ---------------------------------------------------------------------

 SCF Done:  E(RHF) =  -669.535465071     A.U. after   15 cycles
 E2 =    -0.2091860433D+01 EUMP2 =    -0.67162732550455D+03

 The electronic state is 1-A.
 Alpha  occ. eigenvalues --  -20.60746 -20.60741 -15.85797 -11.31156 -11.27731
 Alpha  occ. eigenvalues --  -11.27689 -11.27468 -11.26751 -11.26712 -11.22124
 Alpha  occ. eigenvalues --  -11.21871 -11.21730 -11.21693 -11.21487 -11.21071
 Alpha  occ. eigenvalues --   -1.59821  -1.39375  -1.19330  -1.08729  -1.08718
 Alpha  occ. eigenvalues --   -1.04734  -1.03870  -0.96327  -0.95562  -0.87340
 Alpha  occ. eigenvalues --   -0.86130  -0.82392  -0.79942  -0.78483  -0.77440
 Alpha  occ. eigenvalues --   -0.72016  -0.71145  -0.70451  -0.65375  -0.64975
 Alpha  occ. eigenvalues --   -0.64736  -0.62197  -0.61174  -0.59701  -0.57912
 Alpha  occ. eigenvalues --   -0.55632  -0.55209  -0.53070  -0.53035  -0.52848
 Alpha  occ. eigenvalues --   -0.52731  -0.50248  -0.48775  -0.48772  -0.48241
 Alpha  occ. eigenvalues --   -0.46958  -0.46026  -0.45925  -0.44780  -0.44096
 Alpha  occ. eigenvalues --   -0.37315  -0.36329
 Alpha virt. eigenvalues --    0.05061   0.11285   0.16549   0.19419   0.22934
 Alpha virt. eigenvalues --    0.23795   0.25865   0.26095   0.26905   0.28259
 Alpha virt. eigenvalues --    0.29376   0.30026   0.31396   0.31644   0.32352

 Mulliken charges:
               1
     1  C   -0.171171
     2  C   -0.223569
     3  C   -0.179438
     4  C    0.159516
     5  C   -0.170801
     6  C   -0.218516
     7  H    0.225596
     8  H    0.228328
     9  H    0.284045
    10  H    0.275450
    11  H    0.223303
    12  N    0.487557
    13  O   -0.460574
    14  O   -0.460329
    15  C   -0.299372
    16  C   -0.299960
    17  C   -0.476008
    18  H    0.152950
    19  H    0.152689
    20  H    0.150766
    21  H    0.151648
    22  H    0.156668
    23  H    0.156733
    24  H    0.160100
    25  C   -0.297886
    26  C   -0.305312
    27  C   -0.481345
    28  H    0.147398
    29  H    0.150865
    30  H    0.150728
    31  H    0.160137
    32  H    0.161740
    33  H    0.148804
    34  H    0.159259
 Sum of Mulliken charges =  -0.00000

 Dipole moment (field-independent basis, Debye):
    X=             -0.1771    Y=             -4.5273    Z=             -2.3945  Tot=              5.1246
 Quadrupole moment (field-independent basis, Debye-Ang):
   XX=            -89.0565   YY=            -99.8168   ZZ=            -93.6597
   XY=             11.1389   XZ=             10.1530   YZ=             -1.5702

 Normal termination of Gaussian 16 at Wed May  5 20:37:52 2021.
