 Gaussian 16, Revision A.03,
 Gaussian 16:  EM64L-G16RevA.03 25-Dec-2016

 -------------
 #p 6-31g* mp2
 -------------

 ------------------------------------------------------
 Input file generated by CHIRIPA (05-May-2021 14:51:10)
 ------------------------------------------------------
 Symbolic Z-matrix:
 Charge =  0 Multiplicity = 1

                         Standard orientation:
 ---------------------------------------------------------------------
 Center     Atomic      Atomic             Coordinates (Angstroms)
 Number     Number       Type             X           Y           Z
 ---------------------------------------------------------------------
      1          6           0        2.173035   -1.433962    0.334173
      2          6           0        0.995180   -1.294640    1.299178
      3          6           0        0.383245   -2.642096    1.683486
      4          1           0        1.836948   -1.957296   -0.571428
      5          1           0        2.942333   -2.069050    0.794865
      6          1           0        0.228928   -0.658871    0.837365
      7          1           0        1.334064   -0.771407    2.202506
      8          1           0        1.129657   -3.280127    2.167620
      9          1           0        0.018242   -3.166952    0.794722
     10          1           0       -0.457052   -2.519126    2.373876
     11          6           0        2.795410   -0.095479   -0.059326
     12          6           0        3.973264   -0.234801   -1.024331
     13          6           0        4.585199    1.112655   -1.408638
     14          1           0        2.026111    0.539609   -0.520018
     15          1           0        3.131496    0.427855    0.846275
     16          1           0        3.634380   -0.758034   -1.927659
     17          1           0        4.739516   -0.870570   -0.562518
     18          1           0        4.950202    1.637511   -0.519875
     19          1           0        3.838787    1.750686   -1.892773
     20          1           0        5.425496    0.989685   -2.099029
     21          6           0       -2.324387    1.229233    0.447480
     22          6           0       -1.114326    2.128979    0.194113
     23          6           0       -0.807133    3.052514    1.373312
     24          1           0       -3.200761    1.855976    0.662203
     25          1           0       -2.142511    0.627003    1.348388
     26          1           0       -1.297853    2.728332   -0.706835
     27          1           0       -0.240773    1.500025   -0.020219
     28          1           0       -0.598050    2.468722    2.275572
     29          1           0       -1.661137    3.704008    1.585053
     30          1           0        0.061478    3.686832    1.170792
     31          6           0       -2.644057    0.300209   -0.722328
     32          6           0       -3.854118   -0.599538   -0.468961
     33          6           0       -4.161312   -1.523073   -1.648159
     34          1           0       -2.825935    0.902438   -1.623236
     35          1           0       -1.767684   -0.326535   -0.937049
     36          1           0       -4.727671    0.029416   -0.254628
     37          1           0       -3.670592   -1.198891    0.431989
     38          1           0       -3.307308   -2.174568   -1.859900
     39          1           0       -4.370394   -0.939281   -2.550419
     40          1           0       -5.029923   -2.157391   -1.445639
 ---------------------------------------------------------------------

 SCF Done:  E(RHF) =  -470.732655418     A.U. after   11 cycles
 E2 =    -0.1584772694D+01 EUMP2 =    -0.47231742811183D+03

 The electronic state is 1-A.
 Alpha  occ. eigenvalues --  -11.21643 -11.21632 -11.21618 -11.21568 -11.21456
 Alpha  occ. eigenvalues --  -11.21431 -11.21395 -11.21363 -11.21146 -11.21089
 Alpha  occ. eigenvalues --  -11.21088 -11.21043  -1.08526  -1.08414  -1.03589
 Alpha  occ. eigenvalues --   -1.03523  -0.96035  -0.95978  -0.87047  -0.86998
 Alpha  occ. eigenvalues --   -0.79653  -0.79608  -0.78392  -0.78184  -0.65453
 Alpha  occ. eigenvalues --   -0.64812  -0.61040  -0.60870  -0.59387  -0.59351
 Alpha  occ. eigenvalues --   -0.57661  -0.57579  -0.55379  -0.55209  -0.52726
 Alpha  occ. eigenvalues --   -0.52671  -0.52453  -0.52408  -0.49990  -0.49926
 Alpha  occ. eigenvalues --   -0.48003  -0.47918  -0.46818  -0.46679  -0.46162
 Alpha  occ. eigenvalues --   -0.45811  -0.45746  -0.45111  -0.43832  -0.43787
 Alpha virt. eigenvalues --    0.19872   0.22908   0.23568   0.24784   0.25229
 Alpha virt. eigenvalues --    0.26469   0.26909   0.27846   0.28588   0.29541
 Alpha virt. eigenvalues --    0.30983   0.31439   0.31713   0.31809   0.32065

 Mulliken charges:
               1
     1  C   -0.297915
     2  C   -0.310629
     3  C   -0.475366
     4  H    0.149166
     5  H    0.149934
     6  H    0.163133
     7  H    0.151942
     8  H    0.155760
     9  H    0.154897
    10  H    0.159857
    11  C   -0.304436
    12  C   -0.299294
    13  C   -0.475834
    14  H    0.154960
    15  H    0.149953
    16  H    0.152008
    17  H    0.152121
    18  H    0.155251
    19  H    0.155432
    20  H    0.160375
    21  C   -0.300087
    22  C   -0.309154
    23  C   -0.475224
    24  H    0.150612
    25  H    0.150745
    26  H    0.151763
    27  H    0.160050
    28  H    0.155664
    29  H    0.154955
    30  H    0.160322
    31  C   -0.300382
    32  C   -0.299597
    33  C   -0.475663
    34  H    0.149790
    35  H    0.149816
    36  H    0.152100
    37  H    0.152463
    38  H    0.154922
    39  H    0.155132
    40  H    0.160459
 Sum of Mulliken charges =  -0.00000

 Dipole moment (field-independent basis, Debye):
    X=              0.0131    Y=              0.0029    Z=              0.0045  Tot=              0.0142
 Quadrupole moment (field-independent basis, Debye-Ang):
   XX=            -84.3522   YY=            -85.6465   ZZ=            -84.7213
   XY=             -1.2072   XZ=              0.6901   YZ=             -0.5562

 Normal termination of Gaussian 16 at Wed May  5 23:03:36 2021.
