 Gaussian 16, Revision A.03,
 Gaussian 16:  EM64L-G16RevA.03 25-Dec-2016

 -------------
 #p 6-31g* mp2
 -------------

 ------------------------------------------------------
 Input file generated by CHIRIPA (05-May-2021 14:57:25)
 ------------------------------------------------------
 Symbolic Z-matrix:
 Charge =  0 Multiplicity = 1

                         Standard orientation:
 ---------------------------------------------------------------------
 Center     Atomic      Atomic             Coordinates (Angstroms)
 Number     Number       Type             X           Y           Z
 ---------------------------------------------------------------------
      1          6           0        1.620226    1.696624   -0.402814
      2          6           0        2.902898    2.135536   -0.058388
      3          6           0        3.949085    1.220852    0.094568
      4          6           0        3.675940   -0.131447   -0.105353
      5          6           0        2.408742   -0.599771   -0.449114
      6          6           0        1.377669    0.332776   -0.596735
      7          1           0        0.813393    2.414111   -0.519562
      8          1           0        3.094182    3.194113    0.092835
      9          1           0        4.951581    1.533266    0.360681
     10          1           0        2.248739   -1.661384   -0.593318
     11          1           0        0.382524   -0.010958   -0.864276
     12          7           0        4.775491   -1.109237    0.053751
     13          8           0        4.508949   -2.295237   -0.127903
     14          8           0        5.883041   -0.671115    0.357098
     15          6           0       -2.426163    2.246022    0.344129
     16          6           0       -3.702203    2.121326   -0.215062
     17          6           0       -4.303982    0.865400   -0.337791
     18          6           0       -3.598025   -0.249714    0.111027
     19          6           0       -2.325407   -0.157998    0.672562
     20          6           0       -1.743042    1.107969    0.785379
     21          1           0       -1.966227    3.225555    0.435618
     22          1           0       -4.235068    3.003417   -0.558593
     23          1           0       -5.290730    0.740166   -0.766815
     24          1           0       -1.818923   -1.055593    1.006055
     25          1           0       -0.751935    1.201801    1.220061
     26          7           0       -4.224825   -1.584620   -0.013654
     27          8           0       -3.582021   -2.551603    0.389317
     28          8           0       -5.347045   -1.638661   -0.511988
 ---------------------------------------------------------------------

 SCF Done:  E(RHF) =  -868.335585152     A.U. after   16 cycles
 E2 =    -0.2602984525D+01 EUMP2 =    -0.87093856967623D+03

 The electronic state is 1-A.
 Alpha  occ. eigenvalues --  -20.61483 -20.61477 -20.61184 -20.61173 -15.86541
 Alpha  occ. eigenvalues --  -15.86237 -11.32129 -11.31782 -11.28695 -11.28646
 Alpha  occ. eigenvalues --  -11.28501 -11.28353 -11.28314 -11.28187 -11.27736
 Alpha  occ. eigenvalues --  -11.27703 -11.27455 -11.27339  -1.60554  -1.60253
 Alpha  occ. eigenvalues --   -1.40101  -1.39800  -1.20318  -1.19974  -1.09693
 Alpha  occ. eigenvalues --   -1.09356  -1.05757  -1.05365  -0.96478  -0.96162
 Alpha  occ. eigenvalues --   -0.87172  -0.86750  -0.83292  -0.82967  -0.78329
 Alpha  occ. eigenvalues --   -0.77942  -0.72753  -0.72453  -0.71883  -0.71578
 Alpha  occ. eigenvalues --   -0.71480  -0.71098  -0.65972  -0.65908  -0.65557
 Alpha  occ. eigenvalues --   -0.65273  -0.63098  -0.62624  -0.56259  -0.55946
 Alpha  occ. eigenvalues --   -0.54176  -0.54012  -0.53477  -0.53352  -0.49527
 Alpha  occ. eigenvalues --   -0.49497  -0.49226  -0.49196  -0.45457  -0.45165
 Alpha  occ. eigenvalues --   -0.38374  -0.38024  -0.37354  -0.36871
 Alpha virt. eigenvalues --    0.04166   0.04499   0.10046   0.10705   0.15549
 Alpha virt. eigenvalues --    0.15892   0.19638   0.21721   0.25381   0.26476
 Alpha virt. eigenvalues --    0.27388   0.28861   0.30253   0.31156   0.32166

 Mulliken charges:
               1
     1  C   -0.180517
     2  C   -0.218021
     3  C   -0.170540
     4  C    0.159764
     5  C   -0.171759
     6  C   -0.227553
     7  H    0.221482
     8  H    0.223833
     9  H    0.277612
    10  H    0.279850
    11  H    0.232354
    12  N    0.487818
    13  O   -0.457322
    14  O   -0.459034
    15  C   -0.177134
    16  C   -0.216836
    17  C   -0.170352
    18  C    0.160603
    19  C   -0.178820
    20  C   -0.228556
    21  H    0.223352
    22  H    0.226657
    23  H    0.278950
    24  H    0.278485
    25  H    0.233152
    26  N    0.487793
    27  O   -0.458046
    28  O   -0.457214
 Sum of Mulliken charges =  -0.00000

 Dipole moment (field-independent basis, Debye):
    X=             -1.7527    Y=              7.9841    Z=             -0.1398  Tot=              8.1754
 Quadrupole moment (field-independent basis, Debye-Ang):
   XX=           -142.7600   YY=           -105.1891   ZZ=           -104.9774
   XY=             -3.7234   XZ=             -0.2891   YZ=              0.0777

 Normal termination of Gaussian 16 at Thu May  6 19:43:34 2021.
