 Gaussian 16, Revision A.03,
 Gaussian 16:  EM64L-G16RevA.03 25-Dec-2016

 -------------
 #p 6-31g* mp2
 -------------

 ------------------------------------------------------
 Input file generated by CHIRIPA (05-May-2021 14:55:20)
 ------------------------------------------------------
 Symbolic Z-matrix:
 Charge =  0 Multiplicity = 1

                         Standard orientation:
 ---------------------------------------------------------------------
 Center     Atomic      Atomic             Coordinates (Angstroms)
 Number     Number       Type             X           Y           Z
 ---------------------------------------------------------------------
      1          6           0        1.182304   -1.679603    1.041848
      2          6           0        0.894978   -0.632979    0.159497
      3          6           0        1.926988    0.115911   -0.413798
      4          6           0        3.240763   -0.210596   -0.081117
      5          6           0        3.559158   -1.247450    0.794581
      6          6           0        2.511134   -1.982964    1.356020
      7          1           0        0.374394   -2.256164    1.482592
      8          1           0       -0.136068   -0.395142   -0.086312
      9          1           0        1.732896    0.931399   -1.099894
     10          1           0        4.596868   -1.460894    1.020452
     11          1           0        2.737246   -2.795238    2.040950
     12          7           0        4.341783    0.575141   -0.681763
     13          8           0        5.490852    0.267525   -0.372491
     14          8           0        4.034844    1.483738   -1.450448
     15          6           0       -4.477905   -0.078078    0.040456
     16          6           0       -4.402678   -1.191522   -1.004803
     17          6           0       -5.533719   -2.210853   -0.865139
     18          1           0       -4.449956   -0.523685    1.044248
     19          1           0       -5.446512    0.433221   -0.047690
     20          1           0       -3.433944   -1.699673   -0.915625
     21          1           0       -4.430616   -0.743199   -2.006222
     22          1           0       -6.507659   -1.723156   -0.975567
     23          1           0       -5.505324   -2.685064    0.121227
     24          1           0       -5.460623   -2.997879   -1.622178
     25          6           0       -3.353909    0.948719   -0.086221
     26          6           0       -3.429135    2.062164    0.959038
     27          6           0       -2.298095    3.081494    0.819375
     28          1           0       -2.385301    0.437420    0.001925
     29          1           0       -3.381857    1.394327   -1.090012
     30          1           0       -3.401197    1.613840    1.960458
     31          1           0       -4.397870    2.570313    0.869860
     32          1           0       -2.326490    3.555706   -0.166992
     33          1           0       -1.324154    2.593798    0.929802
     34          1           0       -2.371191    3.868520    1.576412
 ---------------------------------------------------------------------

 SCF Done:  E(RHF) =  -669.535549475     A.U. after   15 cycles
 E2 =    -0.2091322065D+01 EUMP2 =    -0.67162687154007D+03

 The electronic state is 1-A.
 Alpha  occ. eigenvalues --  -20.60745 -20.60740 -15.85798 -11.31170 -11.27747
 Alpha  occ. eigenvalues --  -11.27737 -11.27493 -11.26763 -11.26737 -11.22383
 Alpha  occ. eigenvalues --  -11.22369 -11.22298 -11.22171 -11.21714 -11.21680
 Alpha  occ. eigenvalues --   -1.59820  -1.39373  -1.19346  -1.09245  -1.08742
 Alpha  occ. eigenvalues --   -1.04751  -1.04250  -0.96698  -0.95574  -0.87708
 Alpha  occ. eigenvalues --   -0.86152  -0.82407  -0.80314  -0.79086  -0.77448
 Alpha  occ. eigenvalues --   -0.72017  -0.71143  -0.70458  -0.65923  -0.64999
 Alpha  occ. eigenvalues --   -0.64739  -0.62115  -0.61631  -0.60062  -0.58311
 Alpha  occ. eigenvalues --   -0.55996  -0.55257  -0.53351  -0.53151  -0.53079
 Alpha  occ. eigenvalues --   -0.52829  -0.50638  -0.48784  -0.48771  -0.48621
 Alpha  occ. eigenvalues --   -0.47355  -0.46593  -0.46533  -0.44777  -0.44534
 Alpha  occ. eigenvalues --   -0.37331  -0.36352
 Alpha virt. eigenvalues --    0.05079   0.11277   0.16527   0.19059   0.22712
 Alpha virt. eigenvalues --    0.23610   0.24568   0.26379   0.27141   0.28308
 Alpha virt. eigenvalues --    0.29241   0.30545   0.31169   0.31344   0.31735

 Mulliken charges:
               1
     1  C   -0.173515
     2  C   -0.228108
     3  C   -0.173932
     4  C    0.158953
     5  C   -0.171058
     6  C   -0.218538
     7  H    0.225458
     8  H    0.237193
     9  H    0.276729
    10  H    0.275591
    11  H    0.223341
    12  N    0.488050
    13  O   -0.460619
    14  O   -0.460211
    15  C   -0.298207
    16  C   -0.299299
    17  C   -0.476057
    18  H    0.149124
    19  H    0.153674
    20  H    0.145606
    21  H    0.154737
    22  H    0.157685
    23  H    0.154831
    24  H    0.162242
    25  C   -0.304656
    26  C   -0.299710
    27  C   -0.476754
    28  H    0.141937
    29  H    0.153512
    30  H    0.152188
    31  H    0.155574
    32  H    0.157455
    33  H    0.152355
    34  H    0.164429
 Sum of Mulliken charges =  -0.00000

 Dipole moment (field-independent basis, Debye):
    X=             -4.0775    Y=             -2.6905    Z=              2.1111  Tot=              5.3218
 Quadrupole moment (field-independent basis, Debye-Ang):
   XX=           -117.2992   YY=            -92.5563   ZZ=            -94.0378
   XY=            -11.5181   XZ=              9.5610   YZ=             -2.2025

 Normal termination of Gaussian 16 at Wed May  5 23:47:08 2021.
