 Gaussian 16, Revision A.03,
 Gaussian 16:  EM64L-G16RevA.03 25-Dec-2016

 -------------
 #p 6-31g* mp2
 -------------

 ------------------------------------------------------
 Input file generated by CHIRIPA (05-May-2021 14:51:10)
 ------------------------------------------------------
 Symbolic Z-matrix:
 Charge =  0 Multiplicity = 1

                         Standard orientation:
 ---------------------------------------------------------------------
 Center     Atomic      Atomic             Coordinates (Angstroms)
 Number     Number       Type             X           Y           Z
 ---------------------------------------------------------------------
      1          6           0        4.499538    0.227131   -0.293039
      2          6           0        5.215302    1.418492    0.344397
      3          6           0        6.431193    1.877612   -0.460968
      4          1           0        5.208368   -0.605810   -0.396548
      5          1           0        4.185425    0.498516   -1.310427
      6          1           0        5.526752    1.145404    1.360782
      7          1           0        4.504636    2.248630    0.446577
      8          1           0        6.133574    2.176553   -1.471245
      9          1           0        7.161498    1.067058   -0.551845
     10          1           0        6.927814    2.730199    0.012658
     11          6           0        3.281903   -0.243419    0.500483
     12          6           0        2.566139   -1.434781   -0.136953
     13          6           0        1.350249   -1.893900    0.668412
     14          1           0        3.596017   -0.514804    1.517870
     15          1           0        2.573074    0.589522    0.603992
     16          1           0        3.276805   -2.264919   -0.239133
     17          1           0        2.254689   -1.161692   -1.153338
     18          1           0        0.619943   -1.083347    0.759289
     19          1           0        1.647867   -2.192841    1.678689
     20          1           0        0.853627   -2.746487    0.194785
     21          6           0       -4.177455    0.653323   -0.395200
     22          6           0       -5.101548    1.396567    0.570008
     23          6           0       -5.667293    2.685257   -0.027493
     24          1           0       -3.352102    1.317109   -0.686964
     25          1           0       -4.730992    0.419868   -1.315249
     26          1           0       -4.546834    1.627332    1.488515
     27          1           0       -5.924692    0.730870    0.859657
     28          1           0       -6.244231    2.469409   -0.932564
     29          1           0       -4.858543    3.370964   -0.300133
     30          1           0       -6.325131    3.200511    0.679346
     31          6           0       -3.603986   -0.637035    0.187756
     32          6           0       -2.679894   -1.380279   -0.777452
     33          6           0       -2.114149   -2.668968   -0.179950
     34          1           0       -3.050449   -0.403580    1.107805
     35          1           0       -4.429339   -1.300820    0.479519
     36          1           0       -1.856750   -0.714582   -1.067101
     37          1           0       -3.234607   -1.611044   -1.695959
     38          1           0       -2.922898   -3.354675    0.092688
     39          1           0       -1.537211   -2.453121    0.725120
     40          1           0       -1.456311   -3.184223   -0.886790
 ---------------------------------------------------------------------

 SCF Done:  E(RHF) =  -470.732046514     A.U. after   11 cycles
 E2 =    -0.1583072503D+01 EUMP2 =    -0.47231511901705D+03

 The electronic state is 1-A.
 Alpha  occ. eigenvalues --  -11.21605 -11.21598 -11.21579 -11.21565 -11.21403
 Alpha  occ. eigenvalues --  -11.21394 -11.21343 -11.21334 -11.21074 -11.21071
 Alpha  occ. eigenvalues --  -11.20987 -11.20923  -1.08435  -1.08403  -1.03568
 Alpha  occ. eigenvalues --   -1.03457  -0.96075  -0.95853  -0.87136  -0.86833
 Alpha  occ. eigenvalues --   -0.79680  -0.79481  -0.78249  -0.78217  -0.65114
 Alpha  occ. eigenvalues --   -0.64999  -0.61108  -0.60763  -0.59508  -0.59175
 Alpha  occ. eigenvalues --   -0.57651  -0.57489  -0.55490  -0.55042  -0.52911
 Alpha  occ. eigenvalues --   -0.52532  -0.52329  -0.52283  -0.50039  -0.49697
 Alpha  occ. eigenvalues --   -0.47969  -0.47813  -0.46671  -0.46537  -0.45809
 Alpha  occ. eigenvalues --   -0.45741  -0.45711  -0.45677  -0.43874  -0.43596
 Alpha virt. eigenvalues --    0.21458   0.23076   0.23627   0.25085   0.26249
 Alpha virt. eigenvalues --    0.26769   0.27131   0.27466   0.27676   0.29289
 Alpha virt. eigenvalues --    0.29440   0.31138   0.31376   0.32122   0.32295

 Mulliken charges:
               1
     1  C   -0.298252
     2  C   -0.299601
     3  C   -0.475695
     4  H    0.149686
     5  H    0.149448
     6  H    0.151917
     7  H    0.151799
     8  H    0.155170
     9  H    0.155204
    10  H    0.160237
    11  C   -0.298426
    12  C   -0.300241
    13  C   -0.479113
    14  H    0.149483
    15  H    0.149170
    16  H    0.151781
    17  H    0.151606
    18  H    0.154560
    19  H    0.154223
    20  H    0.166803
    21  C   -0.298194
    22  C   -0.299642
    23  C   -0.475681
    24  H    0.149231
    25  H    0.149561
    26  H    0.151891
    27  H    0.152014
    28  H    0.155187
    29  H    0.155054
    30  H    0.160258
    31  C   -0.298671
    32  C   -0.300630
    33  C   -0.478085
    34  H    0.149403
    35  H    0.149862
    36  H    0.151735
    37  H    0.151708
    38  H    0.153703
    39  H    0.162806
    40  H    0.158733
 Sum of Mulliken charges =  -0.00000

 Dipole moment (field-independent basis, Debye):
    X=              0.0024    Y=             -0.0261    Z=              0.0129  Tot=              0.0293
 Quadrupole moment (field-independent basis, Debye-Ang):
   XX=            -84.9984   YY=            -85.1953   ZZ=            -84.7097
   XY=              0.0480   XZ=              0.8597   YZ=              0.2985

 Normal termination of Gaussian 16 at Wed May  5 16:41:31 2021.
