 Gaussian 16, Revision A.03,
 Gaussian 16:  EM64L-G16RevA.03 25-Dec-2016

 -------------
 #p 6-31g* mp2
 -------------

 ------------------------------------------------------
 Input file generated by CHIRIPA (05-May-2021 14:53:17)
 ------------------------------------------------------
 Symbolic Z-matrix:
 Charge =  0 Multiplicity = 1

                         Standard orientation:
 ---------------------------------------------------------------------
 Center     Atomic      Atomic             Coordinates (Angstroms)
 Number     Number       Type             X           Y           Z
 ---------------------------------------------------------------------
      1          6           0        4.507613   -0.472607    0.272240
      2          6           0        4.084672   -1.808812   -0.339038
      3          6           0        5.021160   -2.955894    0.041737
      4          1           0        5.530332   -0.235810   -0.051669
      5          1           0        4.541283   -0.572006    1.366032
      6          1           0        4.050470   -1.706531   -1.431277
      7          1           0        3.062770   -2.042363   -0.013790
      8          1           0        5.048101   -3.086685    1.128368
      9          1           0        6.041413   -2.748946   -0.297172
     10          1           0        4.700231   -3.901641   -0.405953
     11          6           0        3.581175    0.683850   -0.099311
     12          6           0        4.004116    2.020056    0.511967
     13          6           0        3.067628    3.167137    0.131193
     14          1           0        3.547505    0.783250   -1.193103
     15          1           0        2.558456    0.447053    0.224598
     16          1           0        5.026018    2.253606    0.186720
     17          1           0        4.038318    1.917775    1.604206
     18          1           0        2.047375    2.960189    0.470101
     19          1           0        3.040687    3.297929   -0.955439
     20          1           0        3.388557    4.112885    0.578882
     21          6           0       -0.715299    0.376771   -0.491773
     22          6           0       -1.639248    1.426661   -0.515654
     23          6           0       -2.996081    1.183843   -0.282002
     24          6           0       -3.395997   -0.126919   -0.026538
     25          6           0       -2.499645   -1.194118    0.003958
     26          6           0       -1.147684   -0.927967   -0.232500
     27          1           0        0.336829    0.574460   -0.674369
     28          1           0       -1.306308    2.440939   -0.716744
     29          1           0       -3.732726    1.977954   -0.294575
     30          1           0       -2.861630   -2.194658    0.207198
     31          1           0       -0.432371   -1.745283   -0.213335
     32          7           0       -4.829837   -0.396331    0.222304
     33          8           0       -5.156756   -1.560014    0.445018
     34          8           0       -5.599609    0.561289    0.189922
 ---------------------------------------------------------------------

 SCF Done:  E(RHF) =  -669.535748644     A.U. after   15 cycles
 E2 =    -0.2091480270D+01 EUMP2 =    -0.67162722891330D+03

 The electronic state is 1-A.
 Alpha  occ. eigenvalues --  -20.60720 -20.60715 -15.85773 -11.31129 -11.27699
 Alpha  occ. eigenvalues --  -11.27694 -11.27377 -11.26704 -11.26691 -11.22640
 Alpha  occ. eigenvalues --  -11.22584 -11.22579 -11.22348 -11.22149 -11.21832
 Alpha  occ. eigenvalues --   -1.59796  -1.39350  -1.19297  -1.09481  -1.08688
 Alpha  occ. eigenvalues --   -1.04700  -1.04509  -0.96963  -0.95527  -0.87975
 Alpha  occ. eigenvalues --   -0.86094  -0.82366  -0.80582  -0.79334  -0.77414
 Alpha  occ. eigenvalues --   -0.71991  -0.71119  -0.70405  -0.66101  -0.64946
 Alpha  occ. eigenvalues --   -0.64699  -0.62053  -0.61891  -0.60332  -0.58584
 Alpha  occ. eigenvalues --   -0.56265  -0.55204  -0.53616  -0.53381  -0.53029
 Alpha  occ. eigenvalues --   -0.52789  -0.50897  -0.48895  -0.48747  -0.48745
 Alpha  occ. eigenvalues --   -0.47609  -0.46838  -0.46754  -0.44783  -0.44758
 Alpha  occ. eigenvalues --   -0.37266  -0.36310
 Alpha virt. eigenvalues --    0.05105   0.11329   0.16532   0.19218   0.22382
 Alpha virt. eigenvalues --    0.22888   0.25123   0.25975   0.26261   0.27596
 Alpha virt. eigenvalues --    0.29475   0.30280   0.30660   0.30938   0.31537

 Mulliken charges:
               1
     1  C   -0.298112
     2  C   -0.299784
     3  C   -0.476293
     4  H    0.153787
     5  H    0.152781
     6  H    0.152980
     7  H    0.144964
     8  H    0.157240
     9  H    0.157844
    10  H    0.162125
    11  C   -0.305195
    12  C   -0.299384
    13  C   -0.478514
    14  H    0.149829
    15  H    0.144118
    16  H    0.156320
    17  H    0.155775
    18  H    0.149965
    19  H    0.155206
    20  H    0.166109
    21  C   -0.178237
    22  C   -0.220799
    23  C   -0.170787
    24  C    0.158340
    25  C   -0.170869
    26  C   -0.221642
    27  H    0.236827
    28  H    0.224237
    29  H    0.275370
    30  H    0.275363
    31  H    0.223601
    32  N    0.488047
    33  O   -0.460640
    34  O   -0.460572
 Sum of Mulliken charges =  -0.00000

 Dipole moment (field-independent basis, Debye):
    X=              5.3647    Y=              0.9720    Z=             -0.8409  Tot=              5.5165
 Quadrupole moment (field-independent basis, Debye-Ang):
   XX=           -128.1710   YY=            -90.7281   ZZ=            -94.8471
   XY=             -4.3232   XZ=              2.5858   YZ=             -0.5151

 Normal termination of Gaussian 16 at Wed May  5 17:14:47 2021.
