 Gaussian 16, Revision A.03,
 Gaussian 16:  EM64L-G16RevA.03 25-Dec-2016

 -------------
 #p 6-31g* mp2
 -------------

 ------------------------------------------------------
 Input file generated by CHIRIPA (05-May-2021 14:57:21)
 ------------------------------------------------------
 Symbolic Z-matrix:
 Charge =  0 Multiplicity = 1

                         Standard orientation:
 ---------------------------------------------------------------------
 Center     Atomic      Atomic             Coordinates (Angstroms)
 Number     Number       Type             X           Y           Z
 ---------------------------------------------------------------------
      1          6           0       -0.498446    2.703220    0.486925
      2          6           0       -0.524787    1.711044    1.472528
      3          6           0       -1.366298    0.602326    1.341564
      4          6           0       -2.171797    0.517397    0.206994
      5          6           0       -2.168137    1.489437   -0.792213
      6          6           0       -1.318758    2.589451   -0.640313
      7          1           0        0.158316    3.561118    0.596793
      8          1           0        0.111187    1.796770    2.349017
      9          1           0       -1.406619   -0.180334    2.089384
     10          1           0       -2.813606    1.376281   -1.654758
     11          1           0       -1.300390    3.358463   -1.407338
     12          7           0       -3.066831   -0.651746    0.057266
     13          8           0       -3.766769   -0.703182   -0.951733
     14          8           0       -3.051474   -1.494546    0.951743
     15          6           0        4.093632    0.715391   -0.004210
     16          6           0        3.322536    0.781708   -1.169342
     17          6           0        2.173989   -0.003551   -1.306296
     18          6           0        1.824228   -0.847895   -0.253662
     19          6           0        2.571851   -0.936304    0.919597
     20          6           0        3.716494   -0.141892    1.034710
     21          1           0        4.984334    1.328954    0.093696
     22          1           0        3.613023    1.446581   -1.977802
     23          1           0        1.558821    0.028083   -2.197353
     24          1           0        2.256949   -1.608619    1.708422
     25          1           0        4.313428   -0.195461    1.940714
     26          7           0        0.610379   -1.684059   -0.387087
     27          8           0        0.323624   -2.419876    0.554711
     28          8           0       -0.031296   -1.587795   -1.430937
 ---------------------------------------------------------------------

 SCF Done:  E(RHF) =  -868.336237711     A.U. after   16 cycles
 E2 =    -0.2606281041D+01 EUMP2 =    -0.87094251875249D+03

 The electronic state is 1-A.
 Alpha  occ. eigenvalues --  -20.60957 -20.60918 -20.59627 -20.59556 -15.85939
 Alpha  occ. eigenvalues --  -15.84668 -11.31457 -11.30512 -11.28071 -11.28039
 Alpha  occ. eigenvalues --  -11.27848 -11.27141 -11.27130 -11.27112 -11.27094
 Alpha  occ. eigenvalues --  -11.27048 -11.26337 -11.26326  -1.59994  -1.58632
 Alpha  occ. eigenvalues --   -1.39546  -1.38184  -1.19660  -1.18764  -1.09031
 Alpha  occ. eigenvalues --   -1.08062  -1.05094  -1.04250  -0.95838  -0.94815
 Alpha  occ. eigenvalues --   -0.86482  -0.85609  -0.82676  -0.81663  -0.77702
 Alpha  occ. eigenvalues --   -0.76597  -0.72169  -0.71505  -0.70909  -0.70779
 Alpha  occ. eigenvalues --   -0.69867  -0.69766  -0.65316  -0.65102  -0.64404
 Alpha  occ. eigenvalues --   -0.64263  -0.62439  -0.61568  -0.55596  -0.54754
 Alpha  occ. eigenvalues --   -0.53528  -0.53190  -0.52434  -0.52335  -0.48938
 Alpha  occ. eigenvalues --   -0.48931  -0.47702  -0.47611  -0.44966  -0.43444
 Alpha  occ. eigenvalues --   -0.37762  -0.36920  -0.36503  -0.35768
 Alpha virt. eigenvalues --    0.04757   0.06046   0.10924   0.11753   0.16278
 Alpha virt. eigenvalues --    0.17364   0.21034   0.21821   0.26895   0.27624
 Alpha virt. eigenvalues --    0.28007   0.28799   0.30575   0.31312   0.32158

 Mulliken charges:
               1
     1  C   -0.172326
     2  C   -0.217502
     3  C   -0.183370
     4  C    0.166704
     5  C   -0.167516
     6  C   -0.222476
     7  H    0.219818
     8  H    0.218551
     9  H    0.281681
    10  H    0.276128
    11  H    0.219059
    12  N    0.494007
    13  O   -0.462457
    14  O   -0.453125
    15  C   -0.172681
    16  C   -0.220452
    17  C   -0.167858
    18  C    0.163711
    19  C   -0.175401
    20  C   -0.220517
    21  H    0.224990
    22  H    0.222409
    23  H    0.276158
    24  H    0.275443
    25  H    0.223033
    26  N    0.485171
    27  O   -0.452752
    28  O   -0.458429
 Sum of Mulliken charges =  -0.00000

 Dipole moment (field-independent basis, Debye):
    X=              7.2560    Y=              6.6568    Z=              0.9197  Tot=              9.8899
 Quadrupole moment (field-independent basis, Debye-Ang):
   XX=           -103.6513   YY=           -105.7431   ZZ=            -97.2686
   XY=             -6.2007   XZ=              1.7316   YZ=             -4.0431

 Normal termination of Gaussian 16 at Thu May  6 16:11:40 2021.
