 Gaussian 16, Revision A.03,
 Gaussian 16:  EM64L-G16RevA.03 25-Dec-2016

 -------------
 #p 6-31g* mp2
 -------------

 ------------------------------------------------------
 Input file generated by CHIRIPA (05-May-2021 14:53:15)
 ------------------------------------------------------
 Symbolic Z-matrix:
 Charge =  0 Multiplicity = 1

                         Standard orientation:
 ---------------------------------------------------------------------
 Center     Atomic      Atomic             Coordinates (Angstroms)
 Number     Number       Type             X           Y           Z
 ---------------------------------------------------------------------
      1          6           0        2.797660   -0.675783    0.940967
      2          6           0        1.533564    0.020726    1.445863
      3          6           0        0.694197   -0.869536    2.362755
      4          1           0        2.514625   -1.592442    0.405643
      5          1           0        3.403048   -0.990991    1.802097
      6          1           0        0.931409    0.335755    0.584014
      7          1           0        1.819631    0.935934    1.979882
      8          1           0        1.273613   -1.173381    3.240569
      9          1           0        0.380345   -1.776970    1.836769
     10          1           0       -0.204594   -0.351847    2.712085
     11          6           0        3.647236    0.201482    0.023168
     12          6           0        4.911333   -0.495027   -0.481728
     13          6           0        5.750699    0.395235   -1.398620
     14          1           0        3.041849    0.516691   -0.837962
     15          1           0        3.930271    1.118141    0.558492
     16          1           0        4.625266   -1.410235   -1.015747
     17          1           0        5.513487   -0.810056    0.380121
     18          1           0        6.064551    1.302669   -0.872634
     19          1           0        5.171283    0.699080   -2.276434
     20          1           0        6.649490   -0.122454   -1.747950
     21          6           0       -3.212959   -2.218492   -0.699453
     22          6           0       -1.967438   -1.781871   -1.162659
     23          6           0       -1.571685   -0.452262   -0.989258
     24          6           0       -2.450307    0.417661   -0.345405
     25          6           0       -3.697714    0.012856    0.127247
     26          6           0       -4.072606   -1.321316   -0.057110
     27          1           0       -3.512287   -3.253136   -0.838411
     28          1           0       -1.297777   -2.476414   -1.661869
     29          1           0       -0.613148   -0.087588   -1.338022
     30          1           0       -4.343693    0.728557    0.621110
     31          1           0       -5.040492   -1.657607    0.303653
     32          7           0       -2.042383    1.827674   -0.156033
     33          8           0       -2.834661    2.574368    0.414388
     34          8           0       -0.938098    2.159449   -0.581611
 ---------------------------------------------------------------------

 SCF Done:  E(RHF) =  -669.535535764     A.U. after   15 cycles
 E2 =    -0.2093186446D+01 EUMP2 =    -0.67162872221002D+03

 The electronic state is 1-A.
 Alpha  occ. eigenvalues --  -20.60911 -20.60897 -15.85930 -11.31273 -11.27852
 Alpha  occ. eigenvalues --  -11.27835 -11.27576 -11.26855 -11.26836 -11.21482
 Alpha  occ. eigenvalues --  -11.21253 -11.21176 -11.21145 -11.20924 -11.20897
 Alpha  occ. eigenvalues --   -1.59963  -1.39521  -1.19445  -1.08843  -1.08237
 Alpha  occ. eigenvalues --   -1.04849  -1.03332  -0.95810  -0.95680  -0.86819
 Alpha  occ. eigenvalues --   -0.86250  -0.82519  -0.79384  -0.78050  -0.77549
 Alpha  occ. eigenvalues --   -0.72157  -0.71279  -0.70563  -0.65107  -0.64984
 Alpha  occ. eigenvalues --   -0.64765  -0.62222  -0.60726  -0.59161  -0.57400
 Alpha  occ. eigenvalues --   -0.55352  -0.55126  -0.53141  -0.52947  -0.52483
 Alpha  occ. eigenvalues --   -0.52219  -0.49758  -0.48949  -0.48911  -0.47694
 Alpha  occ. eigenvalues --   -0.46436  -0.45635  -0.45547  -0.44724  -0.43588
 Alpha  occ. eigenvalues --   -0.37409  -0.36424
 Alpha virt. eigenvalues --    0.04931   0.11127   0.16415   0.20733   0.22943
 Alpha virt. eigenvalues --    0.24387   0.25902   0.27245   0.27617   0.27948
 Alpha virt. eigenvalues --    0.29106   0.30879   0.31548   0.31896   0.31989

 Mulliken charges:
               1
     1  C   -0.298099
     2  C   -0.308540
     3  C   -0.475497
     4  H    0.141460
     5  H    0.149107
     6  H    0.161571
     7  H    0.157595
     8  H    0.154193
     9  H    0.149276
    10  H    0.160483
    11  C   -0.297873
    12  C   -0.299220
    13  C   -0.475494
    14  H    0.150101
    15  H    0.153551
    16  H    0.148198
    17  H    0.151657
    18  H    0.156847
    19  H    0.155430
    20  H    0.159001
    21  C   -0.170299
    22  C   -0.219612
    23  C   -0.169182
    24  C    0.160102
    25  C   -0.170889
    26  C   -0.218187
    27  H    0.226048
    28  H    0.223749
    29  H    0.275287
    30  H    0.275823
    31  H    0.223839
    32  N    0.488320
    33  O   -0.459125
    34  O   -0.459620
 Sum of Mulliken charges =  -0.00000

 Dipole moment (field-independent basis, Debye):
    X=             -1.5479    Y=             -4.8199    Z=             -0.6783  Tot=              5.1076
 Quadrupole moment (field-independent basis, Debye-Ang):
   XX=            -84.2523   YY=            -99.5383   ZZ=            -93.8337
   XY=             11.0182   XZ=              0.8249   YZ=              2.8026

 Normal termination of Gaussian 16 at Thu May  6 10:34:58 2021.
