 Gaussian 16, Revision A.03,
 Gaussian 16:  EM64L-G16RevA.03 25-Dec-2016

 -------------
 #p 6-31g* mp2
 -------------

 ------------------------------------------------------
 Input file generated by CHIRIPA (05-May-2021 14:53:12)
 ------------------------------------------------------
 Symbolic Z-matrix:
 Charge =  0 Multiplicity = 1

                         Standard orientation:
 ---------------------------------------------------------------------
 Center     Atomic      Atomic             Coordinates (Angstroms)
 Number     Number       Type             X           Y           Z
 ---------------------------------------------------------------------
      1          6           0       -3.967053   -0.162775    0.474391
      2          6           0       -5.332191   -0.743037    0.103338
      3          6           0       -5.663346   -2.018044    0.879537
      4          1           0       -3.191708   -0.918619    0.288686
      5          1           0       -3.946632    0.047558    1.552694
      6          1           0       -5.350511   -0.950923   -0.974189
      7          1           0       -6.104355    0.014342    0.289766
      8          1           0       -5.672560   -1.821933    1.956596
      9          1           0       -4.914433   -2.792682    0.685460
     10          1           0       -6.643531   -2.415846    0.598734
     11          6           0       -3.621737    1.112070   -0.293239
     12          6           0       -2.256599    1.692331    0.077814
     13          6           0       -1.925444    2.967339   -0.698386
     14          1           0       -3.642158    0.901737   -1.371542
     15          1           0       -4.397082    1.867913   -0.107535
     16          1           0       -1.484435    0.934952   -0.108615
     17          1           0       -2.238279    1.900218    1.155341
     18          1           0       -2.674357    3.741977   -0.504308
     19          1           0       -1.916230    2.771227   -1.775445
     20          1           0       -0.945259    3.365140   -0.417582
     21          6           0        4.844948    0.345941    1.450952
     22          6           0        5.091322    0.118469    0.092984
     23          6           0        4.056934   -0.278960   -0.759449
     24          6           0        2.782564   -0.440112   -0.217876
     25          6           0        2.505473   -0.221164    1.130668
     26          6           0        3.555083    0.175698    1.964555
     27          1           0        5.654398    0.654452    2.105938
     28          1           0        6.092053    0.249898   -0.308649
     29          1           0        4.219766   -0.461843   -1.814653
     30          1           0        1.497413   -0.360427    1.501938
     31          1           0        3.360821    0.351644    3.018761
     32          7           0        1.679446   -0.860551   -1.110491
     33          8           0        0.565572   -0.995562   -0.608799
     34          8           0        1.949583   -1.047121   -2.294913
 ---------------------------------------------------------------------

 SCF Done:  E(RHF) =  -669.536455804     A.U. after   15 cycles
 E2 =    -0.2091067015D+01 EUMP2 =    -0.67162752281920D+03

 The electronic state is 1-A.
 Alpha  occ. eigenvalues --  -20.61000 -20.60986 -15.86020 -11.31303 -11.27865
 Alpha  occ. eigenvalues --  -11.27857 -11.27599 -11.26866 -11.26855 -11.20902
 Alpha  occ. eigenvalues --  -11.20620 -11.20548 -11.20489 -11.20472 -11.20362
 Alpha  occ. eigenvalues --   -1.60050  -1.39608  -1.19470  -1.08882  -1.07601
 Alpha  occ. eigenvalues --   -1.04861  -1.02763  -0.95730  -0.95239  -0.86264
 Alpha  occ. eigenvalues --   -0.86258  -0.82567  -0.78827  -0.77635  -0.77395
 Alpha  occ. eigenvalues --   -0.72248  -0.71357  -0.70580  -0.65129  -0.64865
 Alpha  occ. eigenvalues --   -0.64209  -0.62209  -0.60145  -0.58616  -0.56853
 Alpha  occ. eigenvalues --   -0.55370  -0.54520  -0.53195  -0.52953  -0.51962
 Alpha  occ. eigenvalues --   -0.51671  -0.49180  -0.49010  -0.48995  -0.47162
 Alpha  occ. eigenvalues --   -0.45882  -0.45163  -0.44954  -0.44610  -0.43010
 Alpha  occ. eigenvalues --   -0.37448  -0.36461
 Alpha virt. eigenvalues --    0.04864   0.11192   0.16331   0.21262   0.23704
 Alpha virt. eigenvalues --    0.24998   0.27032   0.27426   0.27809   0.28645
 Alpha virt. eigenvalues --    0.28849   0.30822   0.31944   0.32214   0.32561

 Mulliken charges:
               1
     1  C   -0.300849
     2  C   -0.299130
     3  C   -0.475563
     4  H    0.160602
     5  H    0.144123
     6  H    0.153179
     7  H    0.148997
     8  H    0.152496
     9  H    0.157046
    10  H    0.158072
    11  C   -0.296392
    12  C   -0.312232
    13  C   -0.474555
    14  H    0.152255
    15  H    0.144669
    16  H    0.176350
    17  H    0.142877
    18  H    0.151185
    19  H    0.157860
    20  H    0.154438
    21  C   -0.170493
    22  C   -0.218608
    23  C   -0.170758
    24  C    0.158092
    25  C   -0.170728
    26  C   -0.218623
    27  H    0.226067
    28  H    0.223851
    29  H    0.275797
    30  H    0.276537
    31  H    0.224041
    32  N    0.489979
    33  O   -0.462145
    34  O   -0.458436
 Sum of Mulliken charges =  -0.00000

 Dipole moment (field-independent basis, Debye):
    X=              4.1494    Y=              1.3225    Z=              3.0452  Tot=              5.3141
 Quadrupole moment (field-independent basis, Debye-Ang):
   XX=            -72.1460   YY=            -98.0777   ZZ=            -93.0832
   XY=              2.1558   XZ=              5.4729   YZ=             -0.7068

 Normal termination of Gaussian 16 at Thu May  6 13:40:41 2021.
