 Gaussian 16, Revision A.03,
 Gaussian 16:  EM64L-G16RevA.03 25-Dec-2016

 -------------
 #p 6-31g* mp2
 -------------

 ------------------------------------------------------
 Input file generated by CHIRIPA (05-May-2021 14:51:09)
 ------------------------------------------------------
 Symbolic Z-matrix:
 Charge =  0 Multiplicity = 1

                         Standard orientation:
 ---------------------------------------------------------------------
 Center     Atomic      Atomic             Coordinates (Angstroms)
 Number     Number       Type             X           Y           Z
 ---------------------------------------------------------------------
      1          6           0        2.597156    0.572074    0.282982
      2          6           0        3.435920    0.777452   -0.978873
      3          6           0        3.863746    2.232332   -1.174026
      4          1           0        1.706960    1.213894    0.232351
      5          1           0        3.173944    0.905962    1.156612
      6          1           0        2.858249    0.441990   -1.849722
      7          1           0        4.324126    0.134926   -0.925320
      8          1           0        4.461920    2.575355   -0.323658
      9          1           0        2.987714    2.884163   -1.253312
     10          1           0        4.462264    2.356466   -2.081895
     11          6           0        2.161853   -0.877278    0.491828
     12          6           0        1.323088   -1.082656    1.753684
     13          6           0        0.895263   -2.537536    1.948836
     14          1           0        1.585065   -1.211166   -0.381802
     15          1           0        3.052049   -1.519098    0.542459
     16          1           0        0.434883   -0.440131    1.700131
     17          1           0        1.900759   -0.747194    2.624532
     18          1           0        1.771294   -3.189367    2.028123
     19          1           0        0.297089   -2.880559    1.098469
     20          1           0        0.296745   -2.661670    2.856706
     21          6           0       -2.273743   -0.603500   -0.363804
     22          6           0       -1.916302   -1.208452   -1.721837
     23          6           0       -1.707821   -2.721828   -1.658407
     24          1           0       -1.476058   -0.835364    0.355143
     25          1           0       -3.185912   -1.084643    0.015462
     26          1           0       -1.005854   -0.725337   -2.099065
     27          1           0       -2.714837   -0.974956   -2.437683
     28          1           0       -2.616076   -3.221390   -1.306112
     29          1           0       -0.897381   -2.970354   -0.965570
     30          1           0       -1.453196   -3.133499   -2.640014
     31          6           0       -2.485266    0.908703   -0.411006
     32          6           0       -2.842707    1.513656    0.947026
     33          6           0       -3.051188    3.027032    0.883596
     34          1           0       -1.573097    1.389848   -0.790272
     35          1           0       -3.282951    1.140569   -1.129952
     36          1           0       -2.044171    1.280161    1.662872
     37          1           0       -3.753155    1.030541    1.324255
     38          1           0       -3.861628    3.275558    0.190760
     39          1           0       -2.142932    3.526595    0.531302
     40          1           0       -3.305813    3.438703    1.865203
 ---------------------------------------------------------------------

 SCF Done:  E(RHF) =  -470.732609543     A.U. after   11 cycles
 E2 =    -0.1585154516D+01 EUMP2 =    -0.47231776405956D+03

 The electronic state is 1-A.
 Alpha  occ. eigenvalues --  -11.21670 -11.21659 -11.21657 -11.21651 -11.21481
 Alpha  occ. eigenvalues --  -11.21443 -11.21422 -11.21369 -11.21122 -11.21117
 Alpha  occ. eigenvalues --  -11.21115 -11.21105  -1.08546  -1.08442  -1.03627
 Alpha  occ. eigenvalues --   -1.03554  -0.96046  -0.96027  -0.87084  -0.87020
 Alpha  occ. eigenvalues --   -0.79680  -0.79626  -0.78349  -0.78271  -0.65549
 Alpha  occ. eigenvalues --   -0.64765  -0.61214  -0.60770  -0.59436  -0.59365
 Alpha  occ. eigenvalues --   -0.57736  -0.57565  -0.55391  -0.55298  -0.52730
 Alpha  occ. eigenvalues --   -0.52717  -0.52542  -0.52396  -0.50178  -0.49802
 Alpha  occ. eigenvalues --   -0.48103  -0.47886  -0.46786  -0.46576  -0.46086
 Alpha  occ. eigenvalues --   -0.45819  -0.45717  -0.45430  -0.43848  -0.43825
 Alpha virt. eigenvalues --    0.18608   0.22078   0.23305   0.24407   0.25649
 Alpha virt. eigenvalues --    0.26297   0.26696   0.28158   0.28877   0.30061
 Alpha virt. eigenvalues --    0.30329   0.31338   0.31593   0.31637   0.32176

 Mulliken charges:
               1
     1  C   -0.298744
     2  C   -0.299721
     3  C   -0.475712
     4  H    0.149305
     5  H    0.150029
     6  H    0.151807
     7  H    0.152283
     8  H    0.155356
     9  H    0.155051
    10  H    0.160546
    11  C   -0.301085
    12  C   -0.305366
    13  C   -0.483023
    14  H    0.151424
    15  H    0.150447
    16  H    0.155126
    17  H    0.153276
    18  H    0.155871
    19  H    0.161449
    20  H    0.161107
    21  C   -0.307697
    22  C   -0.299694
    23  C   -0.482751
    24  H    0.159886
    25  H    0.149820
    26  H    0.151371
    27  H    0.152426
    28  H    0.155850
    29  H    0.160809
    30  H    0.160818
    31  C   -0.298324
    32  C   -0.301811
    33  C   -0.475613
    34  H    0.148915
    35  H    0.150094
    36  H    0.153089
    37  H    0.152387
    38  H    0.155378
    39  H    0.155068
    40  H    0.160551
 Sum of Mulliken charges =  -0.00000

 Dipole moment (field-independent basis, Debye):
    X=              0.0046    Y=             -0.0151    Z=              0.0149  Tot=              0.0217
 Quadrupole moment (field-independent basis, Debye-Ang):
   XX=            -83.1036   YY=            -86.8929   ZZ=            -84.5490
   XY=             -0.1996   XZ=              0.7758   YZ=              0.0710

 Normal termination of Gaussian 16 at Thu May  6 06:53:23 2021.
