 Gaussian 16, Revision A.03,
 Gaussian 16:  EM64L-G16RevA.03 25-Dec-2016

 -------------
 #p 6-31g* mp2
 -------------

 ------------------------------------------------------
 Input file generated by CHIRIPA (05-May-2021 14:57:25)
 ------------------------------------------------------
 Symbolic Z-matrix:
 Charge =  0 Multiplicity = 1

                         Standard orientation:
 ---------------------------------------------------------------------
 Center     Atomic      Atomic             Coordinates (Angstroms)
 Number     Number       Type             X           Y           Z
 ---------------------------------------------------------------------
      1          6           0       -5.580591   -0.968080    0.280127
      2          6           0       -4.496096   -1.847431    0.364577
      3          6           0       -3.195710   -1.396663    0.118908
      4          6           0       -3.015337   -0.054113   -0.210204
      5          6           0       -4.075409    0.846483   -0.302214
      6          6           0       -5.367163    0.373705   -0.052413
      7          1           0       -6.587410   -1.326796    0.472573
      8          1           0       -4.658863   -2.890006    0.622628
      9          1           0       -2.338096   -2.055830    0.177343
     10          1           0       -3.881704    1.880221   -0.561601
     11          1           0       -6.207506    1.058884   -0.118726
     12          7           0       -1.643246    0.434745   -0.472470
     13          8           0       -1.510890    1.622221   -0.760604
     14          8           0       -0.726138   -0.378819   -0.384934
     15          6           0        1.573081    1.844367    0.978992
     16          6           0        1.942776    1.812642   -0.369652
     17          6           0        2.866285    0.869717   -0.830707
     18          6           0        3.402769   -0.030603    0.088477
     19          6           0        3.054495   -0.024269    1.438276
     20          6           0        2.129139    0.927427    1.877069
     21          1           0        0.854960    2.580261    1.328504
     22          1           0        1.512555    2.523524   -1.069366
     23          1           0        3.170194    0.822853   -1.869389
     24          1           0        3.500447   -0.745825    2.111998
     25          1           0        1.843884    0.949728    2.925007
     26          7           0        4.381423   -1.033479   -0.387838
     27          8           0        4.839641   -1.815759    0.442049
     28          8           0        4.671745   -1.018262   -1.582040
 ---------------------------------------------------------------------

 SCF Done:  E(RHF) =  -868.338781867     A.U. after   16 cycles
 E2 =    -0.2601165984D+01 EUMP2 =    -0.87093994785041D+03

 The electronic state is 1-A.
 Alpha  occ. eigenvalues --  -20.61629 -20.61553 -20.59542 -20.59527 -15.86601
 Alpha  occ. eigenvalues --  -15.84575 -11.31779 -11.29573 -11.28339 -11.28293
 Alpha  occ. eigenvalues --  -11.28016 -11.27294 -11.27262 -11.26167 -11.26001
 Alpha  occ. eigenvalues --  -11.25705 -11.25158 -11.24873  -1.60651  -1.58618
 Alpha  occ. eigenvalues --   -1.40210  -1.38184  -1.19930  -1.17673  -1.09362
 Alpha  occ. eigenvalues --   -1.07142  -1.05298  -1.03047  -0.96230  -0.94057
 Alpha  occ. eigenvalues --   -0.86705  -0.84476  -0.83067  -0.80928  -0.78139
 Alpha  occ. eigenvalues --   -0.76022  -0.72842  -0.71972  -0.71028  -0.70815
 Alpha  occ. eigenvalues --   -0.69928  -0.68832  -0.65582  -0.65296  -0.63359
 Alpha  occ. eigenvalues --   -0.63090  -0.62644  -0.60448  -0.55810  -0.53658
 Alpha  occ. eigenvalues --   -0.53568  -0.53383  -0.51598  -0.51188  -0.49602
 Alpha  occ. eigenvalues --   -0.49317  -0.47583  -0.47530  -0.45654  -0.43675
 Alpha  occ. eigenvalues --   -0.37905  -0.36894  -0.35534  -0.34543
 Alpha virt. eigenvalues --    0.04348   0.06516   0.10764   0.13072   0.15899
 Alpha virt. eigenvalues --    0.18121   0.20945   0.22986   0.26870   0.27820
 Alpha virt. eigenvalues --    0.28863   0.29790   0.30543   0.32036   0.32490

 Mulliken charges:
               1
     1  C   -0.170058
     2  C   -0.218600
     3  C   -0.170809
     4  C    0.158145
     5  C   -0.171465
     6  C   -0.218527
     7  H    0.227669
     8  H    0.226029
     9  H    0.278007
    10  H    0.274038
    11  H    0.224678
    12  N    0.487820
    13  O   -0.471709
    14  O   -0.450992
    15  C   -0.164312
    16  C   -0.195697
    17  C   -0.170537
    18  C    0.159618
    19  C   -0.172674
    20  C   -0.218118
    21  H    0.221879
    22  H    0.226534
    23  H    0.269786
    24  H    0.268088
    25  H    0.213940
    26  N    0.488052
    27  O   -0.466558
    28  O   -0.464230
 Sum of Mulliken charges =  -0.00000

 Dipole moment (field-independent basis, Debye):
    X=             -8.8242    Y=              1.8135    Z=              2.4447  Tot=              9.3344
 Quadrupole moment (field-independent basis, Debye-Ang):
   XX=           -100.8261   YY=           -100.6704   ZZ=           -101.9330
   XY=             16.3689   XZ=              3.8941   YZ=             -2.4587

 Normal termination of Gaussian 16 at Thu May  6 19:40:54 2021.
