 Gaussian 16, Revision A.03,
 Gaussian 16:  EM64L-G16RevA.03 25-Dec-2016

 -------------
 #p 6-31g* mp2
 -------------

 ------------------------------------------------------
 Input file generated by CHIRIPA (05-May-2021 14:55:24)
 ------------------------------------------------------
 Symbolic Z-matrix:
 Charge =  0 Multiplicity = 1

                         Standard orientation:
 ---------------------------------------------------------------------
 Center     Atomic      Atomic             Coordinates (Angstroms)
 Number     Number       Type             X           Y           Z
 ---------------------------------------------------------------------
      1          6           0        4.510450   -1.339300   -1.128347
      2          6           0        3.767712   -2.021058   -0.158776
      3          6           0        2.810239   -1.347609    0.605592
      4          6           0        2.620556    0.013712    0.372968
      5          6           0        3.344743    0.720776   -0.585627
      6          6           0        4.296971    0.027032   -1.338307
      7          1           0        5.252201   -1.870334   -1.717587
      8          1           0        3.931374   -3.082171    0.006449
      9          1           0        2.221275   -1.850864    1.362742
     10          1           0        3.159171    1.778536   -0.727492
     11          1           0        4.872329    0.559067   -2.090603
     12          7           0        1.609698    0.737405    1.175984
     13          8           0        1.461520    1.936740    0.951759
     14          8           0        0.984706    0.091598    2.014408
     15          6           0       -4.204800   -0.274569   -0.210449
     16          6           0       -3.955505   -1.782534   -0.167132
     17          6           0       -5.239898   -2.588665    0.028521
     18          1           0       -4.696135    0.036347    0.721681
     19          1           0       -4.907711   -0.049404   -1.024459
     20          1           0       -3.252200   -2.004634    0.645672
     21          1           0       -3.464533   -2.089865   -1.099393
     22          1           0       -5.943585   -2.396302   -0.787828
     23          1           0       -5.730045   -2.310587    0.967152
     24          1           0       -5.038571   -3.664091    0.056548
     25          6           0       -2.930322    0.544805   -0.405541
     26          6           0       -3.179618    2.052770   -0.448858
     27          6           0       -1.895224    2.858901   -0.644510
     28          1           0       -2.227411    0.319641    0.408468
     29          1           0       -2.438987    0.233890   -1.337671
     30          1           0       -3.670590    2.360101    0.483403
     31          1           0       -3.882922    2.274871   -1.261661
     32          1           0       -1.405078    2.580824   -1.583142
     33          1           0       -1.191538    2.666538    0.171838
     34          1           0       -2.096552    3.934328   -0.672538
 ---------------------------------------------------------------------

 SCF Done:  E(RHF) =  -669.536623741     A.U. after   15 cycles
 E2 =    -0.2091256558D+01 EUMP2 =    -0.67162788029985D+03

 The electronic state is 1-A.
 Alpha  occ. eigenvalues --  -20.61006 -20.60988 -15.86011 -11.31299 -11.27859
 Alpha  occ. eigenvalues --  -11.27853 -11.27594 -11.26859 -11.26849 -11.21033
 Alpha  occ. eigenvalues --  -11.20669 -11.20623 -11.20578 -11.20432 -11.19705
 Alpha  occ. eigenvalues --   -1.60047  -1.39604  -1.19464  -1.08876  -1.07617
 Alpha  occ. eigenvalues --   -1.04855  -1.02691  -0.95724  -0.95125  -0.86258
 Alpha  occ. eigenvalues --   -0.86140  -0.82558  -0.78782  -0.77615  -0.77408
 Alpha  occ. eigenvalues --   -0.72234  -0.71351  -0.70574  -0.65121  -0.64860
 Alpha  occ. eigenvalues --   -0.64243  -0.62202  -0.60081  -0.58547  -0.56740
 Alpha  occ. eigenvalues --   -0.55365  -0.54398  -0.53188  -0.52947  -0.51840
 Alpha  occ. eigenvalues --   -0.51551  -0.49192  -0.48996  -0.48869  -0.47085
 Alpha  occ. eigenvalues --   -0.45824  -0.45029  -0.44917  -0.44785  -0.42954
 Alpha  occ. eigenvalues --   -0.37440  -0.36454
 Alpha virt. eigenvalues --    0.04881   0.11202   0.16369   0.21331   0.23656
 Alpha virt. eigenvalues --    0.25181   0.27252   0.27449   0.28086   0.28395
 Alpha virt. eigenvalues --    0.28944   0.30914   0.32288   0.32385   0.32536

 Mulliken charges:
               1
     1  C   -0.170470
     2  C   -0.218622
     3  C   -0.170487
     4  C    0.158574
     5  C   -0.170563
     6  C   -0.218653
     7  H    0.226031
     8  H    0.223855
     9  H    0.275776
    10  H    0.276285
    11  H    0.223905
    12  N    0.488723
    13  O   -0.458607
    14  O   -0.460303
    15  C   -0.297306
    16  C   -0.299654
    17  C   -0.475140
    18  H    0.150196
    19  H    0.146570
    20  H    0.154406
    21  H    0.148529
    22  H    0.153749
    23  H    0.155507
    24  H    0.157488
    25  C   -0.302043
    26  C   -0.298149
    27  C   -0.485764
    28  H    0.161172
    29  H    0.143613
    30  H    0.151712
    31  H    0.145898
    32  H    0.146085
    33  H    0.182916
    34  H    0.154774
 Sum of Mulliken charges =  -0.00000

 Dipole moment (field-independent basis, Debye):
    X=              3.8563    Y=             -2.5358    Z=             -2.6592  Tot=              5.3266
 Quadrupole moment (field-independent basis, Debye-Ang):
   XX=            -77.9505   YY=            -92.2394   ZZ=            -95.4535
   XY=             -6.3177   XZ=             -7.1983   YZ=             -2.9412

 Normal termination of Gaussian 16 at Thu May  6 00:00:28 2021.
