 Gaussian 16, Revision A.03,
 Gaussian 16:  EM64L-G16RevA.03 25-Dec-2016

 -------------
 #p 6-31g* mp2
 -------------

 ------------------------------------------------------
 Input file generated by CHIRIPA (05-May-2021 14:51:10)
 ------------------------------------------------------
 Symbolic Z-matrix:
 Charge =  0 Multiplicity = 1

                         Standard orientation:
 ---------------------------------------------------------------------
 Center     Atomic      Atomic             Coordinates (Angstroms)
 Number     Number       Type             X           Y           Z
 ---------------------------------------------------------------------
      1          6           0       -2.915287   -0.055202    0.602632
      2          6           0       -2.609158    1.133378    1.514525
      3          6           0       -1.139655    1.194816    1.932356
      4          1           0       -2.640064   -0.985346    1.118413
      5          1           0       -2.280841    0.005358   -0.292469
      6          1           0       -3.244979    1.071343    2.406993
      7          1           0       -2.885320    2.060789    0.996588
      8          1           0       -0.492538    1.281025    1.053488
      9          1           0       -0.854240    0.285957    2.471907
     10          1           0       -0.943017    2.051998    2.583841
     11          6           0       -4.380361   -0.130206    0.176414
     12          6           0       -4.686491   -1.318785   -0.735478
     13          6           0       -6.155993   -1.380223   -1.153309
     14          1           0       -5.014807   -0.190766    1.071515
     15          1           0       -4.655584    0.799938   -0.339366
     16          1           0       -4.410329   -2.246197   -0.217542
     17          1           0       -4.050669   -1.256751   -1.627946
     18          1           0       -6.441408   -0.471365   -1.692860
     19          1           0       -6.803111   -1.466433   -0.274442
     20          1           0       -6.352631   -2.237405   -1.804794
     21          6           0        3.391208    0.571869   -0.926162
     22          6           0        2.119514    1.315718   -0.516937
     23          6           0        1.618424    2.270554   -1.600909
     24          1           0        4.175784    1.303243   -1.163811
     25          1           0        3.197580    0.009792   -1.850269
     26          1           0        2.315082    1.875121    0.406880
     27          1           0        1.337931    0.582486   -0.280050
     28          1           0        1.395794    1.723857   -2.522950
     29          1           0        2.378495    3.023837   -1.832117
     30          1           0        0.708530    2.791789   -1.287433
     31          6           0        3.904440   -0.386461    0.147116
     32          6           0        5.176135   -1.130311   -0.262110
     33          6           0        5.677224   -2.085146    0.821862
     34          1           0        4.098068    0.175615    1.071222
     35          1           0        3.119864   -1.117836    0.384764
     36          1           0        5.957716   -0.397079   -0.498996
     37          1           0        4.980566   -1.689714   -1.185927
     38          1           0        4.917153   -2.838430    1.053070
     39          1           0        5.899855   -1.538450    1.743903
     40          1           0        6.587118   -2.606382    0.508387
 ---------------------------------------------------------------------

 SCF Done:  E(RHF) =  -470.733064634     A.U. after   11 cycles
 E2 =    -0.1582765517D+01 EUMP2 =    -0.47231583015048D+03

 The electronic state is 1-A.
 Alpha  occ. eigenvalues --  -11.21603 -11.21593 -11.21591 -11.21569 -11.21402
 Alpha  occ. eigenvalues --  -11.21396 -11.21342 -11.21335 -11.21112 -11.21072
 Alpha  occ. eigenvalues --  -11.21061 -11.20968  -1.08437  -1.08411  -1.03560
 Alpha  occ. eigenvalues --   -1.03489  -0.96006  -0.95939  -0.87011  -0.86966
 Alpha  occ. eigenvalues --   -0.79689  -0.79497  -0.78287  -0.78186  -0.65092
 Alpha  occ. eigenvalues --   -0.65022  -0.61013  -0.60857  -0.59387  -0.59308
 Alpha  occ. eigenvalues --   -0.57702  -0.57483  -0.55296  -0.55203  -0.52691
 Alpha  occ. eigenvalues --   -0.52645  -0.52417  -0.52376  -0.49974  -0.49867
 Alpha  occ. eigenvalues --   -0.48088  -0.47741  -0.46726  -0.46515  -0.45886
 Alpha  occ. eigenvalues --   -0.45733  -0.45717  -0.45516  -0.43786  -0.43767
 Alpha virt. eigenvalues --    0.21540   0.23092   0.23486   0.25014   0.26165
 Alpha virt. eigenvalues --    0.26727   0.26968   0.27679   0.27713   0.28980
 Alpha virt. eigenvalues --    0.30728   0.31176   0.31515   0.31778   0.32320

 Mulliken charges:
               1
     1  C   -0.298447
     2  C   -0.299212
     3  C   -0.484327
     4  H    0.149448
     5  H    0.149023
     6  H    0.151670
     7  H    0.151459
     8  H    0.166258
     9  H    0.154541
    10  H    0.159607
    11  C   -0.298221
    12  C   -0.299654
    13  C   -0.475703
    14  H    0.149624
    15  H    0.149706
    16  H    0.151841
    17  H    0.151842
    18  H    0.155225
    19  H    0.155203
    20  H    0.160208
    21  C   -0.297508
    22  C   -0.303262
    23  C   -0.477677
    24  H    0.149532
    25  H    0.149315
    26  H    0.153357
    27  H    0.154314
    28  H    0.155111
    29  H    0.155837
    30  H    0.160560
    31  C   -0.298388
    32  C   -0.299666
    33  C   -0.475693
    34  H    0.149773
    35  H    0.149951
    36  H    0.151887
    37  H    0.151854
    38  H    0.155189
    39  H    0.155225
    40  H    0.160195
 Sum of Mulliken charges =  -0.00000

 Dipole moment (field-independent basis, Debye):
    X=              0.0271    Y=              0.0039    Z=             -0.0023  Tot=              0.0275
 Quadrupole moment (field-independent basis, Debye-Ang):
   XX=            -85.7704   YY=            -84.4564   ZZ=            -84.6318
   XY=              0.7703   XZ=             -0.6196   YZ=              0.2423

 Normal termination of Gaussian 16 at Thu May  6 03:48:33 2021.
