 Gaussian 16, Revision A.03,
 Gaussian 16:  EM64L-G16RevA.03 25-Dec-2016

 -------------
 #p 6-31g* mp2
 -------------

 ------------------------------------------------------
 Input file generated by CHIRIPA (05-May-2021 14:55:20)
 ------------------------------------------------------
 Symbolic Z-matrix:
 Charge =  0 Multiplicity = 1

                         Standard orientation:
 ---------------------------------------------------------------------
 Center     Atomic      Atomic             Coordinates (Angstroms)
 Number     Number       Type             X           Y           Z
 ---------------------------------------------------------------------
      1          6           0        1.093107   -1.504489    1.010917
      2          6           0        2.377323   -1.799951    1.479971
      3          6           0        3.496964   -1.169734    0.928810
      4          6           0        3.294900   -0.245084   -0.094656
      5          6           0        2.028146    0.070573   -0.583516
      6          6           0        0.922917   -0.571814   -0.017516
      7          1           0        0.228941   -1.998784    1.444836
      8          1           0        2.512501   -2.523853    2.278555
      9          1           0        4.502405   -1.379693    1.272938
     10          1           0        1.925066    0.796674   -1.380741
     11          1           0       -0.073244   -0.340387   -0.383780
     12          7           0        4.472585    0.428541   -0.686001
     13          8           0        4.267827    1.239376   -1.586699
     14          8           0        5.578114    0.132938   -0.237601
     15          6           0       -4.144281   -0.065664   -0.533474
     16          6           0       -5.266981   -1.011381   -0.105514
     17          6           0       -5.606204   -2.048935   -1.176123
     18          1           0       -4.437187    0.444861   -1.461113
     19          1           0       -3.248056   -0.655429   -0.770861
     20          1           0       -6.160403   -0.419902    0.132324
     21          1           0       -4.971448   -1.519573    0.821319
     22          1           0       -4.730508   -2.663781   -1.407899
     23          1           0       -5.926218   -1.557863   -2.100808
     24          1           0       -6.411206   -2.714552   -0.849342
     25          6           0       -3.793776    0.977294    0.526295
     26          6           0       -2.671077    1.923011    0.098335
     27          6           0       -2.331853    2.960564    1.168944
     28          1           0       -4.690001    1.567059    0.763682
     29          1           0       -3.500869    0.466768    1.453935
     30          1           0       -2.966609    2.431202   -0.828497
     31          1           0       -1.777655    1.331533   -0.139503
     32          1           0       -2.011839    2.469493    2.093629
     33          1           0       -3.207550    3.575411    1.400720
     34          1           0       -1.526851    3.626182    0.842163
 ---------------------------------------------------------------------

 SCF Done:  E(RHF) =  -669.535424132     A.U. after   15 cycles
 E2 =    -0.2091274997D+01 EUMP2 =    -0.67162669912821D+03

 The electronic state is 1-A.
 Alpha  occ. eigenvalues --  -20.60761 -20.60756 -15.85815 -11.31188 -11.27764
 Alpha  occ. eigenvalues --  -11.27757 -11.27513 -11.26780 -11.26759 -11.22477
 Alpha  occ. eigenvalues --  -11.22323 -11.22244 -11.22179 -11.21699 -11.21689
 Alpha  occ. eigenvalues --   -1.59837  -1.39390  -1.19365  -1.09238  -1.08759
 Alpha  occ. eigenvalues --   -1.04771  -1.04264  -0.96689  -0.95592  -0.87702
 Alpha  occ. eigenvalues --   -0.86171  -0.82426  -0.80340  -0.79063  -0.77468
 Alpha  occ. eigenvalues --   -0.72033  -0.71160  -0.70476  -0.65925  -0.65018
 Alpha  occ. eigenvalues --   -0.64762  -0.62167  -0.61618  -0.60055  -0.58305
 Alpha  occ. eigenvalues --   -0.55977  -0.55277  -0.53364  -0.53115  -0.53091
 Alpha  occ. eigenvalues --   -0.52876  -0.50630  -0.48806  -0.48787  -0.48629
 Alpha  occ. eigenvalues --   -0.47379  -0.46579  -0.46526  -0.44793  -0.44532
 Alpha  occ. eigenvalues --   -0.37347  -0.36367
 Alpha virt. eigenvalues --    0.05065   0.11229   0.16504   0.18973   0.22750
 Alpha virt. eigenvalues --    0.23694   0.24572   0.26295   0.27208   0.28210
 Alpha virt. eigenvalues --    0.29136   0.30330   0.31073   0.31350   0.32020

 Mulliken charges:
               1
     1  C   -0.172163
     2  C   -0.218526
     3  C   -0.170860
     4  C    0.158691
     5  C   -0.172477
     6  C   -0.224160
     7  H    0.225384
     8  H    0.223392
     9  H    0.275673
    10  H    0.275944
    11  H    0.231883
    12  N    0.488102
    13  O   -0.460309
    14  O   -0.460495
    15  C   -0.298256
    16  C   -0.299905
    17  C   -0.475986
    18  H    0.153260
    19  H    0.141315
    20  H    0.154871
    21  H    0.150531
    22  H    0.153932
    23  H    0.157223
    24  H    0.162392
    25  C   -0.298671
    26  C   -0.303617
    27  C   -0.475627
    28  H    0.153884
    29  H    0.147500
    30  H    0.155992
    31  H    0.143698
    32  H    0.155436
    33  H    0.158067
    34  H    0.163882
 Sum of Mulliken charges =  -0.00000

 Dipole moment (field-independent basis, Debye):
    X=             -4.3191    Y=             -2.2906    Z=              2.1026  Tot=              5.3219
 Quadrupole moment (field-independent basis, Debye-Ang):
   XX=           -119.4700   YY=            -92.7895   ZZ=            -93.9926
   XY=             -9.5719   XZ=              9.5391   YZ=             -2.9220

 Normal termination of Gaussian 16 at Thu May  6 02:55:28 2021.
