 Gaussian 16, Revision A.03,
 Gaussian 16:  EM64L-G16RevA.03 25-Dec-2016

 -------------
 #p 6-31g* mp2
 -------------

 ------------------------------------------------------
 Input file generated by CHIRIPA (05-May-2021 14:51:09)
 ------------------------------------------------------
 Symbolic Z-matrix:
 Charge =  0 Multiplicity = 1

                         Standard orientation:
 ---------------------------------------------------------------------
 Center     Atomic      Atomic             Coordinates (Angstroms)
 Number     Number       Type             X           Y           Z
 ---------------------------------------------------------------------
      1          6           0       -2.676642    1.497603    0.119519
      2          6           0       -1.578601    2.253823   -0.629095
      3          6           0       -1.650633    3.765981   -0.414658
      4          1           0       -3.657365    1.869431   -0.207393
      5          1           0       -2.599613    1.720771    1.192672
      6          1           0       -1.656818    2.028206   -1.700354
      7          1           0       -0.600382    1.880018   -0.300503
      8          1           0       -1.550101    4.009605    0.647952
      9          1           0       -2.612540    4.158634   -0.759852
     10          1           0       -0.856607    4.286893   -0.958748
     11          6           0       -2.617845   -0.015158   -0.084994
     12          6           0       -3.715885   -0.771377    0.663620
     13          6           0       -3.643854   -2.283535    0.449184
     14          1           0       -2.694873   -0.238325   -1.158147
     15          1           0       -1.637121   -0.386985    0.241918
     16          1           0       -4.694105   -0.397573    0.335028
     17          1           0       -3.637669   -0.545760    1.734879
     18          1           0       -2.681946   -2.676189    0.794378
     19          1           0       -3.744385   -2.527160   -0.613427
     20          1           0       -4.437879   -2.804448    0.993273
     21          6           0        2.771875   -0.038549    0.255041
     22          6           0        4.218020    0.428993    0.087555
     23          6           0        4.451644    1.836543    0.637116
     24          1           0        2.102997    0.670287   -0.252008
     25          1           0        2.506162   -0.011294    1.320897
     26          1           0        4.481369    0.399545   -0.977526
     27          1           0        4.883548   -0.281143    0.594898
     28          1           0        4.215954    1.877002    1.705486
     29          1           0        3.811489    2.561557    0.124128
     30          1           0        5.491940    2.150756    0.507060
     31          6           0        2.522611   -1.443896   -0.289567
     32          6           0        1.076466   -1.911439   -0.122080
     33          6           0        0.842843   -3.318988   -0.671641
     34          1           0        2.788324   -1.471152   -1.355422
     35          1           0        3.191489   -2.152732    0.217482
     36          1           0        0.410939   -1.201303   -0.629423
     37          1           0        0.813118   -1.881990    0.943001
     38          1           0        1.482998   -4.044002   -0.158653
     39          1           0        1.078533   -3.359448   -1.740011
     40          1           0       -0.197453   -3.633202   -0.541584
 ---------------------------------------------------------------------

 SCF Done:  E(RHF) =  -470.733138780     A.U. after   11 cycles
 E2 =    -0.1583928079D+01 EUMP2 =    -0.47231706685913D+03

 The electronic state is 1-A.
 Alpha  occ. eigenvalues --  -11.21627 -11.21612 -11.21592 -11.21582 -11.21434
 Alpha  occ. eigenvalues --  -11.21371 -11.21368 -11.21281 -11.21090 -11.21077
 Alpha  occ. eigenvalues --  -11.21076 -11.21063  -1.08470  -1.08398  -1.03559
 Alpha  occ. eigenvalues --   -1.03512  -0.95993  -0.95971  -0.87031  -0.86967
 Alpha  occ. eigenvalues --   -0.79669  -0.79555  -0.78426  -0.78075  -0.65144
 Alpha  occ. eigenvalues --   -0.64987  -0.60958  -0.60918  -0.59426  -0.59279
 Alpha  occ. eigenvalues --   -0.57606  -0.57587  -0.55310  -0.55233  -0.52701
 Alpha  occ. eigenvalues --   -0.52667  -0.52505  -0.52311  -0.49978  -0.49882
 Alpha  occ. eigenvalues --   -0.48013  -0.47859  -0.46726  -0.46611  -0.46243
 Alpha  occ. eigenvalues --   -0.45776  -0.45694  -0.45097  -0.43795  -0.43766
 Alpha virt. eigenvalues --    0.20889   0.22156   0.23404   0.24344   0.25385
 Alpha virt. eigenvalues --    0.26402   0.26793   0.27066   0.28305   0.29674
 Alpha virt. eigenvalues --    0.30961   0.31272   0.31692   0.31861   0.31932

 Mulliken charges:
               1
     1  C   -0.297421
     2  C   -0.303876
     3  C   -0.475431
     4  H    0.149460
     5  H    0.149397
     6  H    0.151397
     7  H    0.155014
     8  H    0.155472
     9  H    0.155319
    10  H    0.159918
    11  C   -0.307035
    12  C   -0.299039
    13  C   -0.478101
    14  H    0.148216
    15  H    0.160637
    16  H    0.151778
    17  H    0.151663
    18  H    0.157004
    19  H    0.155204
    20  H    0.160326
    21  C   -0.301819
    22  C   -0.299520
    23  C   -0.475780
    24  H    0.152458
    25  H    0.149070
    26  H    0.152119
    27  H    0.152151
    28  H    0.155098
    29  H    0.155273
    30  H    0.160397
    31  C   -0.297356
    32  C   -0.305989
    33  C   -0.477965
    34  H    0.149693
    35  H    0.149650
    36  H    0.159232
    37  H    0.150308
    38  H    0.155053
    39  H    0.155277
    40  H    0.162747
 Sum of Mulliken charges =  -0.00000

 Dipole moment (field-independent basis, Debye):
    X=              0.0155    Y=             -0.0070    Z=             -0.0031  Tot=              0.0172
 Quadrupole moment (field-independent basis, Debye-Ang):
   XX=            -84.5365   YY=            -86.9066   ZZ=            -83.3979
   XY=             -0.5444   XZ=              0.5639   YZ=             -0.8223

 Normal termination of Gaussian 16 at Wed May  5 23:00:15 2021.
