 Gaussian 16, Revision A.03,
 Gaussian 16:  EM64L-G16RevA.03 25-Dec-2016

 -------------
 #p 6-31g* mp2
 -------------

 ------------------------------------------------------
 Input file generated by CHIRIPA (05-May-2021 14:57:21)
 ------------------------------------------------------
 Symbolic Z-matrix:
 Charge =  0 Multiplicity = 1

                         Standard orientation:
 ---------------------------------------------------------------------
 Center     Atomic      Atomic             Coordinates (Angstroms)
 Number     Number       Type             X           Y           Z
 ---------------------------------------------------------------------
      1          6           0        5.464602    0.043777    0.936019
      2          6           0        5.104357   -1.121915    0.251980
      3          6           0        3.835394   -1.245081   -0.321702
      4          6           0        2.947576   -0.178240   -0.191624
      5          6           0        3.276882    0.995958    0.483732
      6          6           0        4.551325    1.097136    1.049511
      7          1           0        6.452492    0.130914    1.378599
      8          1           0        5.811576   -1.941572    0.162268
      9          1           0        3.530372   -2.136233   -0.856704
     10          1           0        2.550351    1.796122    0.556592
     11          1           0        4.828357    2.003610    1.580174
     12          7           0        1.601281   -0.296991   -0.794773
     13          8           0        0.837299    0.657175   -0.666185
     14          8           0        1.335530   -1.341986   -1.384687
     15          6           0       -4.118131   -2.045478    0.871763
     16          6           0       -4.045409   -0.963168    1.754847
     17          6           0       -3.521653    0.262781    1.333807
     18          6           0       -3.077748    0.371757    0.016855
     19          6           0       -3.136927   -0.688137   -0.886701
     20          6           0       -3.664458   -1.904756   -0.443874
     21          1           0       -4.526464   -2.994200    1.207300
     22          1           0       -4.396988   -1.069566    2.777157
     23          1           0       -3.453639    1.116939    1.996534
     24          1           0       -2.778561   -0.551639   -1.899795
     25          1           0       -3.719707   -2.743586   -1.131882
     26          7           0       -2.521272    1.664676   -0.440415
     27          8           0       -2.136858    1.734988   -1.605712
     28          8           0       -2.480059    2.583273    0.375133
 ---------------------------------------------------------------------

 SCF Done:  E(RHF) =  -868.337794155     A.U. after   16 cycles
 E2 =    -0.2600132669D+01 EUMP2 =    -0.87093792682331D+03

 The electronic state is 1-A.
 Alpha  occ. eigenvalues --  -20.60543 -20.60481 -20.59390 -20.59267 -15.85555
 Alpha  occ. eigenvalues --  -15.84387 -11.30952 -11.29937 -11.27561 -11.27482
 Alpha  occ. eigenvalues --  -11.27298 -11.26619 -11.26581 -11.26532 -11.26476
 Alpha  occ. eigenvalues --  -11.26408 -11.25703 -11.25602  -1.59587  -1.58371
 Alpha  occ. eigenvalues --   -1.39137  -1.37931  -1.19135  -1.18148  -1.08530
 Alpha  occ. eigenvalues --   -1.07520  -1.04541  -1.03596  -0.95356  -0.94324
 Alpha  occ. eigenvalues --   -0.85938  -0.84989  -0.82184  -0.81170  -0.77220
 Alpha  occ. eigenvalues --   -0.76162  -0.71825  -0.70911  -0.70641  -0.70247
 Alpha  occ. eigenvalues --   -0.69590  -0.69300  -0.64785  -0.64546  -0.63820
 Alpha  occ. eigenvalues --   -0.63632  -0.61881  -0.60945  -0.55053  -0.54142
 Alpha  occ. eigenvalues --   -0.52875  -0.52632  -0.51903  -0.51711  -0.48566
 Alpha  occ. eigenvalues --   -0.48530  -0.47414  -0.47357  -0.44537  -0.43261
 Alpha  occ. eigenvalues --   -0.37129  -0.36158  -0.36143  -0.35197
 Alpha virt. eigenvalues --    0.05295   0.06437   0.11506   0.12455   0.16785
 Alpha virt. eigenvalues --    0.17845   0.21640   0.22440   0.27551   0.28334
 Alpha virt. eigenvalues --    0.28554   0.29376   0.31186   0.31928   0.32833

 Mulliken charges:
               1
     1  C   -0.171000
     2  C   -0.218834
     3  C   -0.171380
     4  C    0.157842
     5  C   -0.171299
     6  C   -0.218955
     7  H    0.224790
     8  H    0.222058
     9  H    0.273769
    10  H    0.281144
    11  H    0.224082
    12  N    0.488732
    13  O   -0.454004
    14  O   -0.466591
    15  C   -0.172258
    16  C   -0.219662
    17  C   -0.172787
    18  C    0.162746
    19  C   -0.161887
    20  C   -0.218865
    21  H    0.220599
    22  H    0.217868
    23  H    0.271233
    24  H    0.280100
    25  H    0.221102
    26  N    0.493402
    27  O   -0.450887
    28  O   -0.471059
 Sum of Mulliken charges =  -0.00000

 Dipole moment (field-independent basis, Debye):
    X=              2.9917    Y=             -3.9782    Z=              3.4880  Tot=              6.0780
 Quadrupole moment (field-independent basis, Debye-Ang):
   XX=            -67.2867   YY=           -104.5531   ZZ=           -101.9147
   XY=             12.4348   XZ=             -0.0127   YZ=              3.8006

 Normal termination of Gaussian 16 at Thu May  6 16:11:53 2021.
