 Gaussian 16, Revision A.03,
 Gaussian 16:  EM64L-G16RevA.03 25-Dec-2016

 -------------
 #p 6-31g* mp2
 -------------

 ------------------------------------------------------
 Input file generated by CHIRIPA (05-May-2021 14:53:14)
 ------------------------------------------------------
 Symbolic Z-matrix:
 Charge =  0 Multiplicity = 1

                         Standard orientation:
 ---------------------------------------------------------------------
 Center     Atomic      Atomic             Coordinates (Angstroms)
 Number     Number       Type             X           Y           Z
 ---------------------------------------------------------------------
      1          6           0       -4.198376   -0.428976    0.041022
      2          6           0       -4.913954   -1.140089   -1.108000
      3          6           0       -5.340781   -2.563457   -0.747950
      4          1           0       -3.316323   -1.014826    0.333782
      5          1           0       -4.861435   -0.403461    0.916862
      6          1           0       -4.250262   -1.163032   -1.981844
      7          1           0       -5.794298   -0.552380   -1.398186
      8          1           0       -6.023001   -2.556113    0.108276
      9          1           0       -4.470192   -3.170234   -0.478699
     10          1           0       -5.850370   -3.053275   -1.583569
     11          6           0       -3.765506    0.994951   -0.303627
     12          6           0       -3.049928    1.706064    0.845395
     13          6           0       -2.623100    3.129432    0.485346
     14          1           0       -3.102446    0.969436   -1.179467
     15          1           0       -4.647559    1.580800   -0.596387
     16          1           0       -2.169583    1.118355    1.135581
     17          1           0       -3.713619    1.729007    1.719239
     18          1           0       -3.493690    3.736209    0.216094
     19          1           0       -1.940881    3.122088   -0.370880
     20          1           0       -2.113512    3.619250    1.320964
     21          6           0        1.120370   -0.707536    1.574691
     22          6           0        2.327992   -1.381218    1.785224
     23          6           0        3.437404   -1.119695    0.975683
     24          6           0        3.303328   -0.174055   -0.039738
     25          6           0        2.113668    0.513617   -0.274491
     26          6           0        1.017244    0.236067    0.547317
     27          1           0        0.263596   -0.916918    2.208327
     28          1           0        2.410977   -2.114542    2.582341
     29          1           0        4.384237   -1.626708    1.116616
     30          1           0        2.061477    1.239265   -1.077067
     31          1           0        0.080641    0.760780    0.381503
     32          7           0        4.470938    0.111290   -0.903257
     33          8           0        4.327039    0.948929   -1.791115
     34          8           0        5.507901   -0.508098   -0.675874
 ---------------------------------------------------------------------

 SCF Done:  E(RHF) =  -669.535463877     A.U. after   15 cycles
 E2 =    -0.2091287648D+01 EUMP2 =    -0.67162675152479D+03

 The electronic state is 1-A.
 Alpha  occ. eigenvalues --  -20.60751 -20.60746 -15.85804 -11.31169 -11.27739
 Alpha  occ. eigenvalues --  -11.27732 -11.27480 -11.26756 -11.26722 -11.22728
 Alpha  occ. eigenvalues --  -11.22282 -11.22231 -11.22164 -11.22027 -11.21608
 Alpha  occ. eigenvalues --   -1.59826  -1.39380  -1.19341  -1.09291  -1.08737
 Alpha  occ. eigenvalues --   -1.04746  -1.04355  -0.96776  -0.95572  -0.87791
 Alpha  occ. eigenvalues --   -0.86147  -0.82404  -0.80435  -0.79084  -0.77453
 Alpha  occ. eigenvalues --   -0.72023  -0.71149  -0.70452  -0.65999  -0.64993
 Alpha  occ. eigenvalues --   -0.64735  -0.62199  -0.61644  -0.60151  -0.58382
 Alpha  occ. eigenvalues --   -0.56067  -0.55242  -0.53465  -0.53190  -0.53075
 Alpha  occ. eigenvalues --   -0.52837  -0.50727  -0.48809  -0.48778  -0.48703
 Alpha  occ. eigenvalues --   -0.47486  -0.46620  -0.46535  -0.44785  -0.44600
 Alpha  occ. eigenvalues --   -0.37325  -0.36348
 Alpha virt. eigenvalues --    0.05083   0.11296   0.16575   0.18497   0.22761
 Alpha virt. eigenvalues --    0.23431   0.25139   0.26010   0.27120   0.28272
 Alpha virt. eigenvalues --    0.29013   0.30345   0.30936   0.31277   0.31864

 Mulliken charges:
               1
     1  C   -0.297786
     2  C   -0.300348
     3  C   -0.476153
     4  H    0.144890
     5  H    0.151050
     6  H    0.153615
     7  H    0.153950
     8  H    0.155670
     9  H    0.154799
    10  H    0.162876
    11  C   -0.299292
    12  C   -0.303335
    13  C   -0.477439
    14  H    0.149474
    15  H    0.154336
    16  H    0.139807
    17  H    0.157142
    18  H    0.161069
    19  H    0.153256
    20  H    0.163016
    21  C   -0.173119
    22  C   -0.218489
    23  C   -0.171312
    24  C    0.158991
    25  C   -0.171971
    26  C   -0.225757
    27  H    0.225596
    28  H    0.223384
    29  H    0.275551
    30  H    0.275809
    31  H    0.233690
    32  N    0.487948
    33  O   -0.460432
    34  O   -0.460485
 Sum of Mulliken charges =  -0.00000

 Dipole moment (field-independent basis, Debye):
    X=             -4.3452    Y=             -0.9590    Z=              3.0077  Tot=              5.3709
 Quadrupole moment (field-independent basis, Debye-Ang):
   XX=           -119.2986   YY=            -93.2179   ZZ=            -94.1256
   XY=             -5.6674   XZ=             11.7441   YZ=             -2.2324

 Normal termination of Gaussian 16 at Thu May  6 17:06:41 2021.
