 Gaussian 16, Revision A.03,
 Gaussian 16:  EM64L-G16RevA.03 25-Dec-2016

 -------------
 #p 6-31g* mp2
 -------------

 ------------------------------------------------------
 Input file generated by CHIRIPA (05-May-2021 14:51:09)
 ------------------------------------------------------
 Symbolic Z-matrix:
 Charge =  0 Multiplicity = 1

                         Standard orientation:
 ---------------------------------------------------------------------
 Center     Atomic      Atomic             Coordinates (Angstroms)
 Number     Number       Type             X           Y           Z
 ---------------------------------------------------------------------
      1          6           0       -1.968308    1.046503    0.605821
      2          6           0       -1.330551    2.428285    0.457729
      3          6           0       -0.681000    2.921260    1.751117
      4          1           0       -2.720591    1.080715    1.405724
      5          1           0       -1.201243    0.329002    0.928619
      6          1           0       -2.098294    3.142685    0.133971
      7          1           0       -0.579834    2.390828   -0.342043
      8          1           0        0.104544    2.230944    2.075133
      9          1           0       -1.422544    2.987073    2.553852
     10          1           0       -0.231300    3.910776    1.622713
     11          6           0       -2.621778    0.540054   -0.678785
     12          6           0       -3.259534   -0.841727   -0.530693
     13          6           0       -3.909085   -1.334702   -1.824081
     14          1           0       -3.388843    1.257556   -1.001583
     15          1           0       -1.869494    0.505843   -1.478688
     16          1           0       -4.010252   -0.804271    0.269079
     17          1           0       -2.491791   -1.556127   -0.206935
     18          1           0       -3.167541   -1.400515   -2.626816
     19          1           0       -4.694629   -0.644387   -2.148097
     20          1           0       -4.358786   -2.324218   -1.695677
     21          6           0        2.481910   -0.457371   -0.623577
     22          6           0        3.666022    0.502315   -0.501650
     23          6           0        4.027881    1.166526   -1.830438
     24          1           0        2.718966   -1.229333   -1.368444
     25          1           0        1.611798    0.092034   -1.008873
     26          1           0        4.533258   -0.048431   -0.115390
     27          1           0        3.426195    1.271970    0.243151
     28          1           0        3.179769    1.740290   -2.217870
     29          1           0        4.293123    0.412387   -2.578449
     30          1           0        4.876849    1.848429   -1.720337
     31          6           0        2.108175   -1.129186    0.696542
     32          6           0        0.924063   -2.088872    0.574614
     33          6           0        0.562205   -2.753084    1.903401
     34          1           0        2.978288   -1.678591    1.081837
     35          1           0        1.871120   -0.357225    1.441407
     36          1           0        1.163890   -2.858528   -0.170189
     37          1           0        0.056827   -1.538126    0.188354
     38          1           0        0.296963   -1.998945    2.651413
     39          1           0        1.410316   -3.326848    2.290834
     40          1           0       -0.286763   -3.434987    1.793301
 ---------------------------------------------------------------------

 SCF Done:  E(RHF) =  -470.733083464     A.U. after   11 cycles
 E2 =    -0.1584630769D+01 EUMP2 =    -0.47231771423331D+03

 The electronic state is 1-A.
 Alpha  occ. eigenvalues --  -11.21671 -11.21648 -11.21647 -11.21618 -11.21481
 Alpha  occ. eigenvalues --  -11.21448 -11.21422 -11.21387 -11.21147 -11.21123
 Alpha  occ. eigenvalues --  -11.21108 -11.21080  -1.08541  -1.08443  -1.03590
 Alpha  occ. eigenvalues --   -1.03571  -0.96040  -0.96019  -0.87050  -0.87039
 Alpha  occ. eigenvalues --   -0.79662  -0.79635  -0.78362  -0.78250  -0.65520
 Alpha  occ. eigenvalues --   -0.64776  -0.61019  -0.60946  -0.59429  -0.59361
 Alpha  occ. eigenvalues --   -0.57646  -0.57632  -0.55384  -0.55256  -0.52727
 Alpha  occ. eigenvalues --   -0.52711  -0.52477  -0.52427  -0.49985  -0.49970
 Alpha  occ. eigenvalues --   -0.48005  -0.47952  -0.46819  -0.46680  -0.46090
 Alpha  occ. eigenvalues --   -0.45810  -0.45752  -0.45328  -0.43843  -0.43825
 Alpha virt. eigenvalues --    0.18476   0.22223   0.23133   0.24575   0.25551
 Alpha virt. eigenvalues --    0.26077   0.27001   0.28066   0.28781   0.29985
 Alpha virt. eigenvalues --    0.30376   0.31500   0.31728   0.31791   0.32540

 Mulliken charges:
               1
     1  C   -0.305200
     2  C   -0.299959
     3  C   -0.476802
     4  H    0.150156
     5  H    0.155838
     6  H    0.152465
     7  H    0.151798
     8  H    0.155099
     9  H    0.155695
    10  H    0.160656
    11  C   -0.298655
    12  C   -0.304352
    13  C   -0.475539
    14  H    0.150094
    15  H    0.149539
    16  H    0.152192
    17  H    0.156141
    18  H    0.155453
    19  H    0.155167
    20  H    0.160338
    21  C   -0.299517
    22  C   -0.299875
    23  C   -0.475708
    24  H    0.150037
    25  H    0.149737
    26  H    0.152197
    27  H    0.152398
    28  H    0.155031
    29  H    0.155248
    30  H    0.160566
    31  C   -0.299730
    32  C   -0.308862
    33  C   -0.476508
    34  H    0.150333
    35  H    0.150226
    36  H    0.152681
    37  H    0.159372
    38  H    0.155828
    39  H    0.155714
    40  H    0.160706
 Sum of Mulliken charges =  -0.00000

 Dipole moment (field-independent basis, Debye):
    X=             -0.0005    Y=             -0.0112    Z=              0.0068  Tot=              0.0131
 Quadrupole moment (field-independent basis, Debye-Ang):
   XX=            -83.8873   YY=            -84.5075   ZZ=            -86.1710
   XY=             -1.3754   XZ=             -0.5028   YZ=              0.3514

 Normal termination of Gaussian 16 at Wed May  5 15:07:09 2021.
