 Gaussian 16, Revision A.03,
 Gaussian 16:  EM64L-G16RevA.03 25-Dec-2016

 -------------
 #p 6-31g* mp2
 -------------

 ------------------------------------------------------
 Input file generated by CHIRIPA (05-May-2021 14:51:07)
 ------------------------------------------------------
 Symbolic Z-matrix:
 Charge =  0 Multiplicity = 1

                         Standard orientation:
 ---------------------------------------------------------------------
 Center     Atomic      Atomic             Coordinates (Angstroms)
 Number     Number       Type             X           Y           Z
 ---------------------------------------------------------------------
      1          6           0        2.146136   -0.971115    0.721093
      2          6           0        1.310603   -2.236097    0.521873
      3          6           0        1.073090   -2.999068    1.825428
      4          1           0        3.111465   -1.243741    1.169157
      5          1           0        1.640124   -0.315857    1.443577
      6          1           0        1.817354   -2.888154   -0.201067
      7          1           0        0.347227   -1.960450    0.074055
      8          1           0        0.546507   -2.369403    2.549882
      9          1           0        2.024987   -3.302378    2.273197
     10          1           0        0.473745   -3.899767    1.659938
     11          6           0        2.392127   -0.197508   -0.573028
     12          6           0        3.227660    1.067474   -0.373807
     13          6           0        3.465173    1.830445   -1.677362
     14          1           0        2.898140   -0.852766   -1.295512
     15          1           0        1.426798    0.075118   -1.021091
     16          1           0        4.191036    0.791826    0.074011
     17          1           0        2.720910    1.719531    0.349133
     18          1           0        2.513276    2.133755   -2.125131
     19          1           0        3.991756    1.200780   -2.401816
     20          1           0        4.064518    2.731144   -1.511872
     21          6           0       -2.086059    1.325802   -0.084465
     22          6           0       -1.832059    1.907294    1.306698
     23          6           0       -1.466895    3.391564    1.269359
     24          1           0       -1.190123    1.468977   -0.703935
     25          1           0       -2.894400    1.891158   -0.568567
     26          1           0       -1.025378    1.340126    1.788571
     27          1           0       -2.728637    1.762547    1.922987
     28          1           0       -2.272694    3.975157    0.812515
     29          1           0       -0.559757    3.550336    0.677336
     30          1           0       -1.289559    3.786779    2.274456
     31          6           0       -2.452204   -0.157178   -0.063600
     32          6           0       -2.706205   -0.738671   -1.454764
     33          6           0       -3.071368   -2.222940   -1.417426
     34          1           0       -1.643864   -0.722535    0.420501
     35          1           0       -3.348140   -0.300353    0.555870
     36          1           0       -1.809627   -0.593924   -2.071053
     37          1           0       -3.512886   -0.171502   -1.936637
     38          1           0       -3.978506   -2.381712   -0.825401
     39          1           0       -2.265570   -2.806534   -0.960581
     40          1           0       -3.248704   -2.618155   -2.422521
 ---------------------------------------------------------------------

 SCF Done:  E(RHF) =  -470.733321402     A.U. after   11 cycles
 E2 =    -0.1584465417D+01 EUMP2 =    -0.47231778681898D+03

 The electronic state is 1-A.
 Alpha  occ. eigenvalues --  -11.21677 -11.21664 -11.21660 -11.21645 -11.21486
 Alpha  occ. eigenvalues --  -11.21465 -11.21427 -11.21396 -11.21131 -11.21128
 Alpha  occ. eigenvalues --  -11.21123 -11.21095  -1.08542  -1.08457  -1.03612
 Alpha  occ. eigenvalues --   -1.03568  -0.96044  -0.96028  -0.87064  -0.87039
 Alpha  occ. eigenvalues --   -0.79690  -0.79619  -0.78337  -0.78291  -0.65503
 Alpha  occ. eigenvalues --   -0.64789  -0.61152  -0.60840  -0.59432  -0.59372
 Alpha  occ. eigenvalues --   -0.57656  -0.57637  -0.55350  -0.55300  -0.52732
 Alpha  occ. eigenvalues --   -0.52721  -0.52476  -0.52445  -0.50040  -0.49934
 Alpha  occ. eigenvalues --   -0.48060  -0.47916  -0.46885  -0.46593  -0.46097
 Alpha  occ. eigenvalues --   -0.45811  -0.45694  -0.45452  -0.43851  -0.43836
 Alpha virt. eigenvalues --    0.18113   0.21931   0.23118   0.24539   0.25542
 Alpha virt. eigenvalues --    0.26483   0.26956   0.27947   0.28404   0.30535
 Alpha virt. eigenvalues --    0.30751   0.31528   0.31776   0.31938   0.32320

 Mulliken charges:
               1
     1  C   -0.299619
     2  C   -0.307766
     3  C   -0.476075
     4  H    0.150416
     5  H    0.150315
     6  H    0.152678
     7  H    0.158407
     8  H    0.155472
     9  H    0.155718
    10  H    0.160562
    11  C   -0.300827
    12  C   -0.299973
    13  C   -0.475752
    14  H    0.150053
    15  H    0.151035
    16  H    0.152384
    17  H    0.152021
    18  H    0.154846
    19  H    0.155438
    20  H    0.160656
    21  C   -0.299768
    22  C   -0.300920
    23  C   -0.475913
    24  H    0.150420
    25  H    0.150104
    26  H    0.152132
    27  H    0.152473
    28  H    0.155584
    29  H    0.155101
    30  H    0.160539
    31  C   -0.304920
    32  C   -0.300149
    33  C   -0.477587
    34  H    0.155461
    35  H    0.150251
    36  H    0.152148
    37  H    0.152368
    38  H    0.155355
    39  H    0.156747
    40  H    0.160583
 Sum of Mulliken charges =  -0.00000

 Dipole moment (field-independent basis, Debye):
    X=              0.0018    Y=             -0.0079    Z=              0.0038  Tot=              0.0089
 Quadrupole moment (field-independent basis, Debye-Ang):
   XX=            -83.0484   YY=            -85.9611   ZZ=            -85.4998
   XY=             -1.2010   XZ=             -0.0378   YZ=              0.5251

 Normal termination of Gaussian 16 at Wed May  5 21:15:42 2021.
