 Gaussian 16, Revision A.03,
 Gaussian 16:  EM64L-G16RevA.03 25-Dec-2016

 -------------
 #p 6-31g* mp2
 -------------

 ------------------------------------------------------
 Input file generated by CHIRIPA (05-May-2021 14:57:24)
 ------------------------------------------------------
 Symbolic Z-matrix:
 Charge =  0 Multiplicity = 1

                         Standard orientation:
 ---------------------------------------------------------------------
 Center     Atomic      Atomic             Coordinates (Angstroms)
 Number     Number       Type             X           Y           Z
 ---------------------------------------------------------------------
      1          6           0        4.549002   -1.961842   -0.213140
      2          6           0        4.220134   -1.568101    1.088142
      3          6           0        3.423368   -0.440714    1.308849
      4          6           0        2.970616    0.272910    0.200225
      5          6           0        3.281103   -0.094094   -1.108284
      6          6           0        4.079265   -1.224882   -1.305274
      7          1           0        5.168491   -2.838944   -0.375379
      8          1           0        4.583527   -2.138526    1.938204
      9          1           0        3.153617   -0.113577    2.305661
     10          1           0        2.903984    0.494637   -1.935686
     11          1           0        4.333080   -1.528328   -2.316977
     12          7           0        2.126377    1.468224    0.421324
     13          8           0        1.740057    2.079955   -0.572245
     14          8           0        1.866967    1.770746    1.584004
     15          6           0       -1.833256    2.014730   -0.768522
     16          6           0       -1.524709    0.801207   -1.391966
     17          6           0       -2.225432   -0.363461   -1.064731
     18          6           0       -3.233164   -0.278023   -0.105322
     19          6           0       -3.563963    0.916090    0.533393
     20          6           0       -2.850106    2.068204    0.190477
     21          1           0       -1.283817    2.914596   -1.028817
     22          1           0       -0.735508    0.756704   -2.137101
     23          1           0       -2.007199   -1.316121   -1.531884
     24          1           0       -4.355921    0.929111    1.272346
     25          1           0       -3.091891    3.009259    0.676277
     26          7           0       -3.981941   -1.504360    0.249407
     27          8           0       -4.865327   -1.402626    1.097886
     28          8           0       -3.671266   -2.544075   -0.327751
 ---------------------------------------------------------------------

 SCF Done:  E(RHF) =  -868.340149068     A.U. after   16 cycles
 E2 =    -0.2599462998D+01 EUMP2 =    -0.87093961206639D+03

 The electronic state is 1-A.
 Alpha  occ. eigenvalues --  -20.61666 -20.61609 -20.60173 -20.60164 -15.86654
 Alpha  occ. eigenvalues --  -15.85219 -11.31781 -11.30328 -11.28360 -11.28277
 Alpha  occ. eigenvalues --  -11.27987 -11.27290 -11.27238 -11.26921 -11.26893
 Alpha  occ. eigenvalues --  -11.26385 -11.25762 -11.25750  -1.60685  -1.59254
 Alpha  occ. eigenvalues --   -1.40254  -1.38815  -1.19922  -1.18470  -1.09357
 Alpha  occ. eigenvalues --   -1.07856  -1.05291  -1.03856  -0.96240  -0.94742
 Alpha  occ. eigenvalues --   -0.86700  -0.85231  -0.83087  -0.81610  -0.78166
 Alpha  occ. eigenvalues --   -0.76733  -0.72913  -0.71983  -0.71440  -0.71026
 Alpha  occ. eigenvalues --   -0.70577  -0.69452  -0.65581  -0.65289  -0.64098
 Alpha  occ. eigenvalues --   -0.63826  -0.62649  -0.61226  -0.55787  -0.54194
 Alpha  occ. eigenvalues --   -0.53626  -0.53380  -0.52179  -0.51934  -0.49665
 Alpha  occ. eigenvalues --   -0.49616  -0.48212  -0.48172  -0.45708  -0.44281
 Alpha  occ. eigenvalues --   -0.37876  -0.36883  -0.36310  -0.35482
 Alpha virt. eigenvalues --    0.04327   0.05835   0.10764   0.12197   0.15888
 Alpha virt. eigenvalues --    0.17418   0.20806   0.22449   0.26543   0.27395
 Alpha virt. eigenvalues --    0.28488   0.29421   0.30551   0.31490   0.32644

 Mulliken charges:
               1
     1  C   -0.169574
     2  C   -0.217883
     3  C   -0.169617
     4  C    0.159352
     5  C   -0.172666
     6  C   -0.218041
     7  H    0.228379
     8  H    0.226461
     9  H    0.277328
    10  H    0.270847
    11  H    0.224694
    12  N    0.491059
    13  O   -0.472190
    14  O   -0.455179
    15  C   -0.160756
    16  C   -0.220663
    17  C   -0.174407
    18  C    0.156781
    19  C   -0.171525
    20  C   -0.219175
    21  H    0.238653
    22  H    0.221835
    23  H    0.269700
    24  H    0.272659
    25  H    0.223026
    26  N    0.488380
    27  O   -0.462590
    28  O   -0.464886
 Sum of Mulliken charges =  -0.00000

 Dipole moment (field-independent basis, Debye):
    X=              6.0191    Y=              0.2690    Z=             -1.8983  Tot=              6.3171
 Quadrupole moment (field-independent basis, Debye-Ang):
   XX=           -104.2315   YY=           -108.8250   ZZ=            -98.2552
   XY=            -29.4432   XZ=              0.5791   YZ=             -0.0697

 Normal termination of Gaussian 16 at Fri May  7 00:18:57 2021.
