 Gaussian 16, Revision A.03,
 Gaussian 16:  EM64L-G16RevA.03 25-Dec-2016

 -------------
 #p 6-31g* mp2
 -------------

 ------------------------------------------------------
 Input file generated by CHIRIPA (05-May-2021 14:53:16)
 ------------------------------------------------------
 Symbolic Z-matrix:
 Charge =  0 Multiplicity = 1

                         Standard orientation:
 ---------------------------------------------------------------------
 Center     Atomic      Atomic             Coordinates (Angstroms)
 Number     Number       Type             X           Y           Z
 ---------------------------------------------------------------------
      1          6           0        4.365501    0.861312   -0.024223
      2          6           0        3.064994    1.547401    0.395239
      3          6           0        3.139087    3.070826    0.288083
      4          1           0        5.187885    1.234741    0.601221
      5          1           0        4.605072    1.145866   -1.058162
      6          1           0        2.827219    1.260541    1.427610
      7          1           0        2.245578    1.172154   -0.231148
      8          1           0        3.352298    3.374651   -0.741884
      9          1           0        3.937244    3.463541    0.926299
     10          1           0        2.198839    3.540914    0.592731
     11          6           0        4.307022   -0.661833    0.077444
     12          6           0        5.607529   -1.347922   -0.342019
     13          6           0        5.533437   -2.871347   -0.234862
     14          1           0        4.067451   -0.946387    1.111383
     15          1           0        3.484638   -1.035262   -0.548001
     16          1           0        6.426946   -0.972675    0.284369
     17          1           0        5.845305   -1.061063   -1.374390
     18          1           0        4.735279   -3.264062   -0.873079
     19          1           0        5.320225   -3.175172    0.795105
     20          1           0        6.473685   -3.341435   -0.539510
     21          6           0       -1.112346    1.009426   -0.100428
     22          6           0       -1.236426   -0.326153    0.296250
     23          6           0       -2.492142   -0.938881    0.344089
     24          6           0       -3.607678   -0.183042   -0.013090
     25          6           0       -3.516581    1.149422   -0.412502
     26          6           0       -2.250812    1.741660   -0.452917
     27          1           0       -0.132971    1.477449   -0.134706
     28          1           0       -0.354011   -0.897248    0.570551
     29          1           0       -2.616900   -1.971259    0.647485
     30          1           0       -4.414484    1.693090   -0.680105
     31          1           0       -2.157458    2.779054   -0.761369
     32          7           0       -4.942370   -0.820864    0.033625
     33          8           0       -5.909733   -0.133333   -0.285975
     34          8           0       -4.995863   -1.996242    0.388956
 ---------------------------------------------------------------------

 SCF Done:  E(RHF) =  -669.535635196     A.U. after   15 cycles
 E2 =    -0.2091118393D+01 EUMP2 =    -0.67162675358936D+03

 The electronic state is 1-A.
 Alpha  occ. eigenvalues --  -20.60716 -20.60710 -15.85769 -11.31121 -11.27692
 Alpha  occ. eigenvalues --  -11.27688 -11.27383 -11.26697 -11.26682 -11.22894
 Alpha  occ. eigenvalues --  -11.22361 -11.22297 -11.22235 -11.22215 -11.21650
 Alpha  occ. eigenvalues --   -1.59792  -1.39346  -1.19291  -1.09380  -1.08683
 Alpha  occ. eigenvalues --   -1.04694  -1.04463  -0.96879  -0.95523  -0.87894
 Alpha  occ. eigenvalues --   -0.86088  -0.82362  -0.80565  -0.79177  -0.77409
 Alpha  occ. eigenvalues --   -0.71987  -0.71115  -0.70410  -0.66004  -0.64940
 Alpha  occ. eigenvalues --   -0.64696  -0.62043  -0.61853  -0.60294  -0.58509
 Alpha  occ. eigenvalues --   -0.56152  -0.55166  -0.53584  -0.53301  -0.53024
 Alpha  occ. eigenvalues --   -0.52782  -0.50811  -0.48857  -0.48743  -0.48740
 Alpha  occ. eigenvalues --   -0.47586  -0.46711  -0.46607  -0.44754  -0.44707
 Alpha  occ. eigenvalues --   -0.37265  -0.36303
 Alpha virt. eigenvalues --    0.05122   0.11348   0.16604   0.19387   0.22396
 Alpha virt. eigenvalues --    0.23504   0.25324   0.25846   0.26098   0.28091
 Alpha virt. eigenvalues --    0.29066   0.30511   0.30563   0.31050   0.32145

 Mulliken charges:
               1
     1  C   -0.297620
     2  C   -0.305972
     3  C   -0.477533
     4  H    0.153697
     5  H    0.152325
     6  H    0.154304
     7  H    0.143058
     8  H    0.158354
     9  H    0.161462
    10  H    0.156937
    11  C   -0.299424
    12  C   -0.300270
    13  C   -0.476405
    14  H    0.149641
    15  H    0.147217
    16  H    0.153819
    17  H    0.153574
    18  H    0.155446
    19  H    0.155727
    20  H    0.162942
    21  C   -0.178080
    22  C   -0.221714
    23  C   -0.170922
    24  C    0.158173
    25  C   -0.170741
    26  C   -0.219942
    27  H    0.236994
    28  H    0.224019
    29  H    0.275366
    30  H    0.275269
    31  H    0.223528
    32  N    0.488041
    33  O   -0.460631
    34  O   -0.460638
 Sum of Mulliken charges =  -0.00000

 Dipole moment (field-independent basis, Debye):
    X=              5.0049    Y=              2.2615    Z=             -0.1522  Tot=              5.4943
 Quadrupole moment (field-independent basis, Debye-Ang):
   XX=           -127.0656   YY=            -93.0685   ZZ=            -94.1351
   XY=            -10.8469   XZ=              1.6493   YZ=             -1.4369

 Normal termination of Gaussian 16 at Wed May  5 15:41:47 2021.
