 Gaussian 16, Revision A.03,
 Gaussian 16:  EM64L-G16RevA.03 25-Dec-2016

 -------------
 #p 6-31g* mp2
 -------------

 ------------------------------------------------------
 Input file generated by CHIRIPA (05-May-2021 14:55:22)
 ------------------------------------------------------
 Symbolic Z-matrix:
 Charge =  0 Multiplicity = 1

                         Standard orientation:
 ---------------------------------------------------------------------
 Center     Atomic      Atomic             Coordinates (Angstroms)
 Number     Number       Type             X           Y           Z
 ---------------------------------------------------------------------
      1          6           0       -1.383869    1.153914   -0.384714
      2          6           0       -1.445684   -0.190744   -0.004459
      3          6           0       -2.678757   -0.838318    0.116890
      4          6           0       -3.835388   -0.107688   -0.150831
      5          6           0       -3.806572    1.232998   -0.531647
      6          6           0       -2.562432    1.860248   -0.646632
      7          1           0       -0.421690    1.649072   -0.476509
      8          1           0       -0.532024   -0.741780    0.199576
      9          1           0       -2.755529   -1.878452    0.409542
     10          1           0       -4.734507    1.756089   -0.728446
     11          1           0       -2.517457    2.904617   -0.942124
     12          7           0       -5.146645   -0.782488   -0.025732
     13          8           0       -6.151157   -0.116675   -0.267160
     14          8           0       -5.145069   -1.964431    0.311379
     15          6           0        5.113823   -0.527040   -0.061430
     16          6           0        6.483332    0.045160   -0.428876
     17          6           0        7.434797   -1.012345   -0.989403
     18          1           0        5.245247   -1.331437    0.675196
     19          1           0        4.666218   -0.989057   -0.952263
     20          1           0        6.927623    0.507180    0.462055
     21          1           0        6.348616    0.848418   -1.164570
     22          1           0        7.016369   -1.466680   -1.893337
     23          1           0        7.598665   -1.809856   -0.257470
     24          1           0        8.407840   -0.581635   -1.245406
     25          6           0        4.151526    0.518010    0.500338
     26          6           0        2.782017   -0.054190    0.867784
     27          6           0        1.830552    1.003316    1.428310
     28          1           0        4.599132    0.980028    1.391171
     29          1           0        4.020102    1.322408   -0.236288
     30          1           0        2.916732   -0.857448    1.603477
     31          1           0        2.337727   -0.516210   -0.023148
     32          1           0        1.666685    1.800827    0.696378
     33          1           0        2.248980    1.457651    2.332245
     34          1           0        0.857510    0.572605    1.684313
 ---------------------------------------------------------------------

 SCF Done:  E(RHF) =  -669.534254839     A.U. after   15 cycles
 E2 =    -0.2092460080D+01 EUMP2 =    -0.67162671491878D+03

 The electronic state is 1-A.
 Alpha  occ. eigenvalues --  -20.60714 -20.60708 -15.85767 -11.31117 -11.27698
 Alpha  occ. eigenvalues --  -11.27692 -11.27364 -11.26683 -11.26654 -11.22788
 Alpha  occ. eigenvalues --  -11.22364 -11.22304 -11.22198 -11.22091 -11.21557
 Alpha  occ. eigenvalues --   -1.59790  -1.39344  -1.19292  -1.09305  -1.08683
 Alpha  occ. eigenvalues --   -1.04707  -1.04422  -0.96890  -0.95514  -0.87905
 Alpha  occ. eigenvalues --   -0.86089  -0.82360  -0.80512  -0.79060  -0.77414
 Alpha  occ. eigenvalues --   -0.71987  -0.71114  -0.70419  -0.65948  -0.64948
 Alpha  occ. eigenvalues --   -0.64759  -0.62142  -0.61784  -0.60205  -0.58457
 Alpha  occ. eigenvalues --   -0.56270  -0.55108  -0.53641  -0.53322  -0.52954
 Alpha  occ. eigenvalues --   -0.52699  -0.50784  -0.48829  -0.48741  -0.48723
 Alpha  occ. eigenvalues --   -0.47534  -0.46608  -0.46501  -0.44754  -0.44654
 Alpha  occ. eigenvalues --   -0.37234  -0.36299
 Alpha virt. eigenvalues --    0.05127   0.11218   0.16610   0.19483   0.22512
 Alpha virt. eigenvalues --    0.24024   0.25165   0.25643   0.26643   0.27604
 Alpha virt. eigenvalues --    0.29217   0.29810   0.31113   0.31511   0.31977

 Mulliken charges:
               1
     1  C   -0.170405
     2  C   -0.225771
     3  C   -0.171805
     4  C    0.158084
     5  C   -0.170636
     6  C   -0.220171
     7  H    0.231679
     8  H    0.228374
     9  H    0.275508
    10  H    0.275333
    11  H    0.223230
    12  N    0.488083
    13  O   -0.460669
    14  O   -0.460674
    15  C   -0.299113
    16  C   -0.300282
    17  C   -0.476199
    18  H    0.151425
    19  H    0.149885
    20  H    0.153112
    21  H    0.152240
    22  H    0.155812
    23  H    0.156222
    24  H    0.162031
    25  C   -0.298302
    26  C   -0.304067
    27  C   -0.485277
    28  H    0.152851
    29  H    0.149357
    30  H    0.157058
    31  H    0.147483
    32  H    0.148651
    33  H    0.164122
    34  H    0.162828
 Sum of Mulliken charges =  -0.00000

 Dipole moment (field-independent basis, Debye):
    X=              4.8813    Y=              2.3792    Z=             -0.3800  Tot=              5.4435
 Quadrupole moment (field-independent basis, Debye-Ang):
   XX=           -129.2787   YY=            -92.2625   ZZ=            -94.2003
   XY=            -11.5508   XZ=              2.5356   YZ=             -2.0658

 Normal termination of Gaussian 16 at Wed May  5 23:53:36 2021.
