 Gaussian 16, Revision A.03,
 Gaussian 16:  EM64L-G16RevA.03 25-Dec-2016

 -------------
 #p 6-31g* mp2
 -------------

 ------------------------------------------------------
 Input file generated by CHIRIPA (05-May-2021 14:57:27)
 ------------------------------------------------------
 Symbolic Z-matrix:
 Charge =  0 Multiplicity = 1

                         Standard orientation:
 ---------------------------------------------------------------------
 Center     Atomic      Atomic             Coordinates (Angstroms)
 Number     Number       Type             X           Y           Z
 ---------------------------------------------------------------------
      1          6           0       -2.821641    2.318985    0.279933
      2          6           0       -4.100754    2.101661    0.802582
      3          6           0       -4.721255    0.856284    0.666337
      4          6           0       -4.030683   -0.153943   -0.001378
      5          6           0       -2.755472    0.031630   -0.533063
      6          6           0       -2.154259    1.285099   -0.385049
      7          1           0       -2.347113    3.289567    0.390343
      8          1           0       -4.621423    2.902754    1.319494
      9          1           0       -5.710795    0.660728    1.061286
     10          1           0       -2.261433   -0.786294   -1.043302
     11          1           0       -1.160809    1.451012   -0.791958
     12          7           0       -4.677370   -1.476651   -0.151844
     13          8           0       -4.047877   -2.350321   -0.744361
     14          8           0       -5.801490   -1.614673    0.325586
     15          6           0        6.315033   -0.536108    0.629675
     16          6           0        5.278386   -0.797251    1.531723
     17          6           0        3.949907   -0.539579    1.180586
     18          6           0        3.692955   -0.018419   -0.086560
     19          6           0        4.703924    0.252409   -1.007365
     20          6           0        6.025005   -0.013033   -0.634760
     21          1           0        7.344154   -0.739291    0.910786
     22          1           0        5.500666   -1.203478    2.514381
     23          1           0        3.128075   -0.732355    1.859443
     24          1           0        4.451150    0.657349   -1.979757
     25          1           0        6.828056    0.190758   -1.337343
     26          7           0        2.290470    0.258479   -0.469656
     27          8           0        2.090432    0.717628   -1.592066
     28          8           0        1.417797    0.011120    0.359736
 ---------------------------------------------------------------------

 SCF Done:  E(RHF) =  -868.340939275     A.U. after   16 cycles
 E2 =    -0.2598585827D+01 EUMP2 =    -0.87093952510168D+03

 The electronic state is 1-A.
 Alpha  occ. eigenvalues --  -20.61766 -20.61760 -20.59795 -20.59782 -15.86745
 Alpha  occ. eigenvalues --  -15.84829 -11.31798 -11.29957 -11.28329 -11.28315
 Alpha  occ. eigenvalues --  -11.28013 -11.27270 -11.27257 -11.26546 -11.26336
 Alpha  occ. eigenvalues --  -11.26161 -11.25576 -11.25181  -1.60815  -1.58870
 Alpha  occ. eigenvalues --   -1.40370  -1.38429  -1.19940  -1.18082  -1.09399
 Alpha  occ. eigenvalues --   -1.07534  -1.05292  -1.03409  -0.96284  -0.94414
 Alpha  occ. eigenvalues --   -0.86705  -0.84833  -0.83123  -0.81226  -0.78207
 Alpha  occ. eigenvalues --   -0.76298  -0.72970  -0.72099  -0.71058  -0.71043
 Alpha  occ. eigenvalues --   -0.70188  -0.69219  -0.65594  -0.65293  -0.63721
 Alpha  occ. eigenvalues --   -0.63379  -0.62640  -0.60741  -0.55809  -0.53974
 Alpha  occ. eigenvalues --   -0.53640  -0.53378  -0.51804  -0.51493  -0.49752
 Alpha  occ. eigenvalues --   -0.49699  -0.47823  -0.47787  -0.45837  -0.43887
 Alpha  occ. eigenvalues --   -0.37902  -0.36879  -0.36089  -0.34989
 Alpha virt. eigenvalues --    0.04302   0.06171   0.10781   0.12640   0.15865
 Alpha virt. eigenvalues --    0.17734   0.20956   0.22816   0.26892   0.27820
 Alpha virt. eigenvalues --    0.28902   0.29518   0.30558   0.32045   0.32409

 Mulliken charges:
               1
     1  C   -0.173656
     2  C   -0.218787
     3  C   -0.174309
     4  C    0.157247
     5  C   -0.171842
     6  C   -0.217676
     7  H    0.221970
     8  H    0.217840
     9  H    0.270687
    10  H    0.277618
    11  H    0.244982
    12  N    0.488092
    13  O   -0.461717
    14  O   -0.464956
    15  C   -0.169576
    16  C   -0.218618
    17  C   -0.170291
    18  C    0.157966
    19  C   -0.170393
    20  C   -0.218633
    21  H    0.227902
    22  H    0.225809
    23  H    0.277051
    24  H    0.275896
    25  H    0.225321
    26  N    0.488828
    27  O   -0.464351
    28  O   -0.462402
 Sum of Mulliken charges =  -0.00000

 Dipole moment (field-independent basis, Debye):
    X=              7.9126    Y=              3.6392    Z=              1.8373  Tot=              8.9010
 Quadrupole moment (field-independent basis, Debye-Ang):
   XX=            -84.5290   YY=           -106.8494   ZZ=           -100.6030
   XY=            -23.9997   XZ=             -0.8917   YZ=             -0.9630

 Normal termination of Gaussian 16 at Fri May  7 03:35:18 2021.
