 Gaussian 16, Revision A.03,
 Gaussian 16:  EM64L-G16RevA.03 25-Dec-2016

 -------------
 #p 6-31g* mp2
 -------------

 ------------------------------------------------------
 Input file generated by CHIRIPA (05-May-2021 14:51:10)
 ------------------------------------------------------
 Symbolic Z-matrix:
 Charge =  0 Multiplicity = 1

                         Standard orientation:
 ---------------------------------------------------------------------
 Center     Atomic      Atomic             Coordinates (Angstroms)
 Number     Number       Type             X           Y           Z
 ---------------------------------------------------------------------
      1          6           0       -2.260338   -0.848055   -0.325312
      2          6           0       -1.628492   -2.144702    0.182095
      3          6           0       -0.235513   -2.390228   -0.398524
      4          1           0       -2.319160   -0.880909   -1.421855
      5          1           0       -1.602900   -0.004638   -0.072692
      6          1           0       -2.287594   -2.985269   -0.070189
      7          1           0       -1.571344   -2.108837    1.277570
      8          1           0        0.441446   -1.571063   -0.135283
      9          1           0       -0.278874   -2.452475   -1.490699
     10          1           0        0.197576   -3.322383   -0.022514
     11          6           0       -3.653115   -0.588702    0.246208
     12          6           0       -4.284961    0.707945   -0.261200
     13          6           0       -5.677941    0.953472    0.319420
     14          1           0       -4.310554   -1.432119   -0.006413
     15          1           0       -3.594294   -0.555847    1.342751
     16          1           0       -4.342110    0.672081   -1.356674
     17          1           0       -3.625860    1.548513   -0.008915
     18          1           0       -5.634580    1.015718    1.411595
     19          1           0       -6.354900    0.134307    0.056179
     20          1           0       -6.111029    1.885626   -0.056590
     21          6           0        3.203977    0.082215   -0.303370
     22          6           0        3.809332   -0.933271    0.666332
     23          6           0        4.299424   -2.200629   -0.034673
     24          1           0        2.369090   -0.386964   -0.841681
     25          1           0        3.954366    0.347883   -1.060821
     26          1           0        3.058473   -1.195900    1.422542
     27          1           0        4.642753   -0.461562    1.202535
     28          1           0        5.067171   -1.958154   -0.776544
     29          1           0        3.473889   -2.696666   -0.555288
     30          1           0        4.728376   -2.912807    0.677129
     31          6           0        2.709476    1.354541    0.382474
     32          6           0        2.104122    2.370028   -0.587227
     33          6           0        1.614029    3.637385    0.113777
     34          1           0        1.959088    1.088874    1.139925
     35          1           0        3.544364    1.823720    0.920785
     36          1           0        1.270700    1.898318   -1.123431
     37          1           0        2.854980    2.632656   -1.343437
     38          1           0        2.439565    4.133422    0.634392
     39          1           0        0.846283    3.394911    0.855649
     40          1           0        1.185077    4.349563   -0.598025
 ---------------------------------------------------------------------

 SCF Done:  E(RHF) =  -470.733286702     A.U. after   11 cycles
 E2 =    -0.1583266077D+01 EUMP2 =    -0.47231655277890D+03

 The electronic state is 1-A.
 Alpha  occ. eigenvalues --  -11.21679 -11.21637 -11.21606 -11.21562 -11.21470
 Alpha  occ. eigenvalues --  -11.21406 -11.21395 -11.21305 -11.21153 -11.21097
 Alpha  occ. eigenvalues --  -11.21085 -11.21006  -1.08494  -1.08414  -1.03594
 Alpha  occ. eigenvalues --   -1.03505  -0.96045  -0.95957  -0.87069  -0.86968
 Alpha  occ. eigenvalues --   -0.79665  -0.79565  -0.78318  -0.78212  -0.65230
 Alpha  occ. eigenvalues --   -0.64977  -0.61052  -0.60846  -0.59408  -0.59326
 Alpha  occ. eigenvalues --   -0.57669  -0.57555  -0.55401  -0.55179  -0.52732
 Alpha  occ. eigenvalues --   -0.52652  -0.52508  -0.52348  -0.50086  -0.49801
 Alpha  occ. eigenvalues --   -0.48010  -0.47867  -0.46723  -0.46592  -0.45961
 Alpha  occ. eigenvalues --   -0.45795  -0.45724  -0.45490  -0.43843  -0.43765
 Alpha virt. eigenvalues --    0.19983   0.22924   0.23740   0.24780   0.25863
 Alpha virt. eigenvalues --    0.26808   0.27257   0.27511   0.27789   0.29399
 Alpha virt. eigenvalues --    0.30730   0.31574   0.31648   0.31788   0.32247

 Mulliken charges:
               1
     1  C   -0.298744
     2  C   -0.299710
     3  C   -0.483026
     4  H    0.149906
     5  H    0.149066
     6  H    0.152412
     7  H    0.152029
     8  H    0.161914
     9  H    0.155415
    10  H    0.161103
    11  C   -0.298335
    12  C   -0.299755
    13  C   -0.475751
    14  H    0.149791
    15  H    0.149735
    16  H    0.152045
    17  H    0.152073
    18  H    0.155240
    19  H    0.155236
    20  H    0.160454
    21  C   -0.304031
    22  C   -0.299666
    23  C   -0.477184
    24  H    0.154959
    25  H    0.149992
    26  H    0.151946
    27  H    0.151760
    28  H    0.154834
    29  H    0.157749
    30  H    0.159800
    31  C   -0.298805
    32  C   -0.300255
    33  C   -0.475539
    34  H    0.148435
    35  H    0.149952
    36  H    0.152498
    37  H    0.152220
    38  H    0.155287
    39  H    0.154526
    40  H    0.160423
 Sum of Mulliken charges =  -0.00000

 Dipole moment (field-independent basis, Debye):
    X=             -0.0248    Y=             -0.0159    Z=             -0.0173  Tot=              0.0342
 Quadrupole moment (field-independent basis, Debye-Ang):
   XX=            -84.9431   YY=            -85.3725   ZZ=            -84.3945
   XY=              1.3385   XZ=              0.6612   YZ=             -0.1057

 Normal termination of Gaussian 16 at Wed May  5 23:01:20 2021.
