 Gaussian 16, Revision A.03,
 Gaussian 16:  EM64L-G16RevA.03 25-Dec-2016

 -------------
 #p 6-31g* mp2
 -------------

 ------------------------------------------------------
 Input file generated by CHIRIPA (05-May-2021 14:51:13)
 ------------------------------------------------------
 Symbolic Z-matrix:
 Charge =  0 Multiplicity = 1

                         Standard orientation:
 ---------------------------------------------------------------------
 Center     Atomic      Atomic             Coordinates (Angstroms)
 Number     Number       Type             X           Y           Z
 ---------------------------------------------------------------------
      1          6           0        4.675211   -0.166094    0.243249
      2          6           0        5.719024   -1.162951   -0.261444
      3          6           0        6.767155   -1.508030    0.796921
      4          1           0        5.182426    0.751353    0.571837
      5          1           0        4.178519   -0.583420    1.130114
      6          1           0        6.212635   -0.744460   -1.147914
      7          1           0        5.209248   -2.078057   -0.589047
      8          1           0        6.292719   -1.949190    1.679468
      9          1           0        7.301807   -0.608016    1.117425
     10          1           0        7.503427   -2.222071    0.414939
     11          6           0        3.620584    0.188763   -0.803445
     12          6           0        2.576771    1.185620   -0.298753
     13          6           0        1.528640    1.530699   -1.357117
     14          1           0        4.117276    0.606090   -1.690311
     15          1           0        3.113369   -0.728683   -1.132033
     16          1           0        3.086547    2.100727    0.028850
     17          1           0        2.083160    0.767130    0.587718
     18          1           0        0.993988    0.630686   -1.677621
     19          1           0        2.003076    1.971860   -2.239664
     20          1           0        0.792368    2.244740   -0.975136
     21          6           0       -4.771420   -0.421208    0.443361
     22          6           0       -5.620869   -0.748353   -0.785215
     23          6           0       -6.864761   -1.568745   -0.442453
     24          1           0       -4.471303   -1.357440    0.933611
     25          1           0       -5.385932    0.128811    1.169481
     26          1           0       -5.004551   -1.296385   -1.509389
     27          1           0       -5.918839    0.188761   -1.272706
     28          1           0       -7.502884   -1.025012    0.261645
     29          1           0       -6.583401   -2.518596    0.023617
     30          1           0       -7.457442   -1.791334   -1.335225
     31          6           0       -3.524375    0.398538    0.116836
     32          6           0       -2.674925    0.725683    1.345411
     33          6           0       -1.431035    1.546075    1.002649
     34          1           0       -2.909864   -0.151481   -0.609284
     35          1           0       -3.824492    1.334770   -0.373414
     36          1           0       -2.376956   -0.211431    1.832902
     37          1           0       -3.291244    1.273715    2.069586
     38          1           0       -1.712394    2.495926    0.536580
     39          1           0       -0.792912    1.002342    0.298551
     40          1           0       -0.838353    1.768664    1.895421
 ---------------------------------------------------------------------

 SCF Done:  E(RHF) =  -470.732497016     A.U. after   11 cycles
 E2 =    -0.1582914370D+01 EUMP2 =    -0.47231541138668D+03

 The electronic state is 1-A.
 Alpha  occ. eigenvalues --  -11.21596 -11.21590 -11.21575 -11.21551 -11.21395
 Alpha  occ. eigenvalues --  -11.21383 -11.21336 -11.21323 -11.21068 -11.21063
 Alpha  occ. eigenvalues --  -11.20986 -11.20974  -1.08426  -1.08397  -1.03558
 Alpha  occ. eigenvalues --   -1.03460  -0.96054  -0.95869  -0.87092  -0.86869
 Alpha  occ. eigenvalues --   -0.79627  -0.79521  -0.78232  -0.78217  -0.65097
 Alpha  occ. eigenvalues --   -0.64999  -0.61081  -0.60771  -0.59355  -0.59332
 Alpha  occ. eigenvalues --   -0.57715  -0.57438  -0.55453  -0.55046  -0.52868
 Alpha  occ. eigenvalues --   -0.52633  -0.52428  -0.52110  -0.50020  -0.49755
 Alpha  occ. eigenvalues --   -0.47975  -0.47764  -0.46623  -0.46572  -0.45766
 Alpha  occ. eigenvalues --   -0.45761  -0.45693  -0.45679  -0.43771  -0.43725
 Alpha virt. eigenvalues --    0.21924   0.23045   0.23567   0.24897   0.26388
 Alpha virt. eigenvalues --    0.26614   0.27136   0.27263   0.27836   0.29200
 Alpha virt. eigenvalues --    0.29919   0.31305   0.31582   0.32146   0.32259

 Mulliken charges:
               1
     1  C   -0.298227
     2  C   -0.299608
     3  C   -0.475686
     4  H    0.149664
     5  H    0.149379
     6  H    0.151929
     7  H    0.151803
     8  H    0.155123
     9  H    0.155186
    10  H    0.160192
    11  C   -0.298067
    12  C   -0.301485
    13  C   -0.480876
    14  H    0.149546
    15  H    0.149178
    16  H    0.151999
    17  H    0.153617
    18  H    0.152773
    19  H    0.155346
    20  H    0.167419
    21  C   -0.298241
    22  C   -0.299625
    23  C   -0.475695
    24  H    0.149486
    25  H    0.149552
    26  H    0.151876
    27  H    0.151993
    28  H    0.155182
    29  H    0.155114
    30  H    0.160246
    31  C   -0.298179
    32  C   -0.300056
    33  C   -0.482110
    34  H    0.149286
    35  H    0.149707
    36  H    0.151387
    37  H    0.151541
    38  H    0.153928
    39  H    0.165537
    40  H    0.159869
 Sum of Mulliken charges =  -0.00000

 Dipole moment (field-independent basis, Debye):
    X=             -0.0016    Y=              0.0192    Z=             -0.0040  Tot=              0.0197
 Quadrupole moment (field-independent basis, Debye-Ang):
   XX=            -85.8916   YY=            -83.8725   ZZ=            -85.1994
   XY=             -0.2476   XZ=             -0.6512   YZ=              0.1233

 Normal termination of Gaussian 16 at Thu May  6 05:34:22 2021.
