 Gaussian 16, Revision A.03,
 Gaussian 16:  EM64L-G16RevA.03 25-Dec-2016

 -------------
 #p 6-31g* mp2
 -------------

 ------------------------------------------------------
 Input file generated by CHIRIPA (05-May-2021 14:51:11)
 ------------------------------------------------------
 Symbolic Z-matrix:
 Charge =  0 Multiplicity = 1

                         Standard orientation:
 ---------------------------------------------------------------------
 Center     Atomic      Atomic             Coordinates (Angstroms)
 Number     Number       Type             X           Y           Z
 ---------------------------------------------------------------------
      1          6           0       -3.539320    0.350445   -0.323231
      2          6           0       -4.736107    1.257171   -0.034211
      3          6           0       -5.200488    2.033941   -1.266596
      4          1           0       -2.710239    0.959830   -0.708225
      5          1           0       -3.806752   -0.354313   -1.122725
      6          1           0       -4.466954    1.959100    0.765458
      7          1           0       -5.562371    0.645584    0.350321
      8          1           0       -5.495586    1.346975   -2.066343
      9          1           0       -4.393945    2.667954   -1.648848
     10          1           0       -6.056906    2.675736   -1.037449
     11          6           0       -3.063473   -0.432695    0.899058
     12          6           0       -1.866685   -1.339421    0.610038
     13          6           0       -1.402304   -2.116191    1.842423
     14          1           0       -2.796041    0.272063    1.698552
     15          1           0       -3.892554   -1.042080    1.284052
     16          1           0       -1.040421   -0.727834    0.225506
     17          1           0       -2.135838   -2.041350   -0.189631
     18          1           0       -2.208848   -2.750204    2.224675
     19          1           0       -1.107207   -1.429225    2.642170
     20          1           0       -0.545887   -2.757986    1.613276
     21          6           0        3.212878   -0.488331   -0.831304
     22          6           0        2.223338   -1.589658   -0.449372
     23          6           0        2.056968   -2.641421   -1.546600
     24          1           0        2.873264   -0.003958   -1.757042
     25          1           0        4.187822   -0.942738   -1.055790
     26          1           0        1.250920   -1.133174   -0.224332
     27          1           0        2.565245   -2.071337    0.475669
     28          1           0        3.014954   -3.123632   -1.766453
     29          1           0        1.693161   -2.180138   -2.470432
     30          1           0        1.345242   -3.419160   -1.252611
     31          6           0        3.389914    0.570581    0.255477
     32          6           0        4.379455    1.671908   -0.126455
     33          6           0        4.545825    2.723671    0.970773
     34          1           0        2.414971    1.024988    0.479963
     35          1           0        3.729528    0.086208    1.181216
     36          1           0        4.037547    2.153587   -1.051496
     37          1           0        5.351873    1.215424   -0.351496
     38          1           0        4.909631    2.262388    1.894605
     39          1           0        3.587839    3.205882    1.190626
     40          1           0        5.257551    3.501410    0.676784
 ---------------------------------------------------------------------

 SCF Done:  E(RHF) =  -470.733228440     A.U. after   11 cycles
 E2 =    -0.1583010456D+01 EUMP2 =    -0.47231623889576D+03

 The electronic state is 1-A.
 Alpha  occ. eigenvalues --  -11.21620 -11.21612 -11.21611 -11.21557 -11.21425
 Alpha  occ. eigenvalues --  -11.21410 -11.21365 -11.21348 -11.21089 -11.21084
 Alpha  occ. eigenvalues --  -11.21059 -11.21058  -1.08460  -1.08421  -1.03574
 Alpha  occ. eigenvalues --   -1.03498  -0.96005  -0.95962  -0.87005  -0.86994
 Alpha  occ. eigenvalues --   -0.79664  -0.79546  -0.78318  -0.78192  -0.65157
 Alpha  occ. eigenvalues --   -0.65000  -0.61072  -0.60819  -0.59488  -0.59228
 Alpha  occ. eigenvalues --   -0.57718  -0.57454  -0.55296  -0.55245  -0.52702
 Alpha  occ. eigenvalues --   -0.52649  -0.52419  -0.52395  -0.49973  -0.49889
 Alpha  occ. eigenvalues --   -0.48015  -0.47863  -0.46868  -0.46464  -0.45945
 Alpha  occ. eigenvalues --   -0.45771  -0.45751  -0.45416  -0.43795  -0.43781
 Alpha virt. eigenvalues --    0.21096   0.23164   0.23355   0.25027   0.25564
 Alpha virt. eigenvalues --    0.26746   0.26866   0.27443   0.28138   0.28949
 Alpha virt. eigenvalues --    0.30403   0.30907   0.31526   0.31766   0.32267

 Mulliken charges:
               1
     1  C   -0.298293
     2  C   -0.299655
     3  C   -0.475713
     4  H    0.149132
     5  H    0.149675
     6  H    0.151939
     7  H    0.152076
     8  H    0.155240
     9  H    0.155060
    10  H    0.160345
    11  C   -0.297652
    12  C   -0.304457
    13  C   -0.476983
    14  H    0.149479
    15  H    0.149792
    16  H    0.155320
    17  H    0.152119
    18  H    0.155071
    19  H    0.155225
    20  H    0.162409
    21  C   -0.297875
    22  C   -0.308564
    23  C   -0.475571
    24  H    0.149392
    25  H    0.149519
    26  H    0.161272
    27  H    0.151715
    28  H    0.155082
    29  H    0.155185
    30  H    0.160233
    31  C   -0.298091
    32  C   -0.299644
    33  C   -0.475684
    34  H    0.148519
    35  H    0.149880
    36  H    0.151890
    37  H    0.152084
    38  H    0.155250
    39  H    0.154971
    40  H    0.160308
 Sum of Mulliken charges =  -0.00000

 Dipole moment (field-independent basis, Debye):
    X=             -0.0101    Y=             -0.0076    Z=              0.0049  Tot=              0.0136
 Quadrupole moment (field-independent basis, Debye-Ang):
   XX=            -84.0625   YY=            -85.0144   ZZ=            -85.6981
   XY=              0.1851   XZ=             -0.0319   YZ=             -0.1351

 Normal termination of Gaussian 16 at Thu May  6 07:01:05 2021.
