 Gaussian 16, Revision A.03,
 Gaussian 16:  EM64L-G16RevA.03 25-Dec-2016

 -------------
 #p 6-31g* mp2
 -------------

 ------------------------------------------------------
 Input file generated by CHIRIPA (05-May-2021 14:53:16)
 ------------------------------------------------------
 Symbolic Z-matrix:
 Charge =  0 Multiplicity = 1

                         Standard orientation:
 ---------------------------------------------------------------------
 Center     Atomic      Atomic             Coordinates (Angstroms)
 Number     Number       Type             X           Y           Z
 ---------------------------------------------------------------------
      1          6           0       -3.419778    0.461155    0.433697
      2          6           0       -3.535930    1.970814    0.220566
      3          6           0       -2.470011    2.759106    0.982277
      4          1           0       -3.496893    0.241853    1.507431
      5          1           0       -2.421132    0.129047    0.117779
      6          1           0       -4.534545    2.299755    0.535499
      7          1           0       -3.458722    2.186530   -0.852803
      8          1           0       -1.466909    2.459310    0.662106
      9          1           0       -2.548845    2.573178    2.058297
     10          1           0       -2.571576    3.836051    0.815741
     11          6           0       -4.478530   -0.340497   -0.321371
     12          6           0       -4.362378   -1.850155   -0.108240
     13          6           0       -5.428297   -2.638448   -0.869952
     14          1           0       -5.477176   -0.008389   -0.005453
     15          1           0       -4.401414   -0.121195   -1.395105
     16          1           0       -4.439586   -2.065872    0.965129
     17          1           0       -3.363763   -2.179097   -0.423174
     18          1           0       -5.349463   -2.452520   -1.945971
     19          1           0       -6.431399   -2.338652   -0.549780
     20          1           0       -5.326732   -3.715393   -0.703415
     21          6           0        4.225583   -2.215658    0.558719
     22          6           0        2.977340   -1.904918    1.108128
     23          6           0        2.336279   -0.706253    0.781340
     24          6           0        2.975036    0.162513   -0.102134
     25          6           0        4.218503   -0.118700   -0.666048
     26          6           0        4.841095   -1.323130   -0.325058
     27          1           0        4.716402   -3.149048    0.818091
     28          1           0        2.496966   -2.596171    1.794753
     29          1           0        1.369765   -0.440643    1.192094
     30          1           0        4.672506    0.590336   -1.347640
     31          1           0        5.810480   -1.561830   -0.753265
     32          7           0        2.306149    1.434537   -0.455607
     33          8           0        2.889881    2.183070   -1.236372
     34          8           0        1.210808    1.658933    0.054797
 ---------------------------------------------------------------------

 SCF Done:  E(RHF) =  -669.536209469     A.U. after   15 cycles
 E2 =    -0.2090844096D+01 EUMP2 =    -0.67162705356451D+03

 The electronic state is 1-A.
 Alpha  occ. eigenvalues --  -20.60944 -20.60934 -15.85989 -11.31293 -11.27855
 Alpha  occ. eigenvalues --  -11.27850 -11.27591 -11.26861 -11.26850 -11.21369
 Alpha  occ. eigenvalues --  -11.20959 -11.20891 -11.20790 -11.20721 -11.19783
 Alpha  occ. eigenvalues --   -1.60007  -1.39564  -1.19461  -1.08867  -1.07896
 Alpha  occ. eigenvalues --   -1.04855  -1.02917  -0.95713  -0.95345  -0.86364
 Alpha  occ. eigenvalues --   -0.86255  -0.82548  -0.79024  -0.77696  -0.77584
 Alpha  occ. eigenvalues --   -0.72216  -0.71323  -0.70569  -0.65119  -0.64857
 Alpha  occ. eigenvalues --   -0.64526  -0.62202  -0.60302  -0.58784  -0.56956
 Alpha  occ. eigenvalues --   -0.55360  -0.54610  -0.53188  -0.52946  -0.52042
 Alpha  occ. eigenvalues --   -0.51767  -0.49318  -0.48963  -0.48915  -0.47310
 Alpha  occ. eigenvalues --   -0.46057  -0.45222  -0.45128  -0.44955  -0.43190
 Alpha  occ. eigenvalues --   -0.37440  -0.36456
 Alpha virt. eigenvalues --    0.04929   0.11198   0.16429   0.21222   0.23327
 Alpha virt. eigenvalues --    0.24878   0.26657   0.27363   0.27718   0.28459
 Alpha virt. eigenvalues --    0.28860   0.30813   0.31821   0.32191   0.32545

 Mulliken charges:
               1
     1  C   -0.298304
     2  C   -0.298304
     3  C   -0.487785
     4  H    0.145639
     5  H    0.151132
     6  H    0.147278
     7  H    0.152676
     8  H    0.184736
     9  H    0.147185
    10  H    0.157868
    11  C   -0.297761
    12  C   -0.298845
    13  C   -0.475258
    14  H    0.148670
    15  H    0.150255
    16  H    0.149879
    17  H    0.149377
    18  H    0.155483
    19  H    0.155251
    20  H    0.157934
    21  C   -0.170598
    22  C   -0.218567
    23  C   -0.171022
    24  C    0.157282
    25  C   -0.170551
    26  C   -0.218610
    27  H    0.226024
    28  H    0.224079
    29  H    0.276158
    30  H    0.275845
    31  H    0.223802
    32  N    0.496592
    33  O   -0.458777
    34  O   -0.468761
 Sum of Mulliken charges =  -0.00000

 Dipole moment (field-independent basis, Debye):
    X=              2.6246    Y=             -4.4311    Z=              1.1850  Tot=              5.2847
 Quadrupole moment (field-independent basis, Debye-Ang):
   XX=            -78.8894   YY=            -97.1898   ZZ=            -93.5639
   XY=            -12.6903   XZ=              0.2132   YZ=             -0.7132

 Normal termination of Gaussian 16 at Thu May  6 22:02:08 2021.
