 Gaussian 16, Revision A.03,
 Gaussian 16:  EM64L-G16RevA.03 25-Dec-2016

 -------------
 #p 6-31g* mp2
 -------------

 ------------------------------------------------------
 Input file generated by CHIRIPA (05-May-2021 14:53:18)
 ------------------------------------------------------
 Symbolic Z-matrix:
 Charge =  0 Multiplicity = 1

                         Standard orientation:
 ---------------------------------------------------------------------
 Center     Atomic      Atomic             Coordinates (Angstroms)
 Number     Number       Type             X           Y           Z
 ---------------------------------------------------------------------
      1          6           0       -2.963184   -1.097649    0.690639
      2          6           0       -1.486895   -1.402045    0.947345
      3          6           0       -1.281721   -2.641370    1.818994
      4          1           0       -3.475280   -0.959850    1.652780
      5          1           0       -3.431352   -1.967331    0.209113
      6          1           0       -1.021326   -0.531526    1.426989
      7          1           0       -0.978214   -1.538946   -0.015525
      8          1           0       -1.720209   -3.524239    1.342684
      9          1           0       -1.763566   -2.511095    2.793394
     10          1           0       -0.219188   -2.840578    1.989873
     11          6           0       -3.184506    0.138481   -0.179262
     12          6           0       -4.660795    0.442878   -0.435967
     13          6           0       -4.865969    1.682202   -1.307616
     14          1           0       -2.716338    1.008163    0.302265
     15          1           0       -2.672410    0.000682   -1.141402
     16          1           0       -5.169475    0.579779    0.526903
     17          1           0       -5.126363   -0.427642   -0.915611
     18          1           0       -4.384124    1.551927   -2.282016
     19          1           0       -4.427481    2.565071   -0.831306
     20          1           0       -5.928502    1.881410   -1.478495
     21          6           0        1.838608    2.493773    1.048668
     22          6           0        3.129730    1.960593    1.121074
     23          6           0        3.452834    0.786975    0.433490
     24          6           0        2.455854    0.169808   -0.320450
     25          6           0        1.160400    0.676410   -0.412344
     26          6           0        0.859789    1.851113    0.283538
     27          1           0        1.596350    3.405889    1.586023
     28          1           0        3.891907    2.457552    1.714508
     29          1           0        4.444370    0.352481    0.472113
     30          1           0        0.421831    0.158472   -1.012074
     31          1           0       -0.143753    2.262910    0.225481
     32          7           0        2.786004   -1.073223   -1.052757
     33          8           0        1.889760   -1.597915   -1.710086
     34          8           0        3.934768   -1.499283   -0.955545
 ---------------------------------------------------------------------

 SCF Done:  E(RHF) =  -669.534977144     A.U. after   15 cycles
 E2 =    -0.2093437793D+01 EUMP2 =    -0.67162841493764D+03

 The electronic state is 1-A.
 Alpha  occ. eigenvalues --  -20.60786 -20.60780 -15.85827 -11.31126 -11.27728
 Alpha  occ. eigenvalues --  -11.27675 -11.27469 -11.26717 -11.26683 -11.22060
 Alpha  occ. eigenvalues --  -11.21990 -11.21723 -11.21650 -11.21523 -11.21040
 Alpha  occ. eigenvalues --   -1.59852  -1.39409  -1.19320  -1.08819  -1.08725
 Alpha  occ. eigenvalues --   -1.04719  -1.03808  -0.96273  -0.95567  -0.87287
 Alpha  occ. eigenvalues --   -0.86119  -0.82403  -0.79921  -0.78717  -0.77404
 Alpha  occ. eigenvalues --   -0.72048  -0.71170  -0.70437  -0.65475  -0.64969
 Alpha  occ. eigenvalues --   -0.64694  -0.62089  -0.61186  -0.59645  -0.57894
 Alpha  occ. eigenvalues --   -0.55565  -0.55232  -0.53114  -0.52908  -0.52851
 Alpha  occ. eigenvalues --   -0.52633  -0.50210  -0.48810  -0.48802  -0.48203
 Alpha  occ. eigenvalues --   -0.46939  -0.46168  -0.46080  -0.44804  -0.44097
 Alpha  occ. eigenvalues --   -0.37310  -0.36242
 Alpha virt. eigenvalues --    0.05063   0.11280   0.16464   0.19913   0.22915
 Alpha virt. eigenvalues --    0.23887   0.24689   0.25016   0.27584   0.28372
 Alpha virt. eigenvalues --    0.30194   0.30631   0.31263   0.31613   0.31953

 Mulliken charges:
               1
     1  C   -0.297198
     2  C   -0.311552
     3  C   -0.474457
     4  H    0.149804
     5  H    0.153646
     6  H    0.150374
     7  H    0.160610
     8  H    0.158377
     9  H    0.152966
    10  H    0.163741
    11  C   -0.302215
    12  C   -0.299454
    13  C   -0.476149
    14  H    0.140968
    15  H    0.149222
    16  H    0.153172
    17  H    0.155922
    18  H    0.156482
    19  H    0.151320
    20  H    0.162797
    21  C   -0.171036
    22  C   -0.219104
    23  C   -0.170690
    24  C    0.155938
    25  C   -0.166150
    26  C   -0.223643
    27  H    0.225429
    28  H    0.223082
    29  H    0.275313
    30  H    0.279572
    31  H    0.226605
    32  N    0.488695
    33  O   -0.462290
    34  O   -0.460096
 Sum of Mulliken charges =  -0.00000

 Dipole moment (field-independent basis, Debye):
    X=             -1.2326    Y=              4.2459    Z=              2.5573  Tot=              5.1075
 Quadrupole moment (field-independent basis, Debye-Ang):
   XX=            -95.8716   YY=            -94.1821   ZZ=            -96.2633
   XY=             11.3695   XZ=              8.5938   YZ=              0.1844

 Normal termination of Gaussian 16 at Wed May  5 18:50:14 2021.
