 Gaussian 16, Revision A.03,
 Gaussian 16:  EM64L-G16RevA.03 25-Dec-2016

 -------------
 #p 6-31g* mp2
 -------------

 ------------------------------------------------------
 Input file generated by CHIRIPA (05-May-2021 14:57:23)
 ------------------------------------------------------
 Symbolic Z-matrix:
 Charge =  0 Multiplicity = 1

                         Standard orientation:
 ---------------------------------------------------------------------
 Center     Atomic      Atomic             Coordinates (Angstroms)
 Number     Number       Type             X           Y           Z
 ---------------------------------------------------------------------
      1          6           0        2.449901    2.773757    0.481569
      2          6           0        2.921074    1.838193    1.408519
      3          6           0        3.031625    0.488434    1.061421
      4          6           0        2.660514    0.107358   -0.227123
      5          6           0        2.187559    1.015635   -1.172975
      6          6           0        2.085290    2.360221   -0.803954
      7          1           0        2.367239    3.820273    0.759718
      8          1           0        3.204961    2.156489    2.407589
      9          1           0        3.393292   -0.256891    1.759351
     10          1           0        1.912208    0.668189   -2.161348
     11          1           0        1.719046    3.084587   -1.525899
     12          7           0        2.773165   -1.318834   -0.606185
     13          8           0        2.439765   -1.629106   -1.747768
     14          8           0        3.192729   -2.099405    0.245467
     15          6           0       -0.929777   -1.937177    1.108639
     16          6           0       -1.110117   -1.842464   -0.275207
     17          6           0       -2.055885   -0.962273   -0.809374
     18          6           0       -2.807474   -0.188236    0.073388
     19          6           0       -2.651090   -0.259909    1.456753
     20          6           0       -1.699482   -1.146990    1.968685
     21          1           0       -0.192813   -2.623606    1.514957
     22          1           0       -0.513768   -2.454908   -0.945524
     23          1           0       -2.216053   -0.868927   -1.876638
     24          1           0       -3.260460    0.363514    2.099739
     25          1           0       -1.561582   -1.218448    3.043824
     26          7           0       -3.811808    0.747231   -0.480343
     27          8           0       -4.461380    1.418262    0.318664
     28          8           0       -3.930416    0.791704   -1.702877
 ---------------------------------------------------------------------

 SCF Done:  E(RHF) =  -868.340368201     A.U. after   16 cycles
 E2 =    -0.2599997499D+01 EUMP2 =    -0.87094036570034D+03

 The electronic state is 1-A.
 Alpha  occ. eigenvalues --  -20.61652 -20.61647 -20.60710 -20.60704 -15.86666
 Alpha  occ. eigenvalues --  -15.85755 -11.31700 -11.30980 -11.28258 -11.28209
 Alpha  occ. eigenvalues --  -11.27894 -11.27550 -11.27471 -11.27191 -11.27130
 Alpha  occ. eigenvalues --  -11.27127 -11.26527 -11.26319  -1.60721  -1.59790
 Alpha  occ. eigenvalues --   -1.40283  -1.39347  -1.19839  -1.19116  -1.09294
 Alpha  occ. eigenvalues --   -1.08522  -1.05196  -1.04484  -0.96185  -0.95387
 Alpha  occ. eigenvalues --   -0.86610  -0.85878  -0.83033  -0.82214  -0.78123
 Alpha  occ. eigenvalues --   -0.77300  -0.72894  -0.72058  -0.71958  -0.71115
 Alpha  occ. eigenvalues --   -0.70946  -0.70168  -0.65498  -0.65195  -0.64749
 Alpha  occ. eigenvalues --   -0.64432  -0.62555  -0.61816  -0.55699  -0.54923
 Alpha  occ. eigenvalues --   -0.53560  -0.53286  -0.52816  -0.52536  -0.49671
 Alpha  occ. eigenvalues --   -0.49624  -0.48740  -0.48717  -0.45753  -0.44784
 Alpha  occ. eigenvalues --   -0.37829  -0.37056  -0.36787  -0.36071
 Alpha virt. eigenvalues --    0.04345   0.05209   0.10856   0.11540   0.15927
 Alpha virt. eigenvalues --    0.16754   0.21006   0.21930   0.26941   0.27581
 Alpha virt. eigenvalues --    0.28120   0.28705   0.30693   0.31414   0.32257

 Mulliken charges:
               1
     1  C   -0.169333
     2  C   -0.218487
     3  C   -0.171973
     4  C    0.159709
     5  C   -0.169496
     6  C   -0.217866
     7  H    0.228676
     8  H    0.224098
     9  H    0.273062
    10  H    0.275328
    11  H    0.227842
    12  N    0.487247
    13  O   -0.463275
    14  O   -0.463378
    15  C   -0.176543
    16  C   -0.227662
    17  C   -0.173822
    18  C    0.157991
    19  C   -0.172685
    20  C   -0.218644
    21  H    0.234671
    22  H    0.241382
    23  H    0.275050
    24  H    0.273052
    25  H    0.221289
    26  N    0.487803
    27  O   -0.462349
    28  O   -0.461687
 Sum of Mulliken charges =  -0.00000

 Dipole moment (field-independent basis, Debye):
    X=              3.3199    Y=              1.7865    Z=              3.2330  Tot=              4.9665
 Quadrupole moment (field-independent basis, Debye-Ang):
   XX=           -128.0444   YY=           -102.4253   ZZ=            -96.8792
   XY=             21.7139   XZ=             -0.9400   YZ=             -1.2151

 Normal termination of Gaussian 16 at Wed May  5 22:40:19 2021.
