 Gaussian 16, Revision A.03,
 Gaussian 16:  EM64L-G16RevA.03 25-Dec-2016

 -------------
 #p 6-31g* mp2
 -------------

 ------------------------------------------------------
 Input file generated by CHIRIPA (05-May-2021 14:57:22)
 ------------------------------------------------------
 Symbolic Z-matrix:
 Charge =  0 Multiplicity = 1

                         Standard orientation:
 ---------------------------------------------------------------------
 Center     Atomic      Atomic             Coordinates (Angstroms)
 Number     Number       Type             X           Y           Z
 ---------------------------------------------------------------------
      1          6           0       -3.852281   -0.781809   -1.301931
      2          6           0       -2.837814   -1.668201   -0.925517
      3          6           0       -1.920450   -1.316350    0.069065
      4          6           0       -2.047525   -0.064462    0.668997
      5          6           0       -3.047301    0.840548    0.315875
      6          6           0       -3.953608    0.467533   -0.681128
      7          1           0       -4.560616   -1.063356   -2.075487
      8          1           0       -2.756706   -2.639117   -1.405922
      9          1           0       -1.125411   -1.983262    0.379803
     10          1           0       -3.102697    1.801450    0.812882
     11          1           0       -4.740442    1.157940   -0.971430
     12          7           0       -1.082206    0.319229    1.723198
     13          8           0       -1.215651    1.428015    2.236445
     14          8           0       -0.210422   -0.496086    2.016273
     15          6           0        1.294738    2.374199   -1.193557
     16          6           0        0.608117    1.203794   -1.533008
     17          6           0        1.104068   -0.046379   -1.151372
     18          6           0        2.294779   -0.089484   -0.427743
     19          6           0        3.001914    1.058741   -0.074428
     20          6           0        2.487342    2.298071   -0.466632
     21          1           0        0.902237    3.341152   -1.494126
     22          1           0       -0.318305    1.259888   -2.097490
     23          1           0        0.592838   -0.968243   -1.400830
     24          1           0        3.922992    0.970912    0.488885
     25          1           0        3.022711    3.205368   -0.201612
     26          7           0        2.829676   -1.407247   -0.018127
     27          8           0        3.880744   -1.418281    0.618877
     28          8           0        2.187734   -2.404124   -0.341831
 ---------------------------------------------------------------------

 SCF Done:  E(RHF) =  -868.337429599     A.U. after   16 cycles
 E2 =    -0.2605666540D+01 EUMP2 =    -0.87094309613937D+03

 The electronic state is 1-A.
 Alpha  occ. eigenvalues --  -20.61043 -20.61008 -20.60295 -20.60254 -15.86055
 Alpha  occ. eigenvalues --  -15.85318 -11.31555 -11.30629 -11.28187 -11.28039
 Alpha  occ. eigenvalues --  -11.27928 -11.27270 -11.27240 -11.27173 -11.27167
 Alpha  occ. eigenvalues --  -11.27010 -11.26313 -11.26216  -1.60080  -1.59314
 Alpha  occ. eigenvalues --   -1.39636  -1.38886  -1.19782  -1.18827  -1.09133
 Alpha  occ. eigenvalues --   -1.08225  -1.05199  -1.04264  -0.95942  -0.95081
 Alpha  occ. eigenvalues --   -0.86574  -0.85654  -0.82766  -0.81940  -0.77796
 Alpha  occ. eigenvalues --   -0.76982  -0.72305  -0.71579  -0.71452  -0.70857
 Alpha  occ. eigenvalues --   -0.70534  -0.69983  -0.65405  -0.65167  -0.64510
 Alpha  occ. eigenvalues --   -0.64289  -0.62511  -0.61630  -0.55662  -0.54805
 Alpha  occ. eigenvalues --   -0.53566  -0.53242  -0.52493  -0.52367  -0.49062
 Alpha  occ. eigenvalues --   -0.49039  -0.48321  -0.48295  -0.45054  -0.44297
 Alpha  occ. eigenvalues --   -0.37952  -0.36922  -0.36645  -0.35617
 Alpha virt. eigenvalues --    0.04634   0.05609   0.10496   0.12161   0.16113
 Alpha virt. eigenvalues --    0.17065   0.20940   0.21953   0.26600   0.27562
 Alpha virt. eigenvalues --    0.27988   0.29040   0.30629   0.31192   0.32190

 Mulliken charges:
               1
     1  C   -0.172577
     2  C   -0.223128
     3  C   -0.186385
     4  C    0.163868
     5  C   -0.175133
     6  C   -0.220997
     7  H    0.227067
     8  H    0.228574
     9  H    0.290156
    10  H    0.275128
    11  H    0.223768
    12  N    0.490881
    13  O   -0.461713
    14  O   -0.456289
    15  C   -0.168228
    16  C   -0.226027
    17  C   -0.176436
    18  C    0.174937
    19  C   -0.166481
    20  C   -0.215641
    21  H    0.223081
    22  H    0.220769
    23  H    0.266689
    24  H    0.276013
    25  H    0.223152
    26  N    0.492238
    27  O   -0.457883
    28  O   -0.469403
 Sum of Mulliken charges =  -0.00000

 Dipole moment (field-independent basis, Debye):
    X=             -5.1559    Y=              3.2548    Z=             -4.8815  Tot=              7.8107
 Quadrupole moment (field-independent basis, Debye-Ang):
   XX=            -95.8576   YY=           -101.2202   ZZ=           -109.1449
   XY=             13.9430   XZ=              4.9335   YZ=             -0.8830

 Normal termination of Gaussian 16 at Thu May  6 01:49:12 2021.
