 Gaussian 16, Revision A.03,
 Gaussian 16:  EM64L-G16RevA.03 25-Dec-2016

 -------------
 #p 6-31g* mp2
 -------------

 ------------------------------------------------------
 Input file generated by CHIRIPA (05-May-2021 14:51:08)
 ------------------------------------------------------
 Symbolic Z-matrix:
 Charge =  0 Multiplicity = 1

                         Standard orientation:
 ---------------------------------------------------------------------
 Center     Atomic      Atomic             Coordinates (Angstroms)
 Number     Number       Type             X           Y           Z
 ---------------------------------------------------------------------
      1          6           0       -4.089835   -0.448522    0.240573
      2          6           0       -5.169239   -1.379594   -0.312578
      3          6           0       -5.714998   -2.343734    0.741165
      4          1           0       -3.267475   -1.052295    0.648159
      5          1           0       -4.504752    0.123240    1.082195
      6          1           0       -4.752820   -1.948427   -1.153791
      7          1           0       -5.989039   -0.773532   -0.719068
      8          1           0       -6.155940   -1.791305    1.577224
      9          1           0       -4.912697   -2.972876    1.140030
     10          1           0       -6.485309   -2.999997    0.324271
     11          6           0       -3.534427    0.521253   -0.800958
     12          6           0       -2.455023    1.452325   -0.247806
     13          6           0       -1.909264    2.416465   -1.301550
     14          1           0       -3.119510   -0.050508   -1.642580
     15          1           0       -4.356787    1.125026   -1.208544
     16          1           0       -1.635223    0.846263    0.158683
     17          1           0       -2.871442    2.021158    0.593407
     18          1           0       -2.711565    3.045607   -1.700415
     19          1           0       -1.468322    1.864037   -2.137608
     20          1           0       -1.138953    3.072728   -0.884656
     21          6           0        4.470280   -0.108142   -0.100754
     22          6           0        4.958498   -1.553699   -0.200719
     23          6           0        6.276268   -1.681040   -0.965610
     24          1           0        4.349661    0.302239   -1.112674
     25          1           0        5.241906    0.498835    0.392772
     26          1           0        4.185603   -2.158048   -0.692668
     27          1           0        5.077785   -1.960748    0.811555
     28          1           0        7.064715   -1.102286   -0.473679
     29          1           0        6.167465   -1.300707   -1.986448
     30          1           0        6.606900   -2.722675   -1.025089
     31          6           0        3.153982    0.035411    0.661138
     32          6           0        2.665764    1.480968    0.761104
     33          6           0        1.347994    1.608308    1.525995
     34          1           0        2.382355   -0.571566    0.167612
     35          1           0        3.274601   -0.374971    1.673059
     36          1           0        2.546477    1.888017   -0.251170
     37          1           0        3.438658    2.085317    1.253052
     38          1           0        1.456797    1.227976    2.546832
     39          1           0        0.559546    1.029555    1.034064
     40          1           0        1.017361    2.649944    1.585473
 ---------------------------------------------------------------------

 SCF Done:  E(RHF) =  -470.733210212     A.U. after   11 cycles
 E2 =    -0.1582634922D+01 EUMP2 =    -0.47231584513350D+03

 The electronic state is 1-A.
 Alpha  occ. eigenvalues --  -11.21612 -11.21598 -11.21596 -11.21570 -11.21416
 Alpha  occ. eigenvalues --  -11.21395 -11.21356 -11.21336 -11.21079 -11.21065
 Alpha  occ. eigenvalues --  -11.21058 -11.21046  -1.08441  -1.08417  -1.03555
 Alpha  occ. eigenvalues --   -1.03498  -0.96009  -0.95943  -0.87002  -0.86984
 Alpha  occ. eigenvalues --   -0.79654  -0.79530  -0.78272  -0.78211  -0.65119
 Alpha  occ. eigenvalues --   -0.65013  -0.61073  -0.60805  -0.59394  -0.59294
 Alpha  occ. eigenvalues --   -0.57606  -0.57576  -0.55355  -0.55165  -0.52714
 Alpha  occ. eigenvalues --   -0.52622  -0.52439  -0.52365  -0.50016  -0.49846
 Alpha  occ. eigenvalues --   -0.48028  -0.47804  -0.46789  -0.46462  -0.45855
 Alpha  occ. eigenvalues --   -0.45755  -0.45731  -0.45553  -0.43793  -0.43767
 Alpha virt. eigenvalues --    0.21396   0.23108   0.23479   0.25182   0.25795
 Alpha virt. eigenvalues --    0.26841   0.27033   0.27260   0.27925   0.29061
 Alpha virt. eigenvalues --    0.29908   0.31098   0.31619   0.31857   0.32465

 Mulliken charges:
               1
     1  C   -0.298292
     2  C   -0.299620
     3  C   -0.475710
     4  H    0.149499
     5  H    0.149722
     6  H    0.151798
     7  H    0.151953
     8  H    0.155234
     9  H    0.155191
    10  H    0.160211
    11  C   -0.297727
    12  C   -0.304497
    13  C   -0.476594
    14  H    0.149048
    15  H    0.149599
    16  H    0.156508
    17  H    0.152317
    18  H    0.155203
    19  H    0.154334
    20  H    0.161712
    21  C   -0.298313
    22  C   -0.299647
    23  C   -0.475713
    24  H    0.149729
    25  H    0.149626
    26  H    0.151781
    27  H    0.151952
    28  H    0.155234
    29  H    0.155204
    30  H    0.160255
    31  C   -0.298259
    32  C   -0.299629
    33  C   -0.481459
    34  H    0.148938
    35  H    0.149690
    36  H    0.152226
    37  H    0.151869
    38  H    0.155057
    39  H    0.161397
    40  H    0.160171
 Sum of Mulliken charges =  -0.00000

 Dipole moment (field-independent basis, Debye):
    X=              0.0003    Y=              0.0077    Z=              0.0111  Tot=              0.0135
 Quadrupole moment (field-independent basis, Debye-Ang):
   XX=            -85.1653   YY=            -84.9521   ZZ=            -84.6736
   XY=             -0.6004   XZ=              1.0604   YZ=              0.6420

 Normal termination of Gaussian 16 at Thu May  6 03:40:42 2021.
