 Gaussian 16, Revision A.03,
 Gaussian 16:  EM64L-G16RevA.03 25-Dec-2016

 -------------
 #p 6-31g* mp2
 -------------

 ------------------------------------------------------
 Input file generated by CHIRIPA (05-May-2021 14:57:22)
 ------------------------------------------------------
 Symbolic Z-matrix:
 Charge =  0 Multiplicity = 1

                         Standard orientation:
 ---------------------------------------------------------------------
 Center     Atomic      Atomic             Coordinates (Angstroms)
 Number     Number       Type             X           Y           Z
 ---------------------------------------------------------------------
      1          6           0       -2.173655    2.063703    1.753235
      2          6           0       -1.850153    2.349289    0.422706
      3          6           0       -2.053885    1.394655   -0.578152
      4          6           0       -2.585279    0.159187   -0.211371
      5          6           0       -2.917630   -0.155341    1.105408
      6          6           0       -2.705423    0.814502    2.089746
      7          1           0       -2.012100    2.811193    2.524309
      8          1           0       -1.437029    3.318590    0.158452
      9          1           0       -1.812298    1.589284   -1.616022
     10          1           0       -3.327912   -1.130497    1.338123
     11          1           0       -2.957588    0.589938    3.122233
     12          7           0       -2.805446   -0.859491   -1.262190
     13          8           0       -3.274905   -1.940419   -0.913131
     14          8           0       -2.504385   -0.557716   -2.414982
     15          6           0        4.072312    1.458003   -0.888590
     16          6           0        4.569717    0.513324    0.015120
     17          6           0        3.734786   -0.480216    0.535038
     18          6           0        2.401724   -0.499653    0.127780
     19          6           0        1.876485    0.427547   -0.770950
     20          6           0        2.729651    1.412181   -1.278054
     21          1           0        4.727989    2.226349   -1.287498
     22          1           0        5.612014    0.546486    0.319360
     23          1           0        4.093687   -1.223914    1.236123
     24          1           0        0.832926    0.368939   -1.055496
     25          1           0        2.340617    2.144535   -1.979733
     26          7           0        1.508167   -1.546754    0.671411
     27          8           0        0.337577   -1.542307    0.296798
     28          8           0        1.995308   -2.352094    1.461828
 ---------------------------------------------------------------------

 SCF Done:  E(RHF) =  -868.337622100     A.U. after   16 cycles
 E2 =    -0.2602495308D+01 EUMP2 =    -0.87094011740861D+03

 The electronic state is 1-A.
 Alpha  occ. eigenvalues --  -20.60846 -20.60828 -20.60155 -20.60077 -15.85888
 Alpha  occ. eigenvalues --  -15.85171 -11.31243 -11.30656 -11.27836 -11.27795
 Alpha  occ. eigenvalues --  -11.27599 -11.27365 -11.27134 -11.27053 -11.26859
 Alpha  occ. eigenvalues --  -11.26845 -11.26453 -11.26262  -1.59902  -1.59162
 Alpha  occ. eigenvalues --   -1.39460  -1.38727  -1.19431  -1.18847  -1.08831
 Alpha  occ. eigenvalues --   -1.08222  -1.04841  -1.04309  -0.95665  -0.95048
 Alpha  occ. eigenvalues --   -0.86240  -0.85700  -0.82513  -0.81901  -0.77558
 Alpha  occ. eigenvalues --   -0.76919  -0.72174  -0.71416  -0.71217  -0.70556
 Alpha  occ. eigenvalues --   -0.70377  -0.70004  -0.65091  -0.64858  -0.64533
 Alpha  occ. eigenvalues --   -0.64346  -0.62205  -0.61663  -0.55356  -0.54823
 Alpha  occ. eigenvalues --   -0.53169  -0.53009  -0.52503  -0.52422  -0.48869
 Alpha  occ. eigenvalues --   -0.48859  -0.48183  -0.48141  -0.44854  -0.44114
 Alpha  occ. eigenvalues --   -0.37431  -0.36771  -0.36487  -0.35842
 Alpha virt. eigenvalues --    0.04965   0.05690   0.11209   0.11625   0.16436
 Alpha virt. eigenvalues --    0.17169   0.20994   0.21934   0.26439   0.27813
 Alpha virt. eigenvalues --    0.28128   0.29084   0.30524   0.31336   0.32229

 Mulliken charges:
               1
     1  C   -0.172225
     2  C   -0.218191
     3  C   -0.185997
     4  C    0.178359
     5  C   -0.159600
     6  C   -0.217752
     7  H    0.222787
     8  H    0.217295
     9  H    0.267305
    10  H    0.278944
    11  H    0.223468
    12  N    0.491860
    13  O   -0.453870
    14  O   -0.470058
    15  C   -0.170527
    16  C   -0.219239
    17  C   -0.170467
    18  C    0.156324
    19  C   -0.169961
    20  C   -0.221470
    21  H    0.225230
    22  H    0.223338
    23  H    0.275616
    24  H    0.280190
    25  H    0.221248
    26  N    0.491423
    27  O   -0.463776
    28  O   -0.460253
 Sum of Mulliken charges =  -0.00000

 Dipole moment (field-independent basis, Debye):
    X=              3.8329    Y=              6.9047    Z=              1.9617  Tot=              8.1372
 Quadrupole moment (field-independent basis, Debye-Ang):
   XX=            -90.8235   YY=           -106.0575   ZZ=           -104.2450
   XY=             -1.4759   XZ=            -13.5297   YZ=             -2.4067

 Normal termination of Gaussian 16 at Wed May  5 19:20:40 2021.
