 Gaussian 16, Revision A.03,
 Gaussian 16:  EM64L-G16RevA.03 25-Dec-2016

 -------------
 #p 6-31g* mp2
 -------------

 ------------------------------------------------------
 Input file generated by CHIRIPA (05-May-2021 14:57:26)
 ------------------------------------------------------
 Symbolic Z-matrix:
 Charge =  0 Multiplicity = 1

                         Standard orientation:
 ---------------------------------------------------------------------
 Center     Atomic      Atomic             Coordinates (Angstroms)
 Number     Number       Type             X           Y           Z
 ---------------------------------------------------------------------
      1          6           0       -0.433433   -1.724451   -0.728723
      2          6           0       -1.282028   -2.192742    0.279796
      3          6           0       -2.449968   -1.496564    0.605063
      4          6           0       -2.739887   -0.330434   -0.101604
      5          6           0       -1.914505    0.161611   -1.111519
      6          6           0       -0.751818   -0.550838   -1.419943
      7          1           0        0.471810   -2.271578   -0.974857
      8          1           0       -1.037291   -3.103892    0.818270
      9          1           0       -3.124653   -1.836622    1.381323
     10          1           0       -2.185074    1.072979   -1.630766
     11          1           0       -0.094647   -0.184800   -2.203644
     12          7           0       -3.973552    0.415192    0.233826
     13          8           0       -4.206510    1.439945   -0.403549
     14          8           0       -4.684180   -0.039260    1.127760
     15          6           0        3.439532   -1.902442    0.126131
     16          6           0        3.175911   -1.238075   -1.076217
     17          6           0        2.675460    0.067326   -1.071174
     18          6           0        2.449268    0.681068    0.159860
     19          6           0        2.701924    0.045539    1.374585
     20          6           0        3.202116   -1.259649    1.345545
     21          1           0        3.828193   -2.916426    0.112892
     22          1           0        3.359333   -1.734810   -2.024720
     23          1           0        2.462553    0.604947   -1.987172
     24          1           0        2.508991    0.566718    2.304407
     25          1           0        3.405924   -1.773164    2.280857
     26          7           0        1.919600    2.062925    0.177902
     27          8           0        1.728843    2.581673    1.275694
     28          8           0        1.705234    2.601109   -0.906091
 ---------------------------------------------------------------------

 SCF Done:  E(RHF) =  -868.335461769     A.U. after   16 cycles
 E2 =    -0.2604780447D+01 EUMP2 =    -0.87094024221623D+03

 The electronic state is 1-A.
 Alpha  occ. eigenvalues --  -20.61489 -20.61458 -20.60486 -20.60463 -15.86531
 Alpha  occ. eigenvalues --  -15.85536 -11.32109 -11.30959 -11.28778 -11.28674
 Alpha  occ. eigenvalues --  -11.28524 -11.27826 -11.27740 -11.27609 -11.27523
 Alpha  occ. eigenvalues --  -11.27293 -11.26631 -11.26568  -1.60536  -1.59551
 Alpha  occ. eigenvalues --   -1.40090  -1.39102  -1.20346  -1.19168  -1.09687
 Alpha  occ. eigenvalues --   -1.08560  -1.05793  -1.04589  -0.96481  -0.95370
 Alpha  occ. eigenvalues --   -0.87173  -0.85993  -0.83311  -0.82206  -0.78323
 Alpha  occ. eigenvalues --   -0.77237  -0.72750  -0.71863  -0.71756  -0.71447
 Alpha  occ. eigenvalues --   -0.70874  -0.70307  -0.65985  -0.65787  -0.64825
 Alpha  occ. eigenvalues --   -0.64651  -0.63115  -0.61927  -0.56261  -0.55360
 Alpha  occ. eigenvalues --   -0.54052  -0.53856  -0.52733  -0.52648  -0.49523
 Alpha  occ. eigenvalues --   -0.49491  -0.48524  -0.48500  -0.45450  -0.44495
 Alpha  occ. eigenvalues --   -0.38416  -0.37578  -0.36953  -0.36068
 Alpha virt. eigenvalues --    0.04182   0.05320   0.09945   0.11631   0.15624
 Alpha virt. eigenvalues --    0.16760   0.19837   0.21934   0.25417   0.26717
 Alpha virt. eigenvalues --    0.28357   0.29024   0.29685   0.30752   0.32347

 Mulliken charges:
               1
     1  C   -0.166496
     2  C   -0.221367
     3  C   -0.170514
     4  C    0.158066
     5  C   -0.168605
     6  C   -0.223919
     7  H    0.223106
     8  H    0.218775
     9  H    0.274564
    10  H    0.280954
    11  H    0.219347
    12  N    0.488380
    13  O   -0.457558
    14  O   -0.462207
    15  C   -0.174813
    16  C   -0.229933
    17  C   -0.176287
    18  C    0.168579
    19  C   -0.167465
    20  C   -0.218012
    21  H    0.227739
    22  H    0.224560
    23  H    0.274107
    24  H    0.280209
    25  H    0.226880
    26  N    0.488672
    27  O   -0.454296
    28  O   -0.462464
 Sum of Mulliken charges =  -0.00000

 Dipole moment (field-independent basis, Debye):
    X=              6.3291    Y=             -7.2212    Z=             -1.0460  Tot=              9.6590
 Quadrupole moment (field-independent basis, Debye-Ang):
   XX=           -120.4849   YY=           -108.6298   ZZ=            -97.4484
   XY=             -4.2624   XZ=              2.7366   YZ=             -3.0206

 Normal termination of Gaussian 16 at Thu May  6 00:26:49 2021.
