 Gaussian 16, Revision A.03,
 Gaussian 16:  EM64L-G16RevA.03 25-Dec-2016

 -------------
 #p 6-31g* mp2
 -------------

 ------------------------------------------------------
 Input file generated by CHIRIPA (05-May-2021 14:55:20)
 ------------------------------------------------------
 Symbolic Z-matrix:
 Charge =  0 Multiplicity = 1

                         Standard orientation:
 ---------------------------------------------------------------------
 Center     Atomic      Atomic             Coordinates (Angstroms)
 Number     Number       Type             X           Y           Z
 ---------------------------------------------------------------------
      1          6           0       -1.605172    0.411125   -0.484232
      2          6           0       -2.163619   -0.864401   -0.617236
      3          6           0       -3.535462   -1.061541   -0.433577
      4          6           0       -4.322932    0.044130   -0.116288
      5          6           0       -3.796212    1.327264    0.023079
      6          6           0       -2.421811    1.500966   -0.165062
      7          1           0       -0.538498    0.555165   -0.628644
      8          1           0       -1.531827   -1.712620   -0.865043
      9          1           0       -3.993978   -2.038162   -0.530499
     10          1           0       -4.451517    2.153479    0.270795
     11          1           0       -1.990858    2.492693   -0.061135
     12          7           0       -5.776595   -0.152167    0.080516
     13          8           0       -6.448826    0.838252    0.359464
     14          8           0       -6.216219   -1.292726   -0.047904
     15          6           0        5.920611   -0.391766    0.065684
     16          6           0        6.961146    0.656737   -0.329173
     17          6           0        8.344358    0.053448   -0.575260
     18          1           0        6.260680   -0.914005    0.970430
     19          1           0        5.855234   -1.149969   -0.726937
     20          1           0        7.023543    1.413487    0.463325
     21          1           0        6.618469    1.176671   -1.232974
     22          1           0        8.303876   -0.687286   -1.380415
     23          1           0        8.711253   -0.449125    0.325523
     24          1           0        9.072699    0.820527   -0.856276
     25          6           0        4.532767    0.195973    0.315049
     26          6           0        3.492232   -0.852532    0.709906
     27          6           0        2.109020   -0.249243    0.955993
     28          1           0        4.598144    0.954176    1.107670
     29          1           0        4.192697    0.718210   -0.589698
     30          1           0        3.834909   -1.372465    1.613707
     31          1           0        3.429835   -1.609280   -0.082593
     32          1           0        1.742125    0.253331    0.055210
     33          1           0        2.149502    0.491492    1.761148
     34          1           0        1.380679   -1.016321    1.237009
 ---------------------------------------------------------------------

 SCF Done:  E(RHF) =  -669.535487580     A.U. after   15 cycles
 E2 =    -0.2090824683D+01 EUMP2 =    -0.67162631226342D+03

 The electronic state is 1-A.
 Alpha  occ. eigenvalues --  -20.60706 -20.60701 -15.85760 -11.31107 -11.27683
 Alpha  occ. eigenvalues --  -11.27679 -11.27367 -11.26682 -11.26671 -11.22516
 Alpha  occ. eigenvalues --  -11.22290 -11.22155 -11.22125 -11.21984 -11.21507
 Alpha  occ. eigenvalues --   -1.59783  -1.39337  -1.19279  -1.09154  -1.08670
 Alpha  occ. eigenvalues --   -1.04683  -1.04286  -0.96758  -0.95508  -0.87780
 Alpha  occ. eigenvalues --   -0.86077  -0.82348  -0.80360  -0.78932  -0.77400
 Alpha  occ. eigenvalues --   -0.71978  -0.71106  -0.70392  -0.65783  -0.64928
 Alpha  occ. eigenvalues --   -0.64689  -0.62035  -0.61690  -0.60132  -0.58348
 Alpha  occ. eigenvalues --   -0.56149  -0.55132  -0.53443  -0.53157  -0.52995
 Alpha  occ. eigenvalues --   -0.52773  -0.50686  -0.48745  -0.48734  -0.48655
 Alpha  occ. eigenvalues --   -0.47376  -0.46483  -0.46382  -0.44746  -0.44520
 Alpha  occ. eigenvalues --   -0.37241  -0.36293
 Alpha virt. eigenvalues --    0.05132   0.11348   0.16610   0.20218   0.22363
 Alpha virt. eigenvalues --    0.23779   0.25404   0.26230   0.26821   0.27339
 Alpha virt. eigenvalues --    0.28835   0.30003   0.30931   0.31351   0.32224

 Mulliken charges:
               1
     1  C   -0.173197
     2  C   -0.221878
     3  C   -0.170841
     4  C    0.158149
     5  C   -0.170771
     6  C   -0.220848
     7  H    0.234233
     8  H    0.223292
     9  H    0.275236
    10  H    0.275265
    11  H    0.223440
    12  N    0.488052
    13  O   -0.460681
    14  O   -0.460731
    15  C   -0.298814
    16  C   -0.300102
    17  C   -0.476077
    18  H    0.151256
    19  H    0.150112
    20  H    0.152661
    21  H    0.151912
    22  H    0.155686
    23  H    0.156075
    24  H    0.161638
    25  C   -0.298890
    26  C   -0.299549
    27  C   -0.480308
    28  H    0.150993
    29  H    0.148336
    30  H    0.156245
    31  H    0.152165
    32  H    0.145169
    33  H    0.160545
    34  H    0.162226
 Sum of Mulliken charges =  -0.00000

 Dipole moment (field-independent basis, Debye):
    X=              5.3767    Y=              0.6739    Z=             -0.6287  Tot=              5.4551
 Quadrupole moment (field-independent basis, Debye-Ang):
   XX=           -139.9903   YY=            -90.0000   ZZ=            -94.2617
   XY=             -3.1277   XZ=              2.9171   YZ=              1.0197

 Normal termination of Gaussian 16 at Wed May  5 22:12:16 2021.
