 Gaussian 16, Revision A.03,
 Gaussian 16:  EM64L-G16RevA.03 25-Dec-2016

 -------------
 #p 6-31g* mp2
 -------------

 ------------------------------------------------------
 Input file generated by CHIRIPA (05-May-2021 14:51:12)
 ------------------------------------------------------
 Symbolic Z-matrix:
 Charge =  0 Multiplicity = 1

                         Standard orientation:
 ---------------------------------------------------------------------
 Center     Atomic      Atomic             Coordinates (Angstroms)
 Number     Number       Type             X           Y           Z
 ---------------------------------------------------------------------
      1          6           0        2.710789    1.096796   -0.341203
      2          6           0        1.971484    1.970546    0.672688
      3          6           0        2.434362    3.427541    0.646114
      4          1           0        3.789546    1.144052   -0.138735
      5          1           0        2.563323    1.511032   -1.348208
      6          1           0        2.119157    1.553997    1.677325
      7          1           0        0.894345    1.921054    0.467901
      8          1           0        2.271566    3.865472   -0.343994
      9          1           0        3.503337    3.496330    0.872301
     10          1           0        1.892869    4.034231    1.378625
     11          6           0        2.259080   -0.362476   -0.326632
     12          6           0        2.998384   -1.236226   -1.340524
     13          6           0        2.535507   -2.693220   -1.313950
     14          1           0        2.406545   -0.776711    0.680372
     15          1           0        1.180322   -0.409731   -0.529101
     16          1           0        4.075524   -1.186733   -1.135737
     17          1           0        2.850712   -0.819677   -2.345161
     18          1           0        1.466532   -2.762010   -1.540137
     19          1           0        2.698303   -3.131152   -0.323842
     20          1           0        3.077000   -3.299910   -2.046461
     21          6           0       -3.207450   -0.160641    0.196977
     22          6           0       -3.371260    0.660657   -1.082328
     23          6           0       -4.822284    1.066301   -1.342666
     24          1           0       -3.834838   -1.060042    0.130578
     25          1           0       -3.584904    0.421555    1.049018
     26          1           0       -2.992336    0.077632   -1.931513
     27          1           0       -2.743263    1.558111   -1.012956
     28          1           0       -5.208180    1.669487   -0.514504
     29          1           0       -5.458669    0.180597   -1.438279
     30          1           0       -4.916468    1.652577   -2.262053
     31          6           0       -1.762419   -0.573680    0.470859
     32          6           0       -1.598609   -1.394978    1.750164
     33          6           0       -0.147585   -1.800622    2.010502
     34          1           0       -1.384965   -1.155874   -0.381181
     35          1           0       -1.135032    0.325721    0.537257
     36          1           0       -2.226606   -2.292431    1.680792
     37          1           0       -1.977532   -0.811953    2.599348
     38          1           0        0.488800   -0.914916    2.106115
     39          1           0        0.238310   -2.403807    1.182340
     40          1           0       -0.053401   -2.386896    2.929888
 ---------------------------------------------------------------------

 SCF Done:  E(RHF) =  -470.731091791     A.U. after   11 cycles
 E2 =    -0.1585979110D+01 EUMP2 =    -0.47231707090115D+03

 The electronic state is 1-A.
 Alpha  occ. eigenvalues --  -11.21644 -11.21642 -11.21559 -11.21535 -11.21419
 Alpha  occ. eigenvalues --  -11.21359 -11.21332 -11.21156 -11.21101 -11.21098
 Alpha  occ. eigenvalues --  -11.21073 -11.20882  -1.08490  -1.08343  -1.03550
 Alpha  occ. eigenvalues --   -1.03488  -0.95996  -0.95930  -0.87024  -0.86947
 Alpha  occ. eigenvalues --   -0.79728  -0.79539  -0.78571  -0.77846  -0.65087
 Alpha  occ. eigenvalues --   -0.65021  -0.60966  -0.60885  -0.59394  -0.59289
 Alpha  occ. eigenvalues --   -0.57691  -0.57489  -0.55298  -0.55196  -0.52698
 Alpha  occ. eigenvalues --   -0.52647  -0.52529  -0.52293  -0.49916  -0.49892
 Alpha  occ. eigenvalues --   -0.48200  -0.47819  -0.46708  -0.46573  -0.46438
 Alpha  occ. eigenvalues --   -0.45665  -0.45527  -0.44826  -0.43776  -0.43736
 Alpha virt. eigenvalues --    0.20986   0.22271   0.23348   0.24046   0.24815
 Alpha virt. eigenvalues --    0.25816   0.26637   0.27470   0.28617   0.30380
 Alpha virt. eigenvalues --    0.30658   0.30984   0.31680   0.31879   0.32345

 Mulliken charges:
               1
     1  C   -0.297426
     2  C   -0.305840
     3  C   -0.475342
     4  H    0.149103
     5  H    0.148900
     6  H    0.151760
     7  H    0.155496
     8  H    0.155445
     9  H    0.155558
    10  H    0.159959
    11  C   -0.307233
    12  C   -0.298803
    13  C   -0.477334
    14  H    0.153375
    15  H    0.159466
    16  H    0.151347
    17  H    0.151167
    18  H    0.154158
    19  H    0.156355
    20  H    0.160285
    21  C   -0.297275
    22  C   -0.299684
    23  C   -0.475674
    24  H    0.149827
    25  H    0.149688
    26  H    0.151568
    27  H    0.151207
    28  H    0.155346
    29  H    0.155361
    30  H    0.160279
    31  C   -0.306971
    32  C   -0.298794
    33  C   -0.481632
    34  H    0.149084
    35  H    0.156392
    36  H    0.151427
    37  H    0.151423
    38  H    0.160369
    39  H    0.159523
    40  H    0.158142
 Sum of Mulliken charges =  -0.00000

 Dipole moment (field-independent basis, Debye):
    X=              0.0041    Y=              0.0014    Z=              0.0072  Tot=              0.0084
 Quadrupole moment (field-independent basis, Debye-Ang):
   XX=            -85.3794   YY=            -85.3931   ZZ=            -84.2366
   XY=              0.0506   XZ=              0.3176   YZ=              0.3468

 Normal termination of Gaussian 16 at Thu May  6 03:55:29 2021.
