 Gaussian 16, Revision A.03,
 Gaussian 16:  EM64L-G16RevA.03 25-Dec-2016

 -------------
 #p 6-31g* mp2
 -------------

 ------------------------------------------------------
 Input file generated by CHIRIPA (05-May-2021 14:51:07)
 ------------------------------------------------------
 Symbolic Z-matrix:
 Charge =  0 Multiplicity = 1

                         Standard orientation:
 ---------------------------------------------------------------------
 Center     Atomic      Atomic             Coordinates (Angstroms)
 Number     Number       Type             X           Y           Z
 ---------------------------------------------------------------------
      1          6           0        4.723142   -0.584205    0.286054
      2          6           0        5.846071   -0.395297   -0.734401
      3          6           0        7.025096   -1.339542   -0.497558
      4          1           0        5.124170   -0.426036    1.296550
      5          1           0        4.373743   -1.625289    0.247849
      6          1           0        6.192306    0.645474   -0.695253
      7          1           0        5.442279   -0.553745   -1.742599
      8          1           0        6.700595   -2.383457   -0.557072
      9          1           0        7.454883   -1.177423    0.496224
     10          1           0        7.816320   -1.187465   -1.238299
     11          6           0        3.537409    0.352684    0.062435
     12          6           0        2.414480    0.163777    1.082890
     13          6           0        1.235454    1.108022    0.846047
     14          1           0        3.886808    1.393769    0.100640
     15          1           0        3.136380    0.194516   -0.948061
     16          1           0        2.818272    0.322225    2.091088
     17          1           0        2.068245   -0.876995    1.043742
     18          1           0        0.805668    0.945903   -0.147735
     19          1           0        1.559956    2.151936    0.905561
     20          1           0        0.444231    0.955944    1.586788
     21          6           0       -4.519176   -0.397034    0.237132
     22          6           0       -5.628387   -1.092621   -0.552675
     23          6           0       -6.397406   -2.115650    0.283875
     24          1           0       -3.823237   -1.153976    0.623983
     25          1           0       -4.958689    0.100133    1.112945
     26          1           0       -5.187101   -1.587167   -1.427493
     27          1           0       -6.321659   -0.333920   -0.937852
     28          1           0       -6.864189   -1.633286    1.148769
     29          1           0       -5.723184   -2.893655    0.656345
     30          1           0       -7.185533   -2.600906   -0.300287
     31          6           0       -3.741375    0.628554   -0.585621
     32          6           0       -2.632164    1.324142    0.204185
     33          6           0       -1.863144    2.347170   -0.632364
     34          1           0       -3.301862    0.131388   -1.461435
     35          1           0       -4.437313    1.385496   -0.972472
     36          1           0       -1.938891    0.565440    0.589362
     37          1           0       -3.073450    1.818688    1.079003
     38          1           0       -2.537366    3.125175   -1.004835
     39          1           0       -1.396361    1.864807   -1.497258
     40          1           0       -1.075018    2.832426   -0.048202
 ---------------------------------------------------------------------

 SCF Done:  E(RHF) =  -470.732465330     A.U. after   11 cycles
 E2 =    -0.1583182601D+01 EUMP2 =    -0.47231564793034D+03

 The electronic state is 1-A.
 Alpha  occ. eigenvalues --  -11.21604 -11.21586 -11.21578 -11.21492 -11.21407
 Alpha  occ. eigenvalues --  -11.21361 -11.21347 -11.21297 -11.21074 -11.21055
 Alpha  occ. eigenvalues --  -11.21025 -11.20926  -1.08436  -1.08374  -1.03570
 Alpha  occ. eigenvalues --   -1.03432  -0.96068  -0.95838  -0.87083  -0.86858
 Alpha  occ. eigenvalues --   -0.79605  -0.79533  -0.78247  -0.78192  -0.65098
 Alpha  occ. eigenvalues --   -0.64985  -0.61074  -0.60755  -0.59485  -0.59174
 Alpha  occ. eigenvalues --   -0.57598  -0.57531  -0.55441  -0.55049  -0.52850
 Alpha  occ. eigenvalues --   -0.52580  -0.52397  -0.52163  -0.49990  -0.49785
 Alpha  occ. eigenvalues --   -0.47980  -0.47770  -0.46619  -0.46561  -0.45776
 Alpha  occ. eigenvalues --   -0.45745  -0.45698  -0.45657  -0.43763  -0.43703
 Alpha virt. eigenvalues --    0.21894   0.23045   0.23514   0.24883   0.26395
 Alpha virt. eigenvalues --    0.26548   0.27059   0.27185   0.27790   0.29323
 Alpha virt. eigenvalues --    0.29604   0.30810   0.31551   0.32161   0.32390

 Mulliken charges:
               1
     1  C   -0.298230
     2  C   -0.299619
     3  C   -0.475698
     4  H    0.149683
     5  H    0.149404
     6  H    0.151966
     7  H    0.151893
     8  H    0.155141
     9  H    0.155191
    10  H    0.160266
    11  C   -0.298395
    12  C   -0.301027
    13  C   -0.478776
    14  H    0.149586
    15  H    0.149484
    16  H    0.151663
    17  H    0.151385
    18  H    0.159962
    19  H    0.154134
    20  H    0.162647
    21  C   -0.298202
    22  C   -0.299564
    23  C   -0.475669
    24  H    0.149309
    25  H    0.149419
    26  H    0.151765
    27  H    0.151940
    28  H    0.155151
    29  H    0.155060
    30  H    0.160154
    31  C   -0.297897
    32  C   -0.303169
    33  C   -0.477440
    34  H    0.148913
    35  H    0.149453
    36  H    0.155594
    37  H    0.151096
    38  H    0.154124
    39  H    0.153025
    40  H    0.166276
 Sum of Mulliken charges =  -0.00000

 Dipole moment (field-independent basis, Debye):
    X=              0.0277    Y=              0.0168    Z=              0.0100  Tot=              0.0339
 Quadrupole moment (field-independent basis, Debye-Ang):
   XX=            -85.6856   YY=            -84.7435   ZZ=            -84.6057
   XY=             -0.0677   XZ=              0.2939   YZ=              1.0769

 Normal termination of Gaussian 16 at Thu May  6 05:15:10 2021.
