 Gaussian 16, Revision A.03,
 Gaussian 16:  EM64L-G16RevA.03 25-Dec-2016

 -------------
 #p 6-31g* mp2
 -------------

 ------------------------------------------------------
 Input file generated by CHIRIPA (05-May-2021 14:55:21)
 ------------------------------------------------------
 Symbolic Z-matrix:
 Charge =  0 Multiplicity = 1

                         Standard orientation:
 ---------------------------------------------------------------------
 Center     Atomic      Atomic             Coordinates (Angstroms)
 Number     Number       Type             X           Y           Z
 ---------------------------------------------------------------------
      1          6           0        4.445516    0.641857   -1.251983
      2          6           0        4.376134   -0.744791   -1.081946
      3          6           0        3.364315   -1.314940   -0.303678
      4          6           0        2.434248   -0.464908    0.292738
      5          6           0        2.476742    0.920307    0.142194
      6          6           0        3.497270    1.468523   -0.640449
      7          1           0        5.234904    1.076244   -1.858259
      8          1           0        5.111195   -1.389233   -1.555681
      9          1           0        3.287103   -2.385205   -0.155391
     10          1           0        1.729677    1.536986    0.626980
     11          1           0        3.548690    2.545752   -0.770757
     12          7           0        1.358471   -1.056890    1.118970
     13          8           0        0.551171   -0.286286    1.633823
     14          8           0        1.342947   -2.280279    1.236075
     15          6           0       -3.814676    0.071057   -0.649218
     16          6           0       -4.052108   -1.358188   -0.160477
     17          6           0       -4.998274   -2.144038   -1.068776
     18          1           0       -4.778693    0.593606   -0.716737
     19          1           0       -3.404306    0.039335   -1.668034
     20          1           0       -4.460613   -1.323814    0.857638
     21          1           0       -3.087394   -1.877335   -0.093931
     22          1           0       -4.593201   -2.208011   -2.083874
     23          1           0       -5.974222   -1.651345   -1.126899
     24          1           0       -5.154000   -3.162961   -0.700804
     25          6           0       -2.870891    0.869339    0.248413
     26          6           0       -2.633458    2.298584   -0.240328
     27          6           0       -1.687292    3.084434    0.667971
     28          1           0       -3.281261    0.901062    1.267229
     29          1           0       -1.906873    0.346791    0.315932
     30          1           0       -3.598173    2.817731   -0.306873
     31          1           0       -2.224953    2.264211   -1.258443
     32          1           0       -0.711344    2.591741    0.726094
     33          1           0       -2.092365    3.148407    1.683069
     34          1           0       -1.531567    4.103358    0.299999
 ---------------------------------------------------------------------

 SCF Done:  E(RHF) =  -669.536065108     A.U. after   15 cycles
 E2 =    -0.2092017983D+01 EUMP2 =    -0.67162808309026D+03

 The electronic state is 1-A.
 Alpha  occ. eigenvalues --  -20.61003 -20.60997 -15.86017 -11.31320 -11.27879
 Alpha  occ. eigenvalues --  -11.27876 -11.27610 -11.26882 -11.26871 -11.21028
 Alpha  occ. eigenvalues --  -11.20742 -11.20670 -11.20595 -11.20404 -11.20324
 Alpha  occ. eigenvalues --   -1.60057  -1.39614  -1.19486  -1.08894  -1.07637
 Alpha  occ. eigenvalues --   -1.04878  -1.02857  -0.95740  -0.95310  -0.86346
 Alpha  occ. eigenvalues --   -0.86272  -0.82573  -0.78910  -0.77656  -0.77369
 Alpha  occ. eigenvalues --   -0.72239  -0.71367  -0.70597  -0.65143  -0.64886
 Alpha  occ. eigenvalues --   -0.64272  -0.62237  -0.60267  -0.58675  -0.56904
 Alpha  occ. eigenvalues --   -0.55387  -0.54613  -0.53211  -0.52971  -0.52059
 Alpha  occ. eigenvalues --   -0.51726  -0.49294  -0.49009  -0.48975  -0.47226
 Alpha  occ. eigenvalues --   -0.45963  -0.45323  -0.44946  -0.44477  -0.43067
 Alpha  occ. eigenvalues --   -0.37463  -0.36477
 Alpha virt. eigenvalues --    0.04847   0.11157   0.16327   0.20551   0.23408
 Alpha virt. eigenvalues --    0.24304   0.26103   0.27505   0.27740   0.28672
 Alpha virt. eigenvalues --    0.29259   0.30438   0.31462   0.32235   0.32518

 Mulliken charges:
               1
     1  C   -0.170264
     2  C   -0.218786
     3  C   -0.170181
     4  C    0.156339
     5  C   -0.175036
     6  C   -0.220632
     7  H    0.226172
     8  H    0.223920
     9  H    0.275834
    10  H    0.284229
    11  H    0.224648
    12  N    0.487566
    13  O   -0.460353
    14  O   -0.458422
    15  C   -0.298039
    16  C   -0.299941
    17  C   -0.475276
    18  H    0.145647
    19  H    0.144873
    20  H    0.152786
    21  H    0.158971
    22  H    0.152485
    23  H    0.152620
    24  H    0.159768
    25  C   -0.305640
    26  C   -0.298770
    27  C   -0.478424
    28  H    0.150359
    29  H    0.169497
    30  H    0.149457
    31  H    0.146377
    32  H    0.155857
    33  H    0.158853
    34  H    0.153505
 Sum of Mulliken charges =  -0.00000

 Dipole moment (field-independent basis, Debye):
    X=              4.0012    Y=              1.9335    Z=             -2.7728  Tot=              5.2380
 Quadrupole moment (field-independent basis, Debye-Ang):
   XX=            -76.5439   YY=            -93.5159   ZZ=            -97.1563
   XY=              0.9288   XZ=             -7.9335   YZ=              2.7116

 Normal termination of Gaussian 16 at Thu May  6 10:53:57 2021.
