 Gaussian 16, Revision A.03,
 Gaussian 16:  EM64L-G16RevA.03 25-Dec-2016

 -------------
 #p 6-31g* mp2
 -------------

 ------------------------------------------------------
 Input file generated by CHIRIPA (05-May-2021 14:55:19)
 ------------------------------------------------------
 Symbolic Z-matrix:
 Charge =  0 Multiplicity = 1

                         Standard orientation:
 ---------------------------------------------------------------------
 Center     Atomic      Atomic             Coordinates (Angstroms)
 Number     Number       Type             X           Y           Z
 ---------------------------------------------------------------------
      1          6           0        4.583724    0.855232   -1.011916
      2          6           0        3.760260   -0.028167   -1.717630
      3          6           0        2.687753   -0.660600   -1.081779
      4          6           0        2.466605   -0.385343    0.266782
      5          6           0        3.269203    0.489802    0.997021
      6          6           0        4.336004    1.110947    0.340773
      7          1           0        5.414657    1.342137   -1.513783
      8          1           0        3.950269   -0.228653   -2.768224
      9          1           0        2.034513   -1.348917   -1.604191
     10          1           0        3.054783    0.669695    2.043482
     11          1           0        4.973867    1.796543    0.891348
     12          7           0        1.334210   -1.048896    0.950726
     13          8           0        1.160492   -0.789541    2.139505
     14          8           0        0.641799   -1.815778    0.285073
     15          6           0       -2.963964    0.981340   -0.243693
     16          6           0       -3.720064    2.264613    0.102009
     17          6           0       -2.842075    3.512575    0.004442
     18          1           0       -2.101964    0.878509    0.429603
     19          1           0       -2.557556    1.066245   -1.261052
     20          1           0       -4.126100    2.176758    1.117899
     21          1           0       -4.580474    2.364303   -0.572062
     22          1           0       -2.447910    3.627908   -1.010414
     23          1           0       -1.990955    3.439297    0.689149
     24          1           0       -3.402589    4.418428    0.255673
     25          6           0       -3.828323   -0.274829   -0.150701
     26          6           0       -3.072223   -1.558101   -0.496403
     27          6           0       -3.950212   -2.806064   -0.398836
     28          1           0       -4.234732   -0.359733    0.866658
     29          1           0       -4.690324   -0.171996   -0.823996
     30          1           0       -2.211813   -1.657791    0.177669
     31          1           0       -2.666187   -1.470246   -1.512294
     32          1           0       -4.801333   -2.732785   -1.083544
     33          1           0       -4.344377   -2.921396    0.616021
     34          1           0       -3.389698   -3.711915   -0.650067
 ---------------------------------------------------------------------

 SCF Done:  E(RHF) =  -669.536317987     A.U. after   15 cycles
 E2 =    -0.2091240632D+01 EUMP2 =    -0.67162755861961D+03

 The electronic state is 1-A.
 Alpha  occ. eigenvalues --  -20.60996 -20.60968 -15.86006 -11.31302 -11.27863
 Alpha  occ. eigenvalues --  -11.27857 -11.27597 -11.26864 -11.26854 -11.20990
 Alpha  occ. eigenvalues --  -11.20638 -11.20572 -11.20379 -11.20161 -11.19952
 Alpha  occ. eigenvalues --   -1.60042  -1.39597  -1.19467  -1.08878  -1.07517
 Alpha  occ. eigenvalues --   -1.04860  -1.02619  -0.95724  -0.95128  -0.86262
 Alpha  occ. eigenvalues --   -0.86152  -0.82559  -0.78705  -0.77617  -0.77268
 Alpha  occ. eigenvalues --   -0.72225  -0.71351  -0.70577  -0.65124  -0.64864
 Alpha  occ. eigenvalues --   -0.64146  -0.62208  -0.60013  -0.58514  -0.56707
 Alpha  occ. eigenvalues --   -0.55367  -0.54434  -0.53193  -0.52952  -0.51839
 Alpha  occ. eigenvalues --   -0.51550  -0.49143  -0.48985  -0.48973  -0.47018
 Alpha  occ. eigenvalues --   -0.45740  -0.45150  -0.44807  -0.44503  -0.42882
 Alpha  occ. eigenvalues --   -0.37444  -0.36459
 Alpha virt. eigenvalues --    0.04895   0.11196   0.16388   0.21326   0.23712
 Alpha virt. eigenvalues --    0.25201   0.27239   0.27544   0.28043   0.28570
 Alpha virt. eigenvalues --    0.28794   0.30926   0.32233   0.32351   0.32754

 Mulliken charges:
               1
     1  C   -0.170454
     2  C   -0.218570
     3  C   -0.170486
     4  C    0.158144
     5  C   -0.170657
     6  C   -0.218546
     7  H    0.226062
     8  H    0.223880
     9  H    0.276085
    10  H    0.275723
    11  H    0.223862
    12  N    0.488726
    13  O   -0.460033
    14  O   -0.459154
    15  C   -0.298124
    16  C   -0.298756
    17  C   -0.475230
    18  H    0.154469
    19  H    0.144860
    20  H    0.152468
    21  H    0.149838
    22  H    0.152282
    23  H    0.154803
    24  H    0.158066
    25  C   -0.297554
    26  C   -0.308799
    27  C   -0.474936
    28  H    0.149014
    29  H    0.144153
    30  H    0.181479
    31  H    0.144633
    32  H    0.148475
    33  H    0.153825
    34  H    0.160452
 Sum of Mulliken charges =  -0.00000

 Dipole moment (field-independent basis, Debye):
    X=              4.2859    Y=              2.2404    Z=             -2.2990  Tot=              5.3548
 Quadrupole moment (field-independent basis, Debye-Ang):
   XX=            -76.5909   YY=            -97.4910   ZZ=            -91.7351
   XY=              4.6196   XZ=             -4.0435   YZ=              3.7195

 Normal termination of Gaussian 16 at Thu May  6 10:46:35 2021.
