 Gaussian 16, Revision A.03,
 Gaussian 16:  EM64L-G16RevA.03 25-Dec-2016

 -------------
 #p 6-31g* mp2
 -------------

 ------------------------------------------------------
 Input file generated by CHIRIPA (05-May-2021 14:55:20)
 ------------------------------------------------------
 Symbolic Z-matrix:
 Charge =  0 Multiplicity = 1

                         Standard orientation:
 ---------------------------------------------------------------------
 Center     Atomic      Atomic             Coordinates (Angstroms)
 Number     Number       Type             X           Y           Z
 ---------------------------------------------------------------------
      1          6           0        1.572239    0.277714   -0.839096
      2          6           0        2.292422    1.451727   -0.595065
      3          6           0        3.625337    1.393178   -0.177384
      4          6           0        4.209379    0.138112   -0.013086
      5          6           0        3.518216   -1.049449   -0.248211
      6          6           0        2.186352   -0.966932   -0.665197
      7          1           0        0.537207    0.332506   -1.163290
      8          1           0        1.818066    2.419723   -0.729288
      9          1           0        4.206149    2.286298    0.018605
     10          1           0        4.018184   -1.999782   -0.105675
     11          1           0        1.629488   -1.880338   -0.853974
     12          7           0        5.619920    0.063442    0.428726
     13          8           0        6.111577   -1.054609    0.566098
     14          8           0        6.207137    1.124381    0.629281
     15          6           0       -5.709246    0.006420    0.511111
     16          6           0       -6.871600    0.479975   -0.362194
     17          6           0       -8.102328    0.874498    0.454785
     18          1           0       -6.038725   -0.848939    1.116710
     19          1           0       -5.441348    0.804593    1.217188
     20          1           0       -7.136317   -0.318340   -1.067343
     21          1           0       -6.539259    1.334185   -0.965925
     22          1           0       -7.860651    1.687234    1.147355
     23          1           0       -8.461101    0.025320    1.045361
     24          1           0       -8.921159    1.209873   -0.189341
     25          6           0       -4.471631   -0.391491   -0.291202
     26          6           0       -3.309277   -0.865046    0.582104
     27          6           0       -2.078548   -1.259569   -0.234876
     28          1           0       -4.739528   -1.189665   -0.997279
     29          1           0       -4.142152    0.463867   -0.896801
     30          1           0       -3.641618   -1.719256    1.185834
     31          1           0       -3.044560   -0.066732    1.287252
     32          1           0       -1.719775   -0.410392   -0.825452
     33          1           0       -2.320225   -2.072305   -0.927445
     34          1           0       -1.259717   -1.594945    0.409251
 ---------------------------------------------------------------------

 SCF Done:  E(RHF) =  -669.535474325     A.U. after   15 cycles
 E2 =    -0.2091000658D+01 EUMP2 =    -0.67162647498327D+03

 The electronic state is 1-A.
 Alpha  occ. eigenvalues --  -20.60710 -20.60705 -15.85764 -11.31112 -11.27688
 Alpha  occ. eigenvalues --  -11.27682 -11.27371 -11.26686 -11.26668 -11.22527
 Alpha  occ. eigenvalues --  -11.22347 -11.22160 -11.22125 -11.21983 -11.21503
 Alpha  occ. eigenvalues --   -1.59786  -1.39340  -1.19283  -1.09160  -1.08674
 Alpha  occ. eigenvalues --   -1.04686  -1.04297  -0.96777  -0.95512  -0.87802
 Alpha  occ. eigenvalues --   -0.86078  -0.82351  -0.80373  -0.78932  -0.77402
 Alpha  occ. eigenvalues --   -0.71981  -0.71110  -0.70399  -0.65788  -0.64932
 Alpha  occ. eigenvalues --   -0.64690  -0.62038  -0.61702  -0.60150  -0.58357
 Alpha  occ. eigenvalues --   -0.56179  -0.55113  -0.53480  -0.53179  -0.52998
 Alpha  occ. eigenvalues --   -0.52769  -0.50698  -0.48747  -0.48738  -0.48668
 Alpha  occ. eigenvalues --   -0.47381  -0.46486  -0.46381  -0.44750  -0.44535
 Alpha  occ. eigenvalues --   -0.37246  -0.36296
 Alpha virt. eigenvalues --    0.05132   0.11320   0.16616   0.20154   0.22345
 Alpha virt. eigenvalues --    0.23796   0.25404   0.26158   0.26487   0.27238
 Alpha virt. eigenvalues --    0.28860   0.29605   0.30930   0.31459   0.32190

 Mulliken charges:
               1
     1  C   -0.173025
     2  C   -0.220456
     3  C   -0.170755
     4  C    0.158172
     5  C   -0.170980
     6  C   -0.222564
     7  H    0.233183
     8  H    0.223060
     9  H    0.275232
    10  H    0.275307
    11  H    0.224887
    12  N    0.488061
    13  O   -0.460679
    14  O   -0.460704
    15  C   -0.298910
    16  C   -0.300072
    17  C   -0.476088
    18  H    0.151300
    19  H    0.150365
    20  H    0.152649
    21  H    0.151814
    22  H    0.155763
    23  H    0.156114
    24  H    0.161613
    25  C   -0.298887
    26  C   -0.299375
    27  C   -0.482222
    28  H    0.150907
    29  H    0.148214
    30  H    0.156139
    31  H    0.154149
    32  H    0.146773
    33  H    0.158878
    34  H    0.162139
 Sum of Mulliken charges =  -0.00000

 Dipole moment (field-independent basis, Debye):
    X=             -5.2309    Y=              0.2234    Z=             -1.5067  Tot=              5.4482
 Quadrupole moment (field-independent basis, Debye-Ang):
   XX=           -137.3353   YY=            -88.7734   ZZ=            -95.8077
   XY=              1.4072   XZ=             -6.2190   YZ=             -0.1620

 Normal termination of Gaussian 16 at Thu May  6 07:42:31 2021.
