 Gaussian 16, Revision A.03,
 Gaussian 16:  EM64L-G16RevA.03 25-Dec-2016

 -------------
 #p 6-31g* mp2
 -------------

 ------------------------------------------------------
 Input file generated by CHIRIPA (05-May-2021 14:51:10)
 ------------------------------------------------------
 Symbolic Z-matrix:
 Charge =  0 Multiplicity = 1

                         Standard orientation:
 ---------------------------------------------------------------------
 Center     Atomic      Atomic             Coordinates (Angstroms)
 Number     Number       Type             X           Y           Z
 ---------------------------------------------------------------------
      1          6           0        3.689639    0.630548    0.411478
      2          6           0        2.909091    1.573056   -0.505260
      3          6           0        2.220843    2.704861    0.258369
      4          1           0        3.005549    0.207079    1.159569
      5          1           0        4.440742    1.209177    0.966841
      6          1           0        2.160611    0.992596   -1.059750
      7          1           0        3.595080    1.994183   -1.251374
      8          1           0        2.957241    3.308663    0.798499
      9          1           0        1.514621    2.301385    0.991212
     10          1           0        1.668683    3.366596   -0.416232
     11          6           0        4.383265   -0.506110   -0.337267
     12          6           0        5.163814   -1.448618    0.579471
     13          6           0        5.852062   -2.580422   -0.184158
     14          1           0        3.632162   -1.084738   -0.892630
     15          1           0        5.067355   -0.082641   -1.085358
     16          1           0        4.477824   -1.869745    1.325585
     17          1           0        5.912294   -0.868158    1.133961
     18          1           0        6.558283   -2.176947   -0.917001
     19          1           0        5.115663   -3.184225   -0.724288
     20          1           0        6.404221   -3.242158    0.490443
     21          6           0       -3.512059    0.432842    0.214604
     22          6           0       -2.205828    0.388260   -0.578970
     23          6           0       -1.166654    1.384332   -0.063461
     24          1           0       -3.924700    1.450143    0.172517
     25          1           0       -3.297642    0.226020    1.272264
     26          1           0       -2.422833    0.593738   -1.635049
     27          1           0       -1.796347   -0.629101   -0.535149
     28          1           0       -0.921201    1.177856    0.983306
     29          1           0       -1.551246    2.407642   -0.122844
     30          1           0       -0.240758    1.335603   -0.645012
     31          6           0       -4.560846   -0.557280   -0.288815
     32          6           0       -5.867076   -0.512698    0.504759
     33          6           0       -6.906251   -1.508771   -0.010750
     34          1           0       -4.775262   -0.350458   -1.346475
     35          1           0       -4.148204   -1.574581   -0.246728
     36          1           0       -6.276557    0.504662    0.460938
     37          1           0       -5.650072   -0.718177    1.560838
     38          1           0       -6.521658   -2.532081    0.048633
     39          1           0       -7.151703   -1.302293   -1.057517
     40          1           0       -7.832146   -1.460041    0.570802
 ---------------------------------------------------------------------

 SCF Done:  E(RHF) =  -470.732338457     A.U. after   11 cycles
 E2 =    -0.1583255704D+01 EUMP2 =    -0.47231559416119D+03

 The electronic state is 1-A.
 Alpha  occ. eigenvalues --  -11.21603 -11.21595 -11.21587 -11.21573 -11.21404
 Alpha  occ. eigenvalues --  -11.21388 -11.21345 -11.21328 -11.21074 -11.21067
 Alpha  occ. eigenvalues --  -11.21019 -11.20923  -1.08439  -1.08401  -1.03578
 Alpha  occ. eigenvalues --   -1.03455  -0.96073  -0.95853  -0.87100  -0.86857
 Alpha  occ. eigenvalues --   -0.79641  -0.79522  -0.78247  -0.78223  -0.65089
 Alpha  occ. eigenvalues --   -0.65036  -0.61068  -0.60888  -0.59447  -0.59162
 Alpha  occ. eigenvalues --   -0.57684  -0.57452  -0.55374  -0.55166  -0.52737
 Alpha  occ. eigenvalues --   -0.52469  -0.52455  -0.52316  -0.49987  -0.49792
 Alpha  occ. eigenvalues --   -0.47927  -0.47877  -0.46663  -0.46549  -0.45801
 Alpha  occ. eigenvalues --   -0.45762  -0.45713  -0.45655  -0.43765  -0.43726
 Alpha virt. eigenvalues --    0.21594   0.23066   0.23601   0.25112   0.26264
 Alpha virt. eigenvalues --    0.26583   0.26792   0.27489   0.27783   0.29169
 Alpha virt. eigenvalues --    0.29890   0.30843   0.31578   0.32118   0.32403

 Mulliken charges:
               1
     1  C   -0.297911
     2  C   -0.303899
     3  C   -0.479032
     4  H    0.149623
     5  H    0.149671
     6  H    0.153106
     7  H    0.152095
     8  H    0.154624
     9  H    0.161201
    10  H    0.160144
    11  C   -0.298380
    12  C   -0.299626
    13  C   -0.475693
    14  H    0.149412
    15  H    0.149642
    16  H    0.151831
    17  H    0.151949
    18  H    0.155191
    19  H    0.155127
    20  H    0.160207
    21  C   -0.298583
    22  C   -0.300202
    23  C   -0.480494
    24  H    0.149701
    25  H    0.149337
    26  H    0.151704
    27  H    0.151176
    28  H    0.153586
    29  H    0.155442
    30  H    0.169091
    31  C   -0.298178
    32  C   -0.299605
    33  C   -0.475692
    34  H    0.149513
    35  H    0.149492
    36  H    0.151968
    37  H    0.151881
    38  H    0.155134
    39  H    0.155185
    40  H    0.160260
 Sum of Mulliken charges =  -0.00000

 Dipole moment (field-independent basis, Debye):
    X=             -0.0025    Y=              0.0178    Z=              0.0055  Tot=              0.0187
 Quadrupole moment (field-independent basis, Debye-Ang):
   XX=            -85.1470   YY=            -85.1593   ZZ=            -84.6138
   XY=              0.0919   XZ=              0.1669   YZ=             -1.0645

 Normal termination of Gaussian 16 at Thu May  6 05:22:57 2021.
