 Gaussian 16, Revision A.03,
 Gaussian 16:  EM64L-G16RevA.03 25-Dec-2016

 -------------
 #p 6-31g* mp2
 -------------

 ------------------------------------------------------
 Input file generated by CHIRIPA (05-May-2021 14:57:22)
 ------------------------------------------------------
 Symbolic Z-matrix:
 Charge =  0 Multiplicity = 1

                         Standard orientation:
 ---------------------------------------------------------------------
 Center     Atomic      Atomic             Coordinates (Angstroms)
 Number     Number       Type             X           Y           Z
 ---------------------------------------------------------------------
      1          6           0       -2.039102    1.286470    0.488466
      2          6           0       -1.968493    0.024776   -0.111255
      3          6           0       -3.132610   -0.705982   -0.366935
      4          6           0       -4.356068   -0.142231   -0.008293
      5          6           0       -4.459144    1.112377    0.590560
      6          6           0       -3.282011    1.825293    0.836845
      7          1           0       -1.129732    1.847210    0.683435
      8          1           0       -1.004610   -0.396170   -0.382878
      9          1           0       -3.106823   -1.684903   -0.830040
     10          1           0       -5.434493    1.505773    0.850078
     11          1           0       -3.339873    2.804914    1.302720
     12          7           0       -5.595357   -0.906408   -0.273997
     13          8           0       -6.660980   -0.387603    0.051465
     14          8           0       -5.477621   -2.009704   -0.802687
     15          6           0        5.756778   -1.884616    0.384744
     16          6           0        4.400629   -2.032158    0.693957
     17          6           0        3.502319   -0.985585    0.465327
     18          6           0        3.996657    0.200057   -0.076126
     19          6           0        5.342113    0.377643   -0.394722
     20          6           0        6.222370   -0.682306   -0.157654
     21          1           0        6.447595   -2.702815    0.565627
     22          1           0        4.036226   -2.964755    1.115287
     23          1           0        2.447397   -1.072819    0.695428
     24          1           0        5.675685    1.319239   -0.813702
     25          1           0        7.275045   -0.564893   -0.398766
     26          7           0        3.055213    1.315099   -0.322634
     27          8           0        3.515784    2.349573   -0.800517
     28          8           0        1.874563    1.133479   -0.033294
 ---------------------------------------------------------------------

 SCF Done:  E(RHF) =  -868.340535121     A.U. after   16 cycles
 E2 =    -0.2598409119D+01 EUMP2 =    -0.87093894423987D+03

 The electronic state is 1-A.
 Alpha  occ. eigenvalues --  -20.61965 -20.61895 -20.60182 -20.60176 -15.86965
 Alpha  occ. eigenvalues --  -15.85230 -11.32026 -11.30389 -11.28590 -11.28527
 Alpha  occ. eigenvalues --  -11.28217 -11.27500 -11.27474 -11.26963 -11.26948
 Alpha  occ. eigenvalues --  -11.26416 -11.25858 -11.25780  -1.60982  -1.59263
 Alpha  occ. eigenvalues --   -1.40551  -1.38823  -1.20163  -1.18525  -1.09608
 Alpha  occ. eigenvalues --   -1.07907  -1.05522  -1.03911  -0.96498  -0.94784
 Alpha  occ. eigenvalues --   -0.86933  -0.85282  -0.83349  -0.81644  -0.78433
 Alpha  occ. eigenvalues --   -0.76761  -0.73214  -0.72278  -0.71449  -0.71266
 Alpha  occ. eigenvalues --   -0.70586  -0.69494  -0.65822  -0.65517  -0.64149
 Alpha  occ. eigenvalues --   -0.63870  -0.62879  -0.61270  -0.56019  -0.54228
 Alpha  occ. eigenvalues --   -0.53862  -0.53608  -0.52243  -0.51977  -0.49964
 Alpha  occ. eigenvalues --   -0.49900  -0.48219  -0.48185  -0.46018  -0.44276
 Alpha  occ. eigenvalues --   -0.38114  -0.37110  -0.36424  -0.35544
 Alpha virt. eigenvalues --    0.04079   0.05782   0.10548   0.12132   0.15637
 Alpha virt. eigenvalues --    0.17352   0.20394   0.22329   0.26039   0.27046
 Alpha virt. eigenvalues --    0.28533   0.29308   0.30467   0.31291   0.32574

 Mulliken charges:
               1
     1  C   -0.174784
     2  C   -0.222395
     3  C   -0.172838
     4  C    0.157242
     5  C   -0.171929
     6  C   -0.220116
     7  H    0.245999
     8  H    0.228077
     9  H    0.271058
    10  H    0.272659
    11  H    0.221943
    12  N    0.488321
    13  O   -0.462614
    14  O   -0.463553
    15  C   -0.169627
    16  C   -0.218193
    17  C   -0.170677
    18  C    0.158177
    19  C   -0.170068
    20  C   -0.218316
    21  H    0.228767
    22  H    0.226024
    23  H    0.271076
    24  H    0.277078
    25  H    0.226292
    26  N    0.493350
    27  O   -0.454006
    28  O   -0.476947
 Sum of Mulliken charges =  -0.00000

 Dipole moment (field-independent basis, Debye):
    X=              8.3637    Y=             -1.1458    Z=              1.8092  Tot=              8.6335
 Quadrupole moment (field-independent basis, Debye-Ang):
   XX=           -112.5359   YY=           -103.2684   ZZ=           -105.1091
   XY=            -28.0326   XZ=             -3.7208   YZ=              0.7146

 Normal termination of Gaussian 16 at Fri May  7 07:54:11 2021.
