 Gaussian 16, Revision A.03,
 Gaussian 16:  EM64L-G16RevA.03 25-Dec-2016

 -------------
 #p 6-31g* mp2
 -------------

 ------------------------------------------------------
 Input file generated by CHIRIPA (05-May-2021 14:53:13)
 ------------------------------------------------------
 Symbolic Z-matrix:
 Charge =  0 Multiplicity = 1

                         Standard orientation:
 ---------------------------------------------------------------------
 Center     Atomic      Atomic             Coordinates (Angstroms)
 Number     Number       Type             X           Y           Z
 ---------------------------------------------------------------------
      1          6           0       -5.211625   -0.052713   -0.076810
      2          6           0       -5.478795    1.451924   -0.025121
      3          6           0       -6.957021    1.796511   -0.209242
      4          1           0       -5.564798   -0.448550   -1.038853
      5          1           0       -5.804948   -0.550404    0.702720
      6          1           0       -4.884088    1.946784   -0.803615
      7          1           0       -5.124770    1.844258    0.936834
      8          1           0       -7.562022    1.329279    0.574512
      9          1           0       -7.319972    1.432388   -1.175826
     10          1           0       -7.125384    2.877197   -0.168864
     11          6           0       -3.738330   -0.413019    0.105703
     12          6           0       -3.471160   -1.917656    0.054014
     13          6           0       -1.992934   -2.262243    0.238136
     14          1           0       -3.145007    0.084672   -0.673826
     15          1           0       -3.385157   -0.017183    1.067747
     16          1           0       -3.825185   -2.309990   -0.907940
     17          1           0       -4.065867   -2.412517    0.832508
     18          1           0       -1.629983   -1.898121    1.204719
     19          1           0       -1.387933   -1.795012   -0.545618
     20          1           0       -1.824571   -3.342930    0.197757
     21          6           0        2.969735   -2.283613   -0.111294
     22          6           0        4.293412   -1.845351   -0.222317
     23          6           0        4.596720   -0.481668   -0.168279
     24          6           0        3.546961    0.420286   -0.001618
     25          6           0        2.218081    0.014753    0.112009
     26          6           0        1.938113   -1.353801    0.055221
     27          1           0        2.743183   -3.344847   -0.154339
     28          1           0        5.096611   -2.565195   -0.351706
     29          1           0        5.612583   -0.114923   -0.251573
     30          1           0        1.438783    0.756147    0.240250
     31          1           0        0.909196   -1.691283    0.141722
     32          7           0        3.855705    1.866535    0.057045
     33          8           0        2.912824    2.641048    0.204498
     34          8           0        5.034733    2.198206   -0.045539
 ---------------------------------------------------------------------

 SCF Done:  E(RHF) =  -669.535565210     A.U. after   15 cycles
 E2 =    -0.2091007273D+01 EUMP2 =    -0.67162657248284D+03

 The electronic state is 1-A.
 Alpha  occ. eigenvalues --  -20.60694 -20.60688 -15.85745 -11.31088 -11.27656
 Alpha  occ. eigenvalues --  -11.27631 -11.27376 -11.26672 -11.26565 -11.22377
 Alpha  occ. eigenvalues --  -11.22233 -11.21950 -11.21861 -11.21760 -11.21261
 Alpha  occ. eigenvalues --   -1.59769  -1.39324  -1.19251  -1.08954  -1.08650
 Alpha  occ. eigenvalues --   -1.04649  -1.04100  -0.96588  -0.95492  -0.87630
 Alpha  occ. eigenvalues --   -0.86042  -0.82325  -0.80194  -0.78716  -0.77370
 Alpha  occ. eigenvalues --   -0.71964  -0.71092  -0.70364  -0.65579  -0.64900
 Alpha  occ. eigenvalues --   -0.64661  -0.62026  -0.61482  -0.59973  -0.58159
 Alpha  occ. eigenvalues --   -0.55882  -0.55156  -0.53371  -0.53137  -0.52984
 Alpha  occ. eigenvalues --   -0.52519  -0.50527  -0.48737  -0.48721  -0.48452
 Alpha  occ. eigenvalues --   -0.47188  -0.46268  -0.46155  -0.44734  -0.44330
 Alpha  occ. eigenvalues --   -0.37235  -0.36251
 Alpha virt. eigenvalues --    0.05150   0.11379   0.16628   0.20802   0.22419
 Alpha virt. eigenvalues --    0.23820   0.25607   0.26166   0.27150   0.28387
 Alpha virt. eigenvalues --    0.28971   0.30480   0.30743   0.31068   0.32195

 Mulliken charges:
               1
     1  C   -0.298848
     2  C   -0.300388
     3  C   -0.476113
     4  H    0.150447
     5  H    0.150318
     6  H    0.153472
     7  H    0.153218
     8  H    0.155318
     9  H    0.155398
    10  H    0.162128
    11  C   -0.299745
    12  C   -0.298995
    13  C   -0.484992
    14  H    0.150134
    15  H    0.150691
    16  H    0.154852
    17  H    0.155234
    18  H    0.155825
    19  H    0.151474
    20  H    0.161905
    21  C   -0.173584
    22  C   -0.218384
    23  C   -0.171561
    24  C    0.158919
    25  C   -0.174795
    26  C   -0.229410
    27  H    0.225697
    28  H    0.222843
    29  H    0.275132
    30  H    0.275456
    31  H    0.241811
    32  N    0.488095
    33  O   -0.460691
    34  O   -0.460860
 Sum of Mulliken charges =  -0.00000

 Dipole moment (field-independent basis, Debye):
    X=             -1.3438    Y=             -5.1018    Z=             -0.2024  Tot=              5.2797
 Quadrupole moment (field-independent basis, Debye-Ang):
   XX=            -98.0961   YY=            -99.5690   ZZ=            -94.5789
   XY=            -19.4325   XZ=             -1.6525   YZ=              0.0430

 Normal termination of Gaussian 16 at Thu May  6 12:02:32 2021.
