 Gaussian 16, Revision A.03,
 Gaussian 16:  EM64L-G16RevA.03 25-Dec-2016

 -------------
 #p 6-31g* mp2
 -------------

 ------------------------------------------------------
 Input file generated by CHIRIPA (05-May-2021 14:57:24)
 ------------------------------------------------------
 Symbolic Z-matrix:
 Charge =  0 Multiplicity = 1

                         Standard orientation:
 ---------------------------------------------------------------------
 Center     Atomic      Atomic             Coordinates (Angstroms)
 Number     Number       Type             X           Y           Z
 ---------------------------------------------------------------------
      1          6           0        6.082982   -1.518412    0.286291
      2          6           0        5.958255   -0.729674   -0.862123
      3          6           0        4.873669    0.139661   -1.012050
      4          6           0        3.928062    0.195257    0.010704
      5          6           0        4.024479   -0.577802    1.166720
      6          6           0        5.117398   -1.440097    1.295269
      7          1           0        6.928751   -2.190998    0.394455
      8          1           0        6.706621   -0.788420   -1.647326
      9          1           0        4.752536    0.761553   -1.890682
     10          1           0        3.262462   -0.497381    1.932409
     11          1           0        5.211686   -2.051460    2.188236
     12          7           0        2.775449    1.111856   -0.136700
     13          8           0        1.955884    1.142380    0.778734
     14          8           0        2.713420    1.782407   -1.164879
     15          6           0       -1.976171    1.286490    0.052546
     16          6           0       -2.015627    0.067840   -0.632913
     17          6           0       -3.196901   -0.677888   -0.687972
     18          6           0       -4.325093   -0.172835   -0.043462
     19          6           0       -4.317450    1.037883    0.647473
     20          6           0       -3.125182    1.766776    0.689429
     21          1           0       -1.054259    1.859251    0.090228
     22          1           0       -1.124825   -0.307610   -1.128447
     23          1           0       -3.255391   -1.624374   -1.211578
     24          1           0       -5.221619    1.386293    1.131732
     25          1           0       -3.097468    2.712876    1.222506
     26          7           0       -5.581474   -0.953393   -0.094814
     27          8           0       -6.561758   -0.486610    0.481202
     28          8           0       -5.562152   -2.017196   -0.710108
 ---------------------------------------------------------------------

 SCF Done:  E(RHF) =  -868.340822476     A.U. after   16 cycles
 E2 =    -0.2598100342D+01 EUMP2 =    -0.87093892281832D+03

 The electronic state is 1-A.
 Alpha  occ. eigenvalues --  -20.61967 -20.61961 -20.60053 -20.60048 -15.86966
 Alpha  occ. eigenvalues --  -15.85102 -11.31996 -11.30229 -11.28519 -11.28516
 Alpha  occ. eigenvalues --  -11.28193 -11.27453 -11.27443 -11.26813 -11.26806
 Alpha  occ. eigenvalues --  -11.26224 -11.25676 -11.25646  -1.61030  -1.59136
 Alpha  occ. eigenvalues --   -1.40585  -1.38696  -1.20136  -1.18369  -1.09595
 Alpha  occ. eigenvalues --   -1.07749  -1.05482  -1.03757  -0.96484  -0.94629
 Alpha  occ. eigenvalues --   -0.86896  -0.85131  -0.83324  -0.81495  -0.78410
 Alpha  occ. eigenvalues --   -0.76624  -0.73198  -0.72329  -0.71323  -0.71231
 Alpha  occ. eigenvalues --   -0.70459  -0.69317  -0.65786  -0.65477  -0.63994
 Alpha  occ. eigenvalues --   -0.63735  -0.62830  -0.61128  -0.55993  -0.54049
 Alpha  occ. eigenvalues --   -0.53833  -0.53564  -0.52082  -0.51829  -0.49968
 Alpha  occ. eigenvalues --   -0.49934  -0.48093  -0.48055  -0.46058  -0.44157
 Alpha  occ. eigenvalues --   -0.38095  -0.37070  -0.36246  -0.35394
 Alpha virt. eigenvalues --    0.04084   0.05932   0.10589   0.12288   0.15653
 Alpha virt. eigenvalues --    0.17513   0.20781   0.22641   0.26720   0.27644
 Alpha virt. eigenvalues --    0.28269   0.29683   0.30431   0.31836   0.32469

 Mulliken charges:
               1
     1  C   -0.169483
     2  C   -0.218576
     3  C   -0.170624
     4  C    0.156664
     5  C   -0.170777
     6  C   -0.218523
     7  H    0.228598
     8  H    0.225989
     9  H    0.276331
    10  H    0.276268
    11  H    0.226252
    12  N    0.488144
    13  O   -0.467170
    14  O   -0.459752
    15  C   -0.173585
    16  C   -0.220359
    17  C   -0.172767
    18  C    0.156537
    19  C   -0.171926
    20  C   -0.221022
    21  H    0.249705
    22  H    0.223217
    23  H    0.271279
    24  H    0.272097
    25  H    0.222050
    26  N    0.488382
    27  O   -0.463198
    28  O   -0.463750
 Sum of Mulliken charges =  -0.00000

 Dipole moment (field-independent basis, Debye):
    X=              9.1473    Y=             -0.4176    Z=              0.7133  Tot=              9.1846
 Quadrupole moment (field-independent basis, Debye-Ang):
   XX=           -110.9728   YY=           -105.0883   ZZ=           -100.0906
   XY=            -26.8107   XZ=             -2.1365   YZ=              0.4502

 Normal termination of Gaussian 16 at Wed May  5 17:53:59 2021.
