 Gaussian 16, Revision A.03,
 Gaussian 16:  EM64L-G16RevA.03 25-Dec-2016

 -------------
 #p 6-31g* mp2
 -------------

 ------------------------------------------------------
 Input file generated by CHIRIPA (05-May-2021 14:53:13)
 ------------------------------------------------------
 Symbolic Z-matrix:
 Charge =  0 Multiplicity = 1

                         Standard orientation:
 ---------------------------------------------------------------------
 Center     Atomic      Atomic             Coordinates (Angstroms)
 Number     Number       Type             X           Y           Z
 ---------------------------------------------------------------------
      1          6           0        3.437784   -0.541406   -0.043620
      2          6           0        3.605916   -1.425829    1.192306
      3          6           0        3.544663   -2.917947    0.864239
      4          1           0        2.477792   -0.773383   -0.524814
      5          1           0        4.221135   -0.789866   -0.773019
      6          1           0        2.823317   -1.174813    1.919730
      7          1           0        4.565533   -1.191585    1.670722
      8          1           0        4.335004   -3.189655    0.157035
      9          1           0        2.582890   -3.172788    0.407458
     10          1           0        3.667078   -3.531760    1.762074
     11          6           0        3.496737    0.952923    0.268204
     12          6           0        3.328605    1.837346   -0.967722
     13          6           0        3.389858    3.329463   -0.639655
     14          1           0        2.713386    1.201383    0.997603
     15          1           0        4.456729    1.184900    0.749398
     16          1           0        2.368989    1.603102   -1.446138
     17          1           0        4.111204    1.586330   -1.695146
     18          1           0        4.351632    3.584305   -0.182874
     19          1           0        2.599518    3.601172    0.067549
     20          1           0        3.267443    3.943277   -1.537490
     21          6           0       -4.385462    1.427437    0.928335
     22          6           0       -3.016137    1.691186    1.037445
     23          6           0       -2.078163    0.818176    0.478334
     24          6           0       -2.546703   -0.314289   -0.185957
     25          6           0       -3.904388   -0.604532   -0.311426
     26          6           0       -4.824444    0.282438    0.255434
     27          1           0       -5.107144    2.111034    1.365677
     28          1           0       -2.672335    2.579637    1.559461
     29          1           0       -1.012245    0.998130    0.548015
     30          1           0       -4.216726   -1.498296   -0.837777
     31          1           0       -5.887269    0.075067    0.169148
     32          7           0       -1.563197   -1.245895   -0.781965
     33          8           0       -2.001631   -2.236747   -1.362158
     34          8           0       -0.372513   -0.967594   -0.657638
 ---------------------------------------------------------------------

 SCF Done:  E(RHF) =  -669.536335410     A.U. after   15 cycles
 E2 =    -0.2091255078D+01 EUMP2 =    -0.67162759048860D+03

 The electronic state is 1-A.
 Alpha  occ. eigenvalues --  -20.61018 -20.61005 -15.86057 -11.31342 -11.27904
 Alpha  occ. eigenvalues --  -11.27897 -11.27632 -11.26902 -11.26892 -11.21018
 Alpha  occ. eigenvalues --  -11.20771 -11.20696 -11.20651 -11.20186 -11.20026
 Alpha  occ. eigenvalues --   -1.60077  -1.39635  -1.19507  -1.08917  -1.07594
 Alpha  occ. eigenvalues --   -1.04899  -1.02770  -0.95766  -0.95220  -0.86302
 Alpha  occ. eigenvalues --   -0.86238  -0.82603  -0.78856  -0.77670  -0.77347
 Alpha  occ. eigenvalues --   -0.72287  -0.71389  -0.70616  -0.65170  -0.64902
 Alpha  occ. eigenvalues --   -0.64203  -0.62248  -0.60164  -0.58619  -0.56826
 Alpha  occ. eigenvalues --   -0.55404  -0.54503  -0.53232  -0.52991  -0.51962
 Alpha  occ. eigenvalues --   -0.51642  -0.49178  -0.49038  -0.48998  -0.47172
 Alpha  occ. eigenvalues --   -0.45894  -0.45053  -0.44942  -0.44721  -0.42992
 Alpha  occ. eigenvalues --   -0.37484  -0.36499
 Alpha virt. eigenvalues --    0.04871   0.11156   0.16375   0.20825   0.23091
 Alpha virt. eigenvalues --    0.25040   0.26530   0.27432   0.28290   0.28478
 Alpha virt. eigenvalues --    0.29085   0.31122   0.31929   0.32301   0.32782

 Mulliken charges:
               1
     1  C   -0.311396
     2  C   -0.296434
     3  C   -0.478321
     4  H    0.180740
     5  H    0.145168
     6  H    0.148744
     7  H    0.145921
     8  H    0.152288
     9  H    0.167438
    10  H    0.154855
    11  C   -0.294995
    12  C   -0.301256
    13  C   -0.474188
    14  H    0.142102
    15  H    0.145831
    16  H    0.157008
    17  H    0.152063
    18  H    0.154518
    19  H    0.148503
    20  H    0.158614
    21  C   -0.170488
    22  C   -0.218502
    23  C   -0.170874
    24  C    0.157448
    25  C   -0.170445
    26  C   -0.218586
    27  H    0.226249
    28  H    0.224181
    29  H    0.275408
    30  H    0.275972
    31  H    0.224008
    32  N    0.496431
    33  O   -0.458360
    34  O   -0.469646
 Sum of Mulliken charges =  -0.00000

 Dipole moment (field-independent basis, Debye):
    X=             -3.7605    Y=              3.1449    Z=              1.9620  Tot=              5.2803
 Quadrupole moment (field-independent basis, Debye-Ang):
   XX=            -74.3250   YY=            -97.2453   ZZ=            -95.9506
   XY=             -5.1621   XZ=             -4.0644   YZ=              0.0220

 Normal termination of Gaussian 16 at Thu May  6 02:36:53 2021.
