 Gaussian 16, Revision A.03,
 Gaussian 16:  EM64L-G16RevA.03 25-Dec-2016

 -------------
 #p 6-31g* mp2
 -------------

 ------------------------------------------------------
 Input file generated by CHIRIPA (05-May-2021 14:53:13)
 ------------------------------------------------------
 Symbolic Z-matrix:
 Charge =  0 Multiplicity = 1

                         Standard orientation:
 ---------------------------------------------------------------------
 Center     Atomic      Atomic             Coordinates (Angstroms)
 Number     Number       Type             X           Y           Z
 ---------------------------------------------------------------------
      1          6           0       -2.809551   -0.438757    0.274076
      2          6           0       -2.205797   -1.189699    1.461322
      3          6           0       -0.685160   -1.318872    1.367665
      4          1           0       -2.540879   -0.958851   -0.655582
      5          1           0       -2.358665    0.561496    0.214167
      6          1           0       -2.658696   -2.187736    1.519801
      7          1           0       -2.476098   -0.667864    2.388274
      8          1           0       -0.216001   -0.330310    1.332484
      9          1           0       -0.399636   -1.858818    0.459076
     10          1           0       -0.274474   -1.858936    2.226459
     11          6           0       -4.328962   -0.301506    0.353337
     12          6           0       -4.932716    0.449435   -0.833909
     13          6           0       -6.453353    0.578608   -0.740253
     14          1           0       -4.779848   -1.301760    0.413245
     15          1           0       -4.597634    0.218588    1.282994
     16          1           0       -4.662415   -0.072399   -1.760862
     17          1           0       -4.479817    1.447473   -0.892389
     18          1           0       -6.738877    1.118555    0.168336
     19          1           0       -6.922512   -0.409953   -0.705071
     20          1           0       -6.864039    1.118673   -1.599047
     21          6           0        3.541440   -2.067855   -0.738471
     22          6           0        4.343497   -1.224797    0.037724
     23          6           0        3.936312    0.083067    0.317438
     24          6           0        2.715688    0.517034   -0.197384
     25          6           0        1.894362   -0.298939   -0.973852
     26          6           0        2.321583   -1.603055   -1.240896
     27          1           0        3.865534   -3.082379   -0.950838
     28          1           0        5.291340   -1.583072    0.429232
     29          1           0        4.537634    0.756900    0.915585
     30          1           0        0.954622    0.086593   -1.350244
     31          1           0        1.696641   -2.255566   -1.843988
     32          7           0        2.274014    1.899626    0.092030
     33          8           0        1.194323    2.257986   -0.373248
     34          8           0        3.015883    2.598763    0.778671
 ---------------------------------------------------------------------

 SCF Done:  E(RHF) =  -669.535237951     A.U. after   15 cycles
 E2 =    -0.2092544937D+01 EUMP2 =    -0.67162778288822D+03

 The electronic state is 1-A.
 Alpha  occ. eigenvalues --  -20.60819 -20.60811 -15.85857 -11.31145 -11.27744
 Alpha  occ. eigenvalues --  -11.27730 -11.27487 -11.26729 -11.26719 -11.21541
 Alpha  occ. eigenvalues --  -11.21445 -11.21296 -11.21233 -11.21077 -11.20930
 Alpha  occ. eigenvalues --   -1.59884  -1.39440  -1.19341  -1.08747  -1.08328
 Alpha  occ. eigenvalues --   -1.04744  -1.03443  -0.95910  -0.95585  -0.86929
 Alpha  occ. eigenvalues --   -0.86139  -0.82427  -0.79515  -0.78147  -0.77470
 Alpha  occ. eigenvalues --   -0.72077  -0.71205  -0.70459  -0.65018  -0.64936
 Alpha  occ. eigenvalues --   -0.64745  -0.62098  -0.60837  -0.59269  -0.57534
 Alpha  occ. eigenvalues --   -0.55254  -0.55190  -0.53248  -0.52838  -0.52576
 Alpha  occ. eigenvalues --   -0.52180  -0.49851  -0.48837  -0.48830  -0.47825
 Alpha  occ. eigenvalues --   -0.46540  -0.45703  -0.45590  -0.44827  -0.43693
 Alpha  occ. eigenvalues --   -0.37311  -0.36260
 Alpha virt. eigenvalues --    0.05052   0.11279   0.16454   0.20919   0.23002
 Alpha virt. eigenvalues --    0.24181   0.26423   0.26885   0.27670   0.28186
 Alpha virt. eigenvalues --    0.28880   0.30196   0.31659   0.31838   0.32081

 Mulliken charges:
               1
     1  C   -0.301454
     2  C   -0.299301
     3  C   -0.477105
     4  H    0.141975
     5  H    0.160404
     6  H    0.149470
     7  H    0.154593
     8  H    0.160843
     9  H    0.146401
    10  H    0.159548
    11  C   -0.298021
    12  C   -0.300179
    13  C   -0.475724
    14  H    0.147638
    15  H    0.151413
    16  H    0.149586
    17  H    0.156082
    18  H    0.155992
    19  H    0.153861
    20  H    0.160366
    21  C   -0.170400
    22  C   -0.219090
    23  C   -0.170660
    24  C    0.156990
    25  C   -0.164671
    26  C   -0.218936
    27  H    0.225505
    28  H    0.223174
    29  H    0.275406
    30  H    0.276819
    31  H    0.222796
    32  N    0.488063
    33  O   -0.461448
    34  O   -0.459936
 Sum of Mulliken charges =  -0.00000

 Dipole moment (field-independent basis, Debye):
    X=              1.5871    Y=             -4.7671    Z=             -0.9875  Tot=              5.1204
 Quadrupole moment (field-independent basis, Debye-Ang):
   XX=            -84.2563   YY=            -99.7595   ZZ=            -93.3312
   XY=            -11.9222   XZ=             -0.6784   YZ=              1.4763

 Normal termination of Gaussian 16 at Wed May  5 18:33:29 2021.
