 Gaussian 16, Revision A.03,
 Gaussian 16:  EM64L-G16RevA.03 25-Dec-2016

 -------------
 #p 6-31g* mp2
 -------------

 ------------------------------------------------------
 Input file generated by CHIRIPA (05-May-2021 14:53:13)
 ------------------------------------------------------
 Symbolic Z-matrix:
 Charge =  0 Multiplicity = 1

                         Standard orientation:
 ---------------------------------------------------------------------
 Center     Atomic      Atomic             Coordinates (Angstroms)
 Number     Number       Type             X           Y           Z
 ---------------------------------------------------------------------
      1          6           0       -4.898863   -0.165149    0.040772
      2          6           0       -4.855277   -1.624899    0.493781
      3          6           0       -6.215706   -2.137909    0.966905
      4          1           0       -5.259493    0.458838    0.869947
      5          1           0       -5.632974   -0.061970   -0.770294
      6          1           0       -4.120463   -1.725554    1.302814
      7          1           0       -4.494526   -2.245459   -0.336508
      8          1           0       -6.955272   -2.066405    0.162834
      9          1           0       -6.579084   -1.543546    1.811470
     10          1           0       -6.161646   -3.183388    1.286139
     11          6           0       -3.546358    0.362137   -0.435071
     12          6           0       -3.589944    1.821886   -0.888079
     13          6           0       -2.229515    2.334896   -1.361203
     14          1           0       -2.812246    0.258958    0.375996
     15          1           0       -3.185727   -0.261850   -1.264246
     16          1           0       -3.950695    2.442446   -0.057790
     17          1           0       -4.324757    1.922541   -1.697112
     18          1           0       -1.866137    1.740533   -2.205768
     19          1           0       -1.489949    2.263392   -0.557132
     20          1           0       -2.283575    3.380375   -1.680438
     21          6           0        1.773464    1.692412    1.107065
     22          6           0        3.141466    1.717085    1.397724
     23          6           0        3.996057    0.741818    0.875157
     24          6           0        3.446389   -0.248003    0.061886
     25          6           0        2.087768   -0.299525   -0.245982
     26          6           0        1.251901    0.685960    0.287585
     27          1           0        1.116870    2.453992    1.517280
     28          1           0        3.549296    2.497512    2.033848
     29          1           0        5.058960    0.737148    1.084047
     30          1           0        1.710481   -1.090095   -0.883217
     31          1           0        0.189895    0.664308    0.060166
     32          7           0        4.341195   -1.285884   -0.497154
     33          8           0        3.832235   -2.147276   -1.211016
     34          8           0        5.534562   -1.218328   -0.210883
 ---------------------------------------------------------------------

 SCF Done:  E(RHF) =  -669.535439455     A.U. after   15 cycles
 E2 =    -0.2091222992D+01 EUMP2 =    -0.67162666244726D+03

 The electronic state is 1-A.
 Alpha  occ. eigenvalues --  -20.60715 -20.60710 -15.85768 -11.31123 -11.27691
 Alpha  occ. eigenvalues --  -11.27674 -11.27432 -11.26712 -11.26649 -11.22476
 Alpha  occ. eigenvalues --  -11.22269 -11.22157 -11.22122 -11.22016 -11.21477
 Alpha  occ. eigenvalues --   -1.59791  -1.39345  -1.19291  -1.09181  -1.08691
 Alpha  occ. eigenvalues --   -1.04691  -1.04257  -0.96726  -0.95529  -0.87743
 Alpha  occ. eigenvalues --   -0.86094  -0.82359  -0.80333  -0.78979  -0.77405
 Alpha  occ. eigenvalues --   -0.71987  -0.71113  -0.70408  -0.65824  -0.64944
 Alpha  occ. eigenvalues --   -0.64713  -0.62092  -0.61612  -0.60093  -0.58319
 Alpha  occ. eigenvalues --   -0.56030  -0.55201  -0.53392  -0.53229  -0.53008
 Alpha  occ. eigenvalues --   -0.52730  -0.50668  -0.48778  -0.48742  -0.48594
 Alpha  occ. eigenvalues --   -0.47357  -0.46510  -0.46421  -0.44752  -0.44507
 Alpha  occ. eigenvalues --   -0.37275  -0.36289
 Alpha virt. eigenvalues --    0.05124   0.11318   0.16617   0.19377   0.22527
 Alpha virt. eigenvalues --    0.23731   0.25319   0.26330   0.26825   0.27834
 Alpha virt. eigenvalues --    0.28856   0.30154   0.31054   0.31359   0.31637

 Mulliken charges:
               1
     1  C   -0.298547
     2  C   -0.300446
     3  C   -0.476191
     4  H    0.150588
     5  H    0.152165
     6  H    0.151689
     7  H    0.153378
     8  H    0.156281
     9  H    0.155530
    10  H    0.162392
    11  C   -0.300606
    12  C   -0.300220
    13  C   -0.478283
    14  H    0.143915
    15  H    0.151103
    16  H    0.153239
    17  H    0.156615
    18  H    0.158625
    19  H    0.144584
    20  H    0.165650
    21  C   -0.172617
    22  C   -0.218428
    23  C   -0.171415
    24  C    0.158902
    25  C   -0.172401
    26  C   -0.224030
    27  H    0.224856
    28  H    0.223091
    29  H    0.275338
    30  H    0.275788
    31  H    0.232639
    32  N    0.488000
    33  O   -0.460533
    34  O   -0.460651
 Sum of Mulliken charges =  -0.00000

 Dipole moment (field-independent basis, Debye):
    X=             -3.3936    Y=              3.6587    Z=              1.9067  Tot=              5.3421
 Quadrupole moment (field-independent basis, Debye-Ang):
   XX=           -113.5780   YY=            -96.2655   ZZ=            -93.2163
   XY=             14.9883   XZ=              9.4481   YZ=              1.2677

 Normal termination of Gaussian 16 at Thu May  6 02:34:56 2021.
