 Gaussian 16, Revision A.03,
 Gaussian 16:  EM64L-G16RevA.03 25-Dec-2016

 -------------
 #p 6-31g* mp2
 -------------

 ------------------------------------------------------
 Input file generated by CHIRIPA (05-May-2021 14:53:17)
 ------------------------------------------------------
 Symbolic Z-matrix:
 Charge =  0 Multiplicity = 1

                         Standard orientation:
 ---------------------------------------------------------------------
 Center     Atomic      Atomic             Coordinates (Angstroms)
 Number     Number       Type             X           Y           Z
 ---------------------------------------------------------------------
      1          6           0        3.944682    0.804105    0.475172
      2          6           0        2.567203    1.209947   -0.050021
      3          6           0        1.943853    2.355054    0.748703
      4          1           0        3.856102    0.511372    1.530353
      5          1           0        4.611565    1.676984    0.447881
      6          1           0        1.903511    0.336219   -0.023043
      7          1           0        2.659039    1.501565   -1.104128
      8          1           0        2.583120    3.243078    0.711925
      9          1           0        1.823299    2.071110    1.799152
     10          1           0        0.959608    2.629074    0.356230
     11          6           0        4.580744   -0.339507   -0.313056
     12          6           0        5.958224   -0.745349    0.212138
     13          6           0        6.581573   -1.890456   -0.586586
     14          1           0        3.913862   -1.212386   -0.285764
     15          1           0        4.669324   -0.046774   -1.368236
     16          1           0        5.866387   -1.036967    1.266244
     17          1           0        6.621916    0.128379    0.185159
     18          1           0        6.702128   -1.606512   -1.637035
     19          1           0        5.942306   -2.778480   -0.549808
     20          1           0        7.565818   -2.164476   -0.194113
     21          6           0       -5.783135   -0.754713    0.080402
     22          6           0       -5.380283    0.462105   -0.479586
     23          6           0       -4.023924    0.790204   -0.564378
     24          6           0       -3.093108   -0.126066   -0.077222
     25          6           0       -3.463072   -1.346322    0.486154
     26          6           0       -4.824934   -1.653458    0.560637
     27          1           0       -6.838925   -1.001446    0.142265
     28          1           0       -6.122228    1.162009   -0.853347
     29          1           0       -3.684335    1.725243   -0.993096
     30          1           0       -2.700206   -2.023722    0.850274
     31          1           0       -5.134889   -2.599186    0.996035
     32          7           0       -1.654279    0.210182   -0.161531
     33          8           0       -0.853864   -0.614190    0.274800
     34          8           0       -1.354184    1.291738   -0.662346
 ---------------------------------------------------------------------

 SCF Done:  E(RHF) =  -669.536905001     A.U. after   15 cycles
 E2 =    -0.2092127117D+01 EUMP2 =    -0.67162903211704D+03

 The electronic state is 1-A.
 Alpha  occ. eigenvalues --  -20.61164 -20.61153 -15.86149 -11.31410 -11.27958
 Alpha  occ. eigenvalues --  -11.27954 -11.27683 -11.26948 -11.26938 -11.20670
 Alpha  occ. eigenvalues --  -11.20313 -11.20182 -11.19895 -11.19507 -11.19044
 Alpha  occ. eigenvalues --   -1.60184  -1.39746  -1.19565  -1.08982  -1.07065
 Alpha  occ. eigenvalues --   -1.04949  -1.02077  -0.95836  -0.94576  -0.86354
 Alpha  occ. eigenvalues --   -0.85619  -0.82672  -0.78231  -0.77733  -0.76767
 Alpha  occ. eigenvalues --   -0.72365  -0.71485  -0.70673  -0.65222  -0.64953
 Alpha  occ. eigenvalues --   -0.63712  -0.62297  -0.59490  -0.58027  -0.56149
 Alpha  occ. eigenvalues --   -0.55439  -0.53913  -0.53284  -0.53041  -0.51301
 Alpha  occ. eigenvalues --   -0.51018  -0.49153  -0.49017  -0.48587  -0.46509
 Alpha  occ. eigenvalues --   -0.45279  -0.45166  -0.44347  -0.44116  -0.42326
 Alpha  occ. eigenvalues --   -0.37539  -0.36546
 Alpha virt. eigenvalues --    0.04784   0.11111   0.16293   0.21244   0.24109
 Alpha virt. eigenvalues --    0.25839   0.27175   0.27940   0.28135   0.28900
 Alpha virt. eigenvalues --    0.29397   0.30834   0.32311   0.32720   0.33005

 Mulliken charges:
               1
     1  C   -0.297187
     2  C   -0.304506
     3  C   -0.481149
     4  H    0.145962
     5  H    0.143280
     6  H    0.176354
     7  H    0.145527
     8  H    0.142565
     9  H    0.147111
    10  H    0.179525
    11  C   -0.297326
    12  C   -0.298392
    13  C   -0.474850
    14  H    0.150904
    15  H    0.147267
    16  H    0.150137
    17  H    0.149737
    18  H    0.153852
    19  H    0.154171
    20  H    0.156917
    21  C   -0.170309
    22  C   -0.218587
    23  C   -0.170500
    24  C    0.158136
    25  C   -0.170446
    26  C   -0.218584
    27  H    0.226428
    28  H    0.224257
    29  H    0.276069
    30  H    0.275944
    31  H    0.224215
    32  N    0.489901
    33  O   -0.458238
    34  O   -0.458185
 Sum of Mulliken charges =  -0.00000

 Dipole moment (field-independent basis, Debye):
    X=             -5.6624    Y=             -1.2868    Z=              0.2269  Tot=              5.8112
 Quadrupole moment (field-independent basis, Debye-Ang):
   XX=            -65.5913   YY=            -91.5078   ZZ=            -94.6888
   XY=              3.7104   XZ=             -0.1323   YZ=             -3.2559

 Normal termination of Gaussian 16 at Thu May  6 13:55:40 2021.
