 Gaussian 16, Revision A.03,
 Gaussian 16:  EM64L-G16RevA.03 25-Dec-2016

 -------------
 #p 6-31g* mp2
 -------------

 ------------------------------------------------------
 Input file generated by CHIRIPA (05-May-2021 14:51:12)
 ------------------------------------------------------
 Symbolic Z-matrix:
 Charge =  0 Multiplicity = 1

                         Standard orientation:
 ---------------------------------------------------------------------
 Center     Atomic      Atomic             Coordinates (Angstroms)
 Number     Number       Type             X           Y           Z
 ---------------------------------------------------------------------
      1          6           0       -3.198689    0.863147    0.427168
      2          6           0       -2.859564    2.057951   -0.464697
      3          6           0       -2.200811    3.202607    0.305758
      4          1           0       -3.865116    1.194408    1.235305
      5          1           0       -2.279606    0.501232    0.908519
      6          1           0       -3.778793    2.416638   -0.945298
      7          1           0       -2.194020    1.723768   -1.270916
      8          1           0       -1.268880    2.866982    0.772084
      9          1           0       -2.862656    3.563789    1.099552
     10          1           0       -1.966887    4.046298   -0.350997
     11          6           0       -3.857818   -0.289245   -0.328657
     12          6           0       -4.196943   -1.484049    0.563207
     13          6           0       -4.855696   -2.628705   -0.207248
     14          1           0       -4.776900    0.072670   -0.810009
     15          1           0       -3.191391   -0.620506   -1.136795
     16          1           0       -4.862487   -1.149866    1.369426
     17          1           0       -3.277714   -1.842736    1.043808
     18          1           0       -4.193851   -2.989887   -1.001042
     19          1           0       -5.787627   -2.293080   -0.673574
     20          1           0       -5.089620   -3.472396    0.449507
     21          6           0        4.190688   -0.576368    0.197424
     22          6           0        5.409625    0.229496   -0.252865
     23          6           0        6.727420   -0.361985    0.248494
     24          1           0        4.177544   -0.627006    1.294788
     25          1           0        4.290008   -1.609973   -0.162005
     26          1           0        5.307369    1.261623    0.106129
     27          1           0        5.419763    0.278384   -1.349278
     28          1           0        6.856024   -1.384498   -0.121006
     29          1           0        6.742991   -0.395674    1.342671
     30          1           0        7.585660    0.229702   -0.084958
     31          6           0        2.865819    0.002466   -0.295935
     32          6           0        1.646882   -0.803398    0.154354
     33          6           0        0.329087   -0.211917   -0.347004
     34          1           0        2.766499    1.036071    0.063495
     35          1           0        2.878963    0.053104   -1.393299
     36          1           0        1.636744   -0.852286    1.250768
     37          1           0        1.749139   -1.835524   -0.204639
     38          1           0        0.313516   -0.178228   -1.441181
     39          1           0        0.200483    0.810596    0.022496
     40          1           0       -0.529153   -0.803604   -0.013552
 ---------------------------------------------------------------------

 SCF Done:  E(RHF) =  -470.732232954     A.U. after   11 cycles
 E2 =    -0.1584161363D+01 EUMP2 =    -0.47231639431725D+03

 The electronic state is 1-A.
 Alpha  occ. eigenvalues --  -11.21679 -11.21632 -11.21577 -11.21481 -11.21457
 Alpha  occ. eigenvalues --  -11.21395 -11.21300 -11.21184 -11.21166 -11.21095
 Alpha  occ. eigenvalues --  -11.21048 -11.21028  -1.08495  -1.08340  -1.03608
 Alpha  occ. eigenvalues --   -1.03457  -0.96062  -0.95911  -0.87096  -0.86919
 Alpha  occ. eigenvalues --   -0.79674  -0.79528  -0.78298  -0.78155  -0.65170
 Alpha  occ. eigenvalues --   -0.64981  -0.61122  -0.60770  -0.59424  -0.59284
 Alpha  occ. eigenvalues --   -0.57689  -0.57513  -0.55351  -0.55211  -0.52737
 Alpha  occ. eigenvalues --   -0.52622  -0.52484  -0.52295  -0.50014  -0.49852
 Alpha  occ. eigenvalues --   -0.48021  -0.47801  -0.46754  -0.46523  -0.45863
 Alpha  occ. eigenvalues --   -0.45794  -0.45656  -0.45528  -0.43795  -0.43693
 Alpha virt. eigenvalues --    0.20646   0.22919   0.23237   0.24612   0.26011
 Alpha virt. eigenvalues --    0.26384   0.26930   0.27472   0.27852   0.29451
 Alpha virt. eigenvalues --    0.30465   0.31010   0.31757   0.32095   0.32479

 Mulliken charges:
               1
     1  C   -0.301494
     2  C   -0.301373
     3  C   -0.477882
     4  H    0.148584
     5  H    0.154864
     6  H    0.151542
     7  H    0.155238
     8  H    0.155552
     9  H    0.155138
    10  H    0.160033
    11  C   -0.300125
    12  C   -0.300479
    13  C   -0.475548
    14  H    0.149499
    15  H    0.150800
    16  H    0.152160
    17  H    0.151155
    18  H    0.155058
    19  H    0.155265
    20  H    0.160054
    21  C   -0.298317
    22  C   -0.299693
    23  C   -0.475740
    24  H    0.149762
    25  H    0.149626
    26  H    0.152064
    27  H    0.151999
    28  H    0.155215
    29  H    0.155245
    30  H    0.160386
    31  C   -0.298725
    32  C   -0.300620
    33  C   -0.482784
    34  H    0.149719
    35  H    0.149808
    36  H    0.152115
    37  H    0.152157
    38  H    0.155187
    39  H    0.159758
    40  H    0.164795
 Sum of Mulliken charges =  -0.00000

 Dipole moment (field-independent basis, Debye):
    X=              0.0508    Y=             -0.0087    Z=             -0.0126  Tot=              0.0530
 Quadrupole moment (field-independent basis, Debye-Ang):
   XX=            -85.3830   YY=            -85.3292   ZZ=            -84.2868
   XY=             -0.5025   XZ=             -0.6915   YZ=              0.2677

 Normal termination of Gaussian 16 at Wed May  5 16:46:36 2021.
