 Gaussian 16, Revision A.03,
 Gaussian 16:  EM64L-G16RevA.03 25-Dec-2016

 -------------
 #p 6-31g* mp2
 -------------

 ------------------------------------------------------
 Input file generated by CHIRIPA (05-May-2021 14:55:23)
 ------------------------------------------------------
 Symbolic Z-matrix:
 Charge =  0 Multiplicity = 1

                         Standard orientation:
 ---------------------------------------------------------------------
 Center     Atomic      Atomic             Coordinates (Angstroms)
 Number     Number       Type             X           Y           Z
 ---------------------------------------------------------------------
      1          6           0       -0.888691   -1.083584   -0.223221
      2          6           0       -1.032948    0.295197   -0.037015
      3          6           0       -2.303751    0.868179    0.069283
      4          6           0       -3.413635    0.028972   -0.015451
      5          6           0       -3.302566   -1.348219   -0.200652
      6          6           0       -2.021963   -1.899453   -0.304302
      7          1           0        0.102306   -1.520243   -0.304767
      8          1           0       -0.154612    0.931248    0.026319
      9          1           0       -2.444246    1.932518    0.213718
     10          1           0       -4.196869   -1.956599   -0.259937
     11          1           0       -1.912952   -2.970555   -0.448882
     12          7           0       -4.764165    0.624051    0.095681
     13          8           0       -5.726157   -0.136961    0.017780
     14          8           0       -4.835145    1.840218    0.258581
     15          6           0        4.377468   -0.608269   -0.067262
     16          6           0        3.441466   -1.735787    0.369303
     17          6           0        4.041528   -3.123608    0.141994
     18          1           0        4.621480   -0.734062   -1.131019
     19          1           0        5.324751   -0.693784    0.482955
     20          1           0        2.495717   -1.647351   -0.180564
     21          1           0        3.199500   -1.607186    1.432096
     22          1           0        4.974582   -3.236561    0.703469
     23          1           0        4.266799   -3.276954   -0.918355
     24          1           0        3.355734   -3.914678    0.460985
     25          6           0        3.791623    0.785176    0.153703
     26          6           0        4.727625    1.912694   -0.282861
     27          6           0        4.127562    3.300515   -0.055552
     28          1           0        2.844340    0.870691   -0.396514
     29          1           0        3.547611    0.910968    1.217460
     30          1           0        4.969590    1.784093   -1.345655
     31          1           0        5.673374    1.824258    0.267006
     32          1           0        3.902291    3.453861    1.004796
     33          1           0        3.194509    3.413468   -0.617028
     34          1           0        4.813356    4.091584   -0.374543
 ---------------------------------------------------------------------

 SCF Done:  E(RHF) =  -669.535620399     A.U. after   15 cycles
 E2 =    -0.2091391289D+01 EUMP2 =    -0.67162701168855D+03

 The electronic state is 1-A.
 Alpha  occ. eigenvalues --  -20.60711 -20.60706 -15.85764 -11.31116 -11.27688
 Alpha  occ. eigenvalues --  -11.27682 -11.27391 -11.26695 -11.26676 -11.22837
 Alpha  occ. eigenvalues --  -11.22466 -11.22399 -11.22369 -11.22065 -11.21794
 Alpha  occ. eigenvalues --   -1.59787  -1.39341  -1.19287  -1.09443  -1.08681
 Alpha  occ. eigenvalues --   -1.04689  -1.04489  -0.96909  -0.95520  -0.87925
 Alpha  occ. eigenvalues --   -0.86085  -0.82357  -0.80574  -0.79273  -0.77404
 Alpha  occ. eigenvalues --   -0.71982  -0.71110  -0.70409  -0.66073  -0.64936
 Alpha  occ. eigenvalues --   -0.64687  -0.62039  -0.61884  -0.60297  -0.58535
 Alpha  occ. eigenvalues --   -0.56190  -0.55204  -0.53590  -0.53331  -0.53019
 Alpha  occ. eigenvalues --   -0.52777  -0.50845  -0.48879  -0.48738  -0.48727
 Alpha  occ. eigenvalues --   -0.47602  -0.46799  -0.46710  -0.44750  -0.44750
 Alpha  occ. eigenvalues --   -0.37262  -0.36297
 Alpha virt. eigenvalues --    0.05132   0.11355   0.16628   0.18714   0.22505
 Alpha virt. eigenvalues --    0.22862   0.24851   0.26100   0.26349   0.27369
 Alpha virt. eigenvalues --    0.29112   0.30535   0.30785   0.31128   0.31942

 Mulliken charges:
               1
     1  C   -0.177424
     2  C   -0.224832
     3  C   -0.171112
     4  C    0.158334
     5  C   -0.170789
     6  C   -0.220913
     7  H    0.236975
     8  H    0.226431
     9  H    0.275570
    10  H    0.275268
    11  H    0.223700
    12  N    0.487978
    13  O   -0.460662
    14  O   -0.460616
    15  C   -0.298000
    16  C   -0.306369
    17  C   -0.475811
    18  H    0.152300
    19  H    0.154325
    20  H    0.143423
    21  H    0.155399
    22  H    0.159974
    23  H    0.157419
    24  H    0.160050
    25  C   -0.300453
    26  C   -0.300229
    27  C   -0.476420
    28  H    0.142309
    29  H    0.151467
    30  H    0.154080
    31  H    0.155055
    32  H    0.156284
    33  H    0.153160
    34  H    0.164129
 Sum of Mulliken charges =  -0.00000

 Dipole moment (field-independent basis, Debye):
    X=              5.0803    Y=             -2.0887    Z=             -0.3566  Tot=              5.5045
 Quadrupole moment (field-independent basis, Debye-Ang):
   XX=           -125.5219   YY=            -91.6484   ZZ=            -94.6728
   XY=              9.7945   XZ=              2.0434   YZ=              0.4882

 Normal termination of Gaussian 16 at Thu May  6 11:01:29 2021.
