 Gaussian 16, Revision A.03,
 Gaussian 16:  EM64L-G16RevA.03 25-Dec-2016

 -------------
 #p 6-31g* mp2
 -------------

 ------------------------------------------------------
 Input file generated by CHIRIPA (05-May-2021 14:53:14)
 ------------------------------------------------------
 Symbolic Z-matrix:
 Charge =  0 Multiplicity = 1

                         Standard orientation:
 ---------------------------------------------------------------------
 Center     Atomic      Atomic             Coordinates (Angstroms)
 Number     Number       Type             X           Y           Z
 ---------------------------------------------------------------------
      1          6           0        4.011167   -0.560067   -0.228394
      2          6           0        3.221793   -1.869435   -0.207684
      3          6           0        4.121800   -3.103464   -0.278059
      4          1           0        4.619392   -0.520419   -1.142416
      5          1           0        4.714534   -0.550676    0.615752
      6          1           0        2.519151   -1.875752   -1.050815
      7          1           0        2.615231   -1.905884    0.706302
      8          1           0        4.813615   -3.124597    0.570202
      9          1           0        4.716989   -3.094293   -1.196899
     10          1           0        3.536896   -4.028390   -0.261937
     11          6           0        3.125298    0.682551   -0.158645
     12          6           0        3.914672    1.991918   -0.179355
     13          6           0        3.014665    3.225948   -0.108980
     14          1           0        2.421931    0.673160   -1.002791
     15          1           0        2.517073    0.642902    0.755377
     16          1           0        4.521234    2.028367   -1.093341
     17          1           0        4.617314    1.998236    0.663776
     18          1           0        2.419476    3.216777    0.809860
     19          1           0        2.322850    3.247080   -0.957241
     20          1           0        3.599569    4.150874   -0.125102
     21          6           0       -4.905356   -0.083939   -1.219972
     22          6           0       -4.971009   -0.198705    0.172521
     23          6           0       -3.804111   -0.179942    0.942289
     24          6           0       -2.582952   -0.044355    0.283746
     25          6           0       -2.484807    0.072090   -1.101930
     26          6           0       -3.664651    0.050854   -1.851640
     27          1           0       -5.816858   -0.099475   -1.810156
     28          1           0       -5.933171   -0.303508    0.665783
     29          1           0       -3.826055   -0.266936    2.021812
     30          1           0       -1.511072    0.175306   -1.565183
     31          1           0       -3.610635    0.140178   -2.932912
     32          7           0       -1.340757   -0.023184    1.088048
     33          8           0       -0.277246    0.097328    0.483846
     34          8           0       -1.454156   -0.127502    2.307431
 ---------------------------------------------------------------------

 SCF Done:  E(RHF) =  -669.535774124     A.U. after   15 cycles
 E2 =    -0.2091567644D+01 EUMP2 =    -0.67162734176780D+03

 The electronic state is 1-A.
 Alpha  occ. eigenvalues --  -20.60942 -20.60925 -15.85963 -11.31292 -11.27858
 Alpha  occ. eigenvalues --  -11.27854 -11.27595 -11.26865 -11.26856 -11.20495
 Alpha  occ. eigenvalues --  -11.20428 -11.20213 -11.20200 -11.20101 -11.19804
 Alpha  occ. eigenvalues --   -1.60001  -1.39555  -1.19462  -1.08866  -1.07200
 Alpha  occ. eigenvalues --   -1.04859  -1.02450  -0.95709  -0.94899  -0.86259
 Alpha  occ. eigenvalues --   -0.85925  -0.82545  -0.78493  -0.77616  -0.76927
 Alpha  occ. eigenvalues --   -0.72171  -0.71311  -0.70570  -0.65116  -0.64863
 Alpha  occ. eigenvalues --   -0.63845  -0.62207  -0.59864  -0.58273  -0.56498
 Alpha  occ. eigenvalues --   -0.55364  -0.54200  -0.53190  -0.52952  -0.51657
 Alpha  occ. eigenvalues --   -0.51323  -0.49023  -0.48951  -0.48806  -0.46822
 Alpha  occ. eigenvalues --   -0.45526  -0.44953  -0.44506  -0.44332  -0.42648
 Alpha  occ. eigenvalues --   -0.37441  -0.36460
 Alpha virt. eigenvalues --    0.04932   0.11195   0.16425   0.21267   0.23954
 Alpha virt. eigenvalues --    0.25293   0.26945   0.27596   0.28232   0.28801
 Alpha virt. eigenvalues --    0.29205   0.31016   0.32340   0.32490   0.32810

 Mulliken charges:
               1
     1  C   -0.298731
     2  C   -0.297698
     3  C   -0.475192
     4  H    0.142649
     5  H    0.146161
     6  H    0.148150
     7  H    0.162393
     8  H    0.153615
     9  H    0.151036
    10  H    0.156706
    11  C   -0.298913
    12  C   -0.299417
    13  C   -0.473517
    14  H    0.146241
    15  H    0.173235
    16  H    0.145521
    17  H    0.148883
    18  H    0.159766
    19  H    0.150936
    20  H    0.154513
    21  C   -0.170594
    22  C   -0.218581
    23  C   -0.170559
    24  C    0.157727
    25  C   -0.170638
    26  C   -0.218520
    27  H    0.225989
    28  H    0.223789
    29  H    0.275792
    30  H    0.275524
    31  H    0.223791
    32  N    0.492291
    33  O   -0.462198
    34  O   -0.460149
 Sum of Mulliken charges =  -0.00000

 Dipole moment (field-independent basis, Debye):
    X=             -4.7268    Y=             -0.0856    Z=             -2.6704  Tot=              5.4296
 Quadrupole moment (field-independent basis, Debye-Ang):
   XX=            -72.8393   YY=            -97.4483   ZZ=            -92.0477
   XY=              1.2079   XZ=              4.2934   YZ=             -0.4397

 Normal termination of Gaussian 16 at Wed May  5 15:33:53 2021.
