 Gaussian 16, Revision A.03,
 Gaussian 16:  EM64L-G16RevA.03 25-Dec-2016

 -------------
 #p 6-31g* mp2
 -------------

 ------------------------------------------------------
 Input file generated by CHIRIPA (05-May-2021 14:53:18)
 ------------------------------------------------------
 Symbolic Z-matrix:
 Charge =  0 Multiplicity = 1

                         Standard orientation:
 ---------------------------------------------------------------------
 Center     Atomic      Atomic             Coordinates (Angstroms)
 Number     Number       Type             X           Y           Z
 ---------------------------------------------------------------------
      1          6           0        3.834031   -0.702026    0.706265
      2          6           0        2.377692   -0.890485    0.280185
      3          6           0        1.531148   -1.573864    1.354500
      4          1           0        4.268086   -1.681619    0.949041
      5          1           0        3.864485   -0.108874    1.630732
      6          1           0        2.350065   -1.481933   -0.643959
      7          1           0        1.947110    0.089649    0.038212
      8          1           0        1.528922   -0.983551    2.276523
      9          1           0        1.934167   -2.564062    1.590476
     10          1           0        0.493670   -1.698592    1.029015
     11          6           0        4.692993   -0.020168   -0.357211
     12          6           0        6.149332    0.168291    0.068870
     13          6           0        6.995876    0.851670   -1.005445
     14          1           0        4.662539   -0.613320   -1.281677
     15          1           0        4.258938    0.959424   -0.599986
     16          1           0        6.579914   -0.811844    0.310843
     17          1           0        6.176959    0.759738    0.993014
     18          1           0        6.592857    1.841868   -1.241421
     19          1           0        6.998102    0.261356   -1.927468
     20          1           0        8.033355    0.976398   -0.679960
     21          6           0       -5.616128   -0.768704   -0.334610
     22          6           0       -4.510652   -1.378477   -0.936790
     23          6           0       -3.239752   -0.805169   -0.833450
     24          6           0       -3.109938    0.383696   -0.117182
     25          6           0       -4.192008    1.015310    0.493946
     26          6           0       -5.453565    0.424140    0.377581
     27          1           0       -6.599765   -1.221001   -0.419946
     28          1           0       -4.633928   -2.304893   -1.490507
     29          1           0       -2.366862   -1.255985   -1.289789
     30          1           0       -4.037787    1.938414    1.039394
     31          1           0       -6.310303    0.899925    0.846274
     32          7           0       -1.769439    1.000086   -0.000886
     33          8           0       -1.681527    2.047810    0.635654
     34          8           0       -0.832051    0.423817   -0.548474
 ---------------------------------------------------------------------

 SCF Done:  E(RHF) =  -669.536157929     A.U. after   15 cycles
 E2 =    -0.2091618436D+01 EUMP2 =    -0.67162777636583D+03

 The electronic state is 1-A.
 Alpha  occ. eigenvalues --  -20.61021 -20.61000 -15.86023 -11.31322 -11.27881
 Alpha  occ. eigenvalues --  -11.27878 -11.27614 -11.26884 -11.26874 -11.20833
 Alpha  occ. eigenvalues --  -11.20423 -11.20418 -11.20244 -11.20027 -11.19800
 Alpha  occ. eigenvalues --   -1.60062  -1.39621  -1.19487  -1.08898  -1.07368
 Alpha  occ. eigenvalues --   -1.04880  -1.02449  -0.95747  -0.94954  -0.86282
 Alpha  occ. eigenvalues --   -0.85989  -0.82580  -0.78543  -0.77639  -0.77123
 Alpha  occ. eigenvalues --   -0.72254  -0.71371  -0.70596  -0.65146  -0.64884
 Alpha  occ. eigenvalues --   -0.64003  -0.62228  -0.59848  -0.58337  -0.56522
 Alpha  occ. eigenvalues --   -0.55385  -0.54270  -0.53211  -0.52971  -0.51675
 Alpha  occ. eigenvalues --   -0.51380  -0.49073  -0.49002  -0.48904  -0.46849
 Alpha  occ. eigenvalues --   -0.45568  -0.45010  -0.44694  -0.44506  -0.42718
 Alpha  occ. eigenvalues --   -0.37464  -0.36479
 Alpha virt. eigenvalues --    0.04870   0.11167   0.16348   0.21261   0.23867
 Alpha virt. eigenvalues --    0.25273   0.27172   0.27695   0.27922   0.28665
 Alpha virt. eigenvalues --    0.29030   0.30745   0.31884   0.32399   0.32787

 Mulliken charges:
               1
     1  C   -0.298290
     2  C   -0.301520
     3  C   -0.474330
     4  H    0.143623
     5  H    0.147918
     6  H    0.144480
     7  H    0.177484
     8  H    0.152757
     9  H    0.145314
    10  H    0.160451
    11  C   -0.297730
    12  C   -0.298770
    13  C   -0.475157
    14  H    0.147030
    15  H    0.152752
    16  H    0.149533
    17  H    0.151212
    18  H    0.155479
    19  H    0.153707
    20  H    0.157628
    21  C   -0.170498
    22  C   -0.218444
    23  C   -0.171219
    24  C    0.157911
    25  C   -0.170503
    26  C   -0.218555
    27  H    0.226129
    28  H    0.224027
    29  H    0.276038
    30  H    0.275882
    31  H    0.223925
    32  N    0.490259
    33  O   -0.458792
    34  O   -0.459731
 Sum of Mulliken charges =  -0.00000

 Dipole moment (field-independent basis, Debye):
    X=             -5.0849    Y=             -1.9840    Z=             -0.4867  Tot=              5.4799
 Quadrupole moment (field-independent basis, Debye-Ang):
   XX=            -66.7982   YY=            -93.7496   ZZ=            -94.3675
   XY=              3.2831   XZ=              0.8883   YZ=              3.4424

 Normal termination of Gaussian 16 at Thu May  6 07:36:36 2021.
