 Gaussian 16, Revision A.03,
 Gaussian 16:  EM64L-G16RevA.03 25-Dec-2016

 -------------
 #p 6-31g* mp2
 -------------

 ------------------------------------------------------
 Input file generated by CHIRIPA (05-May-2021 14:51:13)
 ------------------------------------------------------
 Symbolic Z-matrix:
 Charge =  0 Multiplicity = 1

                         Standard orientation:
 ---------------------------------------------------------------------
 Center     Atomic      Atomic             Coordinates (Angstroms)
 Number     Number       Type             X           Y           Z
 ---------------------------------------------------------------------
      1          6           0        4.384486   -0.186364   -0.085965
      2          6           0        5.699648    0.104757   -0.809555
      3          6           0        6.605376   -1.123263   -0.906602
      4          1           0        4.603771   -0.562638    0.922636
      5          1           0        3.855235   -0.992806   -0.612216
      6          1           0        6.225611    0.911358   -0.282892
      7          1           0        5.477203    0.480563   -1.816483
      8          1           0        6.103675   -1.929935   -1.450824
      9          1           0        6.856335   -1.496693    0.091481
     10          1           0        7.539936   -0.892671   -1.427452
     11          6           0        3.468313    1.031558    0.019016
     12          6           0        2.153151    0.740437    0.742606
     13          6           0        1.247423    1.968456    0.839653
     14          1           0        3.997564    1.838000    0.545267
     15          1           0        3.249027    1.407832   -0.989586
     16          1           0        2.375595    0.364631    1.749534
     17          1           0        1.627187   -0.066164    0.215943
     18          1           0        0.996463    2.341887   -0.158430
     19          1           0        1.749123    2.775129    1.383875
     20          1           0        0.312862    1.737865    1.360503
     21          6           0       -4.541592   -0.495509   -0.413351
     22          6           0       -5.497132    0.695183   -0.328602
     23          6           0       -6.723025    0.534559   -1.228149
     24          1           0       -4.218988   -0.625163   -1.455493
     25          1           0       -5.082581   -1.411243   -0.137386
     26          1           0       -4.954142    1.608591   -0.603309
     27          1           0       -5.817348    0.822136    0.713491
     28          1           0       -7.289503   -0.360412   -0.951145
     29          1           0       -6.421392    0.430513   -2.275428
     30          1           0       -7.392606    1.396953   -1.152020
     31          6           0       -3.311206   -0.349686    0.480301
     32          6           0       -2.355666   -1.540377    0.395552
     33          6           0       -1.129774   -1.379752    1.295098
     34          1           0       -2.770218    0.566050    0.204335
     35          1           0       -3.633810   -0.220030    1.522443
     36          1           0       -2.035450   -1.667330   -0.646543
     37          1           0       -2.898656   -2.453785    0.670258
     38          1           0       -1.431406   -1.275706    2.342377
     39          1           0       -0.563295   -0.484782    1.018095
     40          1           0       -0.460191   -2.242146    1.218970
 ---------------------------------------------------------------------

 SCF Done:  E(RHF) =  -470.732498410     A.U. after   11 cycles
 E2 =    -0.1583229211D+01 EUMP2 =    -0.47231572762080D+03

 The electronic state is 1-A.
 Alpha  occ. eigenvalues --  -11.21597 -11.21591 -11.21572 -11.21564 -11.21396
 Alpha  occ. eigenvalues --  -11.21393 -11.21337 -11.21334 -11.21089 -11.21067
 Alpha  occ. eigenvalues --  -11.21064 -11.20964  -1.08438  -1.08402  -1.03577
 Alpha  occ. eigenvalues --   -1.03469  -0.96043  -0.95907  -0.87011  -0.86968
 Alpha  occ. eigenvalues --   -0.79659  -0.79517  -0.78270  -0.78194  -0.65118
 Alpha  occ. eigenvalues --   -0.64999  -0.61109  -0.60797  -0.59417  -0.59296
 Alpha  occ. eigenvalues --   -0.57792  -0.57418  -0.55355  -0.55120  -0.52730
 Alpha  occ. eigenvalues --   -0.52649  -0.52497  -0.52234  -0.49971  -0.49836
 Alpha  occ. eigenvalues --   -0.47911  -0.47873  -0.46746  -0.46474  -0.45814
 Alpha  occ. eigenvalues --   -0.45747  -0.45728  -0.45577  -0.43804  -0.43740
 Alpha virt. eigenvalues --    0.21668   0.23125   0.23491   0.25058   0.26400
 Alpha virt. eigenvalues --    0.26641   0.27040   0.27184   0.28025   0.29095
 Alpha virt. eigenvalues --    0.30877   0.31371   0.31615   0.31780   0.32005

 Mulliken charges:
               1
     1  C   -0.298307
     2  C   -0.299644
     3  C   -0.475699
     4  H    0.149783
     5  H    0.149537
     6  H    0.151939
     7  H    0.151841
     8  H    0.155148
     9  H    0.155215
    10  H    0.160224
    11  C   -0.297759
    12  C   -0.302778
    13  C   -0.480569
    14  H    0.149383
    15  H    0.149286
    16  H    0.153035
    17  H    0.154898
    18  H    0.154709
    19  H    0.156259
    20  H    0.162775
    21  C   -0.298208
    22  C   -0.299684
    23  C   -0.475696
    24  H    0.149519
    25  H    0.149564
    26  H    0.152035
    27  H    0.151931
    28  H    0.155156
    29  H    0.155121
    30  H    0.160248
    31  C   -0.298946
    32  C   -0.299210
    33  C   -0.485730
    34  H    0.149842
    35  H    0.149533
    36  H    0.151210
    37  H    0.151709
    38  H    0.154344
    39  H    0.168186
    40  H    0.159803
 Sum of Mulliken charges =  -0.00000

 Dipole moment (field-independent basis, Debye):
    X=              0.0203    Y=              0.0083    Z=              0.0101  Tot=              0.0242
 Quadrupole moment (field-independent basis, Debye-Ang):
   XX=            -85.9129   YY=            -85.2261   ZZ=            -83.7648
   XY=              0.9243   XZ=             -0.3978   YZ=             -0.2010

 Normal termination of Gaussian 16 at Thu May  6 00:46:18 2021.
