 Gaussian 16, Revision A.03,
 Gaussian 16:  EM64L-G16RevA.03 25-Dec-2016

 -------------
 #p 6-31g* mp2
 -------------

 ------------------------------------------------------
 Input file generated by CHIRIPA (05-May-2021 14:57:26)
 ------------------------------------------------------
 Symbolic Z-matrix:
 Charge =  0 Multiplicity = 1

                         Standard orientation:
 ---------------------------------------------------------------------
 Center     Atomic      Atomic             Coordinates (Angstroms)
 Number     Number       Type             X           Y           Z
 ---------------------------------------------------------------------
      1          6           0       -3.153173    2.452093   -0.716221
      2          6           0       -2.682561    1.430401   -1.547599
      3          6           0       -2.618450    0.112298   -1.086034
      4          6           0       -3.034925   -0.149640    0.218277
      5          6           0       -3.508579    0.846506    1.070706
      6          6           0       -3.563956    2.157405    0.587979
      7          1           0       -3.199583    3.473229   -1.082996
      8          1           0       -2.362875    1.656331   -2.560911
      9          1           0       -2.258329   -0.697891   -1.708388
     10          1           0       -3.820239    0.590425    2.076046
     11          1           0       -3.929881    2.948849    1.235867
     12          7           0       -2.971678   -1.541244    0.718118
     13          8           0       -3.344518   -1.745956    1.871253
     14          8           0       -2.550461   -2.400920   -0.052707
     15          6           0        4.741196    1.365734    1.047617
     16          6           0        4.952994   -0.012287    0.934842
     17          6           0        4.020110   -0.822869    0.281209
     18          6           0        2.881401   -0.219453   -0.250316
     19          6           0        2.642008    1.150491   -0.154217
     20          6           0        3.588412    1.941710    0.503687
     21          1           0        5.471135    1.987893    1.557033
     22          1           0        5.847351   -0.462332    1.356303
     23          1           0        4.159038   -1.892347    0.179553
     24          1           0        1.740879    1.570311   -0.584493
     25          1           0        3.421304    3.011621    0.589765
     26          7           0        1.886642   -1.067331   -0.944548
     27          8           0        0.891532   -0.511400   -1.404260
     28          8           0        2.120895   -2.271773   -1.015829
 ---------------------------------------------------------------------

 SCF Done:  E(RHF) =  -868.338003068     A.U. after   16 cycles
 E2 =    -0.2599726009D+01 EUMP2 =    -0.87093772907685D+03

 The electronic state is 1-A.
 Alpha  occ. eigenvalues --  -20.60867 -20.60808 -20.59885 -20.59815 -15.85890
 Alpha  occ. eigenvalues --  -15.84906 -11.31257 -11.30306 -11.27856 -11.27799
 Alpha  occ. eigenvalues --  -11.27576 -11.27021 -11.26869 -11.26822 -11.26799
 Alpha  occ. eigenvalues --  -11.26785 -11.26058 -11.25909  -1.59894  -1.58931
 Alpha  occ. eigenvalues --   -1.39456  -1.38477  -1.19429  -1.18536  -1.08823
 Alpha  occ. eigenvalues --   -1.07947  -1.04837  -1.03934  -0.95661  -0.94754
 Alpha  occ. eigenvalues --   -0.86235  -0.85343  -0.82502  -0.81575  -0.77543
 Alpha  occ. eigenvalues --   -0.76585  -0.72131  -0.71212  -0.71125  -0.70543
 Alpha  occ. eigenvalues --   -0.70255  -0.69667  -0.65090  -0.64845  -0.64193
 Alpha  occ. eigenvalues --   -0.63957  -0.62188  -0.61255  -0.55339  -0.54513
 Alpha  occ. eigenvalues --   -0.53161  -0.52934  -0.52289  -0.52031  -0.48876
 Alpha  occ. eigenvalues --   -0.48838  -0.47909  -0.47860  -0.44863  -0.43868
 Alpha  occ. eigenvalues --   -0.37409  -0.36587  -0.36439  -0.35512
 Alpha virt. eigenvalues --    0.04982   0.05948   0.11216   0.12115   0.16495
 Alpha virt. eigenvalues --    0.17365   0.21324   0.22152   0.27226   0.27991
 Alpha virt. eigenvalues --    0.28297   0.29099   0.30876   0.31649   0.32442

 Mulliken charges:
               1
     1  C   -0.173500
     2  C   -0.222196
     3  C   -0.156711
     4  C    0.153365
     5  C   -0.172462
     6  C   -0.220918
     7  H    0.220532
     8  H    0.223174
     9  H    0.288409
    10  H    0.272455
    11  H    0.218545
    12  N    0.487412
    13  O   -0.467098
    14  O   -0.452114
    15  C   -0.170660
    16  C   -0.218415
    17  C   -0.169980
    18  C    0.158973
    19  C   -0.170794
    20  C   -0.218388
    21  H    0.225591
    22  H    0.224309
    23  H    0.277444
    24  H    0.272708
    25  H    0.221834
    26  N    0.490925
    27  O   -0.469451
    28  O   -0.452988
 Sum of Mulliken charges =  -0.00000

 Dipole moment (field-independent basis, Debye):
    X=              3.5651    Y=              7.5560    Z=              0.5155  Tot=              8.3707
 Quadrupole moment (field-independent basis, Debye-Ang):
   XX=            -82.7626   YY=           -104.9355   ZZ=           -103.8596
   XY=             -9.9055   XZ=             11.0342   YZ=              0.9846

 Normal termination of Gaussian 16 at Thu May  6 22:53:54 2021.
