 Gaussian 16, Revision A.03,
 Gaussian 16:  EM64L-G16RevA.03 25-Dec-2016

 -------------
 #p 6-31g* mp2
 -------------

 ------------------------------------------------------
 Input file generated by CHIRIPA (05-May-2021 14:51:12)
 ------------------------------------------------------
 Symbolic Z-matrix:
 Charge =  0 Multiplicity = 1

                         Standard orientation:
 ---------------------------------------------------------------------
 Center     Atomic      Atomic             Coordinates (Angstroms)
 Number     Number       Type             X           Y           Z
 ---------------------------------------------------------------------
      1          6           0       -2.851989   -0.245126    0.188148
      2          6           0       -3.006905   -1.288184   -0.919108
      3          6           0       -3.024161   -2.720338   -0.383916
      4          1           0       -1.923779   -0.442416    0.741725
      5          1           0       -3.674994   -0.358927    0.907251
      6          1           0       -2.184623   -1.171548   -1.636648
      7          1           0       -3.934758   -1.088273   -1.470234
      8          1           0       -3.854229   -2.860011    0.316140
      9          1           0       -2.094151   -2.943759    0.148780
     10          1           0       -3.135729   -3.449688   -1.192286
     11          6           0       -2.833016    1.191422   -0.331177
     12          6           0       -2.678101    2.234480    0.776079
     13          6           0       -2.660845    3.666634    0.240887
     14          1           0       -2.010012    1.305223   -1.050280
     15          1           0       -3.761227    1.388712   -0.884753
     16          1           0       -1.750248    2.034568    1.327206
     17          1           0       -3.500382    2.117843    1.493620
     18          1           0       -3.590855    3.890055   -0.291809
     19          1           0       -1.830776    3.806307   -0.459169
     20          1           0       -2.549276    4.395984    1.049257
     21          6           0        2.580349   -1.023150    0.532173
     22          6           0        1.481844   -1.875041   -0.104657
     23          6           0        0.967582   -2.971055    0.829196
     24          1           0        3.413847   -1.673896    0.830090
     25          1           0        2.193620   -0.568449    1.454714
     26          1           0        1.870095   -2.326890   -1.026454
     27          1           0        0.650946   -1.222166   -0.401268
     28          1           0        0.554621   -2.534832    1.744496
     29          1           0        1.780697   -3.645834    1.115758
     30          1           0        0.182956   -3.567956    0.353873
     31          6           0        3.104656    0.076854   -0.389143
     32          6           0        4.203161    0.928745    0.247686
     33          6           0        4.717424    2.024759   -0.686167
     34          1           0        3.491386   -0.377847   -1.311685
     35          1           0        2.271158    0.727601   -0.687062
     36          1           0        5.034060    0.275870    0.544297
     37          1           0        3.814910    1.380594    1.169483
     38          1           0        3.904308    2.699539   -0.972728
     39          1           0        5.130385    1.588536   -1.601467
     40          1           0        5.502050    2.621660   -0.210845
 ---------------------------------------------------------------------

 SCF Done:  E(RHF) =  -470.733149893     A.U. after   11 cycles
 E2 =    -0.1583424083D+01 EUMP2 =    -0.47231657397594D+03

 The electronic state is 1-A.
 Alpha  occ. eigenvalues --  -11.21683 -11.21644 -11.21638 -11.21592 -11.21468
 Alpha  occ. eigenvalues --  -11.21428 -11.21408 -11.21366 -11.21134 -11.21105
 Alpha  occ. eigenvalues --  -11.21102 -11.21002  -1.08500  -1.08440  -1.03611
 Alpha  occ. eigenvalues --   -1.03518  -0.96065  -0.95964  -0.87095  -0.86968
 Alpha  occ. eigenvalues --   -0.79676  -0.79579  -0.78304  -0.78260  -0.65248
 Alpha  occ. eigenvalues --   -0.64976  -0.61149  -0.60824  -0.59422  -0.59336
 Alpha  occ. eigenvalues --   -0.57712  -0.57544  -0.55373  -0.55230  -0.52806
 Alpha  occ. eigenvalues --   -0.52671  -0.52506  -0.52308  -0.50051  -0.49846
 Alpha  occ. eigenvalues --   -0.47973  -0.47894  -0.46714  -0.46589  -0.45901
 Alpha  occ. eigenvalues --   -0.45796  -0.45725  -0.45705  -0.43825  -0.43795
 Alpha virt. eigenvalues --    0.19431   0.23202   0.23523   0.25073   0.25776
 Alpha virt. eigenvalues --    0.26716   0.26818   0.27772   0.28529   0.29178
 Alpha virt. eigenvalues --    0.30466   0.31224   0.31508   0.31774   0.32179

 Mulliken charges:
               1
     1  C   -0.300751
     2  C   -0.299852
     3  C   -0.483188
     4  H    0.151289
     5  H    0.149793
     6  H    0.152574
     7  H    0.151944
     8  H    0.154955
     9  H    0.163467
    10  H    0.159617
    11  C   -0.298423
    12  C   -0.299540
    13  C   -0.475679
    14  H    0.149060
    15  H    0.150005
    16  H    0.151287
    17  H    0.152165
    18  H    0.155406
    19  H    0.154995
    20  H    0.160325
    21  C   -0.298290
    22  C   -0.303569
    23  C   -0.480251
    24  H    0.150164
    25  H    0.149414
    26  H    0.152516
    27  H    0.154496
    28  H    0.155174
    29  H    0.156062
    30  H    0.164615
    31  C   -0.298210
    32  C   -0.299718
    33  C   -0.475738
    34  H    0.149761
    35  H    0.149100
    36  H    0.152128
    37  H    0.152004
    38  H    0.155160
    39  H    0.155271
    40  H    0.160463
 Sum of Mulliken charges =  -0.00000

 Dipole moment (field-independent basis, Debye):
    X=              0.0255    Y=             -0.0166    Z=              0.0070  Tot=              0.0312
 Quadrupole moment (field-independent basis, Debye-Ang):
   XX=            -83.4211   YY=            -86.1928   ZZ=            -85.0311
   XY=             -1.0128   XZ=             -0.1191   YZ=              0.9411

 Normal termination of Gaussian 16 at Wed May  5 15:16:44 2021.
