 Gaussian 16, Revision A.03,
 Gaussian 16:  EM64L-G16RevA.03 25-Dec-2016

 -------------
 #p 6-31g* mp2
 -------------

 ------------------------------------------------------
 Input file generated by CHIRIPA (05-May-2021 14:53:12)
 ------------------------------------------------------
 Symbolic Z-matrix:
 Charge =  0 Multiplicity = 1

                         Standard orientation:
 ---------------------------------------------------------------------
 Center     Atomic      Atomic             Coordinates (Angstroms)
 Number     Number       Type             X           Y           Z
 ---------------------------------------------------------------------
      1          6           0        2.819714    0.862190    0.079045
      2          6           0        3.554228    2.196645   -0.054007
      3          6           0        2.739175    3.375694    0.478275
      4          1           0        1.863863    0.921770   -0.459233
      5          1           0        2.573052    0.691171    1.136072
      6          1           0        3.800654    2.364440   -1.110290
      7          1           0        4.508529    2.133817    0.484490
      8          1           0        2.505162    3.234874    1.538468
      9          1           0        1.793265    3.466808   -0.065374
     10          1           0        3.283057    4.319647    0.373369
     11          6           0        3.621736   -0.326040   -0.448780
     12          6           0        2.887221   -1.660496   -0.315728
     13          6           0        3.702275   -2.839545   -0.848010
     14          1           0        3.868398   -0.155022   -1.505806
     15          1           0        4.577587   -0.385621    0.089498
     16          1           0        1.932921   -1.597668   -0.854225
     17          1           0        2.640796   -1.828291    0.740556
     18          1           0        4.648185   -2.930659   -0.304361
     19          1           0        3.936287   -2.698725   -1.908203
     20          1           0        3.158393   -3.783498   -0.743104
     21          6           0       -0.892308   -1.896318    1.084295
     22          6           0       -0.571669   -0.534846    1.094729
     23          6           0       -1.463796    0.408684    0.576649
     24          6           0       -2.673182   -0.046352    0.053565
     25          6           0       -3.021416   -1.395950    0.028896
     26          6           0       -2.114005   -2.321774    0.552349
     27          1           0       -0.193346   -2.622397    1.488838
     28          1           0        0.376393   -0.201552    1.507206
     29          1           0       -1.240955    1.468749    0.572133
     30          1           0       -3.974113   -1.697844   -0.389012
     31          1           0       -2.365679   -3.378474    0.542927
     32          7           0       -3.625728    0.943150   -0.497747
     33          8           0       -4.684764    0.516638   -0.952904
     34          8           0       -3.295260    2.126495   -0.464270
 ---------------------------------------------------------------------

 SCF Done:  E(RHF) =  -669.534962374     A.U. after   15 cycles
 E2 =    -0.2093326054D+01 EUMP2 =    -0.67162828842850D+03

 The electronic state is 1-A.
 Alpha  occ. eigenvalues --  -20.60717 -20.60712 -15.85769 -11.31115 -11.27675
 Alpha  occ. eigenvalues --  -11.27645 -11.27380 -11.26696 -11.26584 -11.22492
 Alpha  occ. eigenvalues --  -11.22320 -11.22226 -11.22169 -11.21825 -11.21621
 Alpha  occ. eigenvalues --   -1.59793  -1.39347  -1.19276  -1.09259  -1.08667
 Alpha  occ. eigenvalues --   -1.04669  -1.04272  -0.96717  -0.95513  -0.87729
 Alpha  occ. eigenvalues --   -0.86074  -0.82351  -0.80349  -0.79158  -0.77365
 Alpha  occ. eigenvalues --   -0.71987  -0.71117  -0.70375  -0.65883  -0.64921
 Alpha  occ. eigenvalues --   -0.64662  -0.62030  -0.61654  -0.60097  -0.58346
 Alpha  occ. eigenvalues --   -0.55993  -0.55159  -0.53412  -0.53209  -0.53003
 Alpha  occ. eigenvalues --   -0.52689  -0.50648  -0.48750  -0.48745  -0.48662
 Alpha  occ. eigenvalues --   -0.47374  -0.46572  -0.46534  -0.44757  -0.44548
 Alpha  occ. eigenvalues --   -0.37228  -0.36241
 Alpha virt. eigenvalues --    0.05098   0.11317   0.16520   0.19912   0.22666
 Alpha virt. eigenvalues --    0.22955   0.24617   0.26055   0.26881   0.28019
 Alpha virt. eigenvalues --    0.29251   0.30629   0.31126   0.31408   0.31733

 Mulliken charges:
               1
     1  C   -0.305869
     2  C   -0.299200
     3  C   -0.478068
     4  H    0.154071
     5  H    0.141106
     6  H    0.156027
     7  H    0.153591
     8  H    0.152803
     9  H    0.157516
    10  H    0.164973
    11  C   -0.297508
    12  C   -0.304115
    13  C   -0.475654
    14  H    0.154339
    15  H    0.151625
    16  H    0.159017
    17  H    0.140816
    18  H    0.156851
    19  H    0.159162
    20  H    0.158660
    21  C   -0.172777
    22  C   -0.218526
    23  C   -0.176503
    24  C    0.158716
    25  C   -0.171599
    26  C   -0.218974
    27  H    0.226348
    28  H    0.232649
    29  H    0.275760
    30  H    0.275154
    31  H    0.222967
    32  N    0.488079
    33  O   -0.460721
    34  O   -0.460715
 Sum of Mulliken charges =  -0.00000

 Dipole moment (field-independent basis, Debye):
    X=              3.5467    Y=             -3.4179    Z=              1.8117  Tot=              5.2482
 Quadrupole moment (field-independent basis, Debye-Ang):
   XX=           -110.7244   YY=            -92.5807   ZZ=            -94.3185
   XY=             12.5557   XZ=             -4.1049   YZ=              0.2233

 Normal termination of Gaussian 16 at Wed May  5 15:28:42 2021.
