 Gaussian 16, Revision A.03,
 Gaussian 16:  EM64L-G16RevA.03 25-Dec-2016

 -------------
 #p 6-31g* mp2
 -------------

 ------------------------------------------------------
 Input file generated by CHIRIPA (05-May-2021 14:51:08)
 ------------------------------------------------------
 Symbolic Z-matrix:
 Charge =  0 Multiplicity = 1

                         Standard orientation:
 ---------------------------------------------------------------------
 Center     Atomic      Atomic             Coordinates (Angstroms)
 Number     Number       Type             X           Y           Z
 ---------------------------------------------------------------------
      1          6           0        1.761639   -1.272492   -0.007671
      2          6           0        1.525445   -2.196793    1.187262
      3          6           0        0.271552   -3.057513    1.030076
      4          1           0        0.884603   -0.624394   -0.140794
      5          1           0        1.843869   -1.878565   -0.920529
      6          1           0        1.445065   -1.589258    2.097788
      7          1           0        2.403225   -2.842634    1.317674
      8          1           0        0.346332   -3.687891    0.138093
      9          1           0       -0.617272   -2.427393    0.922640
     10          1           0        0.121830   -3.710603    1.895475
     11          6           0        3.011460   -0.405653    0.134684
     12          6           0        3.247654    0.518648   -1.060249
     13          6           0        4.501547    1.379368   -0.903063
     14          1           0        2.929229    0.200420    1.047542
     15          1           0        3.888496   -1.053751    0.267807
     16          1           0        2.369874    1.164489   -1.190661
     17          1           0        3.328034   -0.088887   -1.970775
     18          1           0        5.390370    0.749249   -0.795627
     19          1           0        4.426766    2.009746   -0.011080
     20          1           0        4.651268    2.032459   -1.768462
     21          6           0       -2.682224    0.145560    0.059167
     22          6           0       -3.170129   -0.540091   -1.217475
     23          6           0       -3.758982   -1.926654   -0.955771
     24          1           0       -1.927688   -0.489386    0.543382
     25          1           0       -3.519996    0.229267    0.765231
     26          1           0       -2.332016   -0.621235   -1.921464
     27          1           0       -3.923451    0.096650   -1.698809
     28          1           0       -4.612235   -1.860231   -0.273022
     29          1           0       -3.011758   -2.582194   -0.496942
     30          1           0       -4.101490   -2.398699   -1.881904
     31          6           0       -2.090874    1.532585   -0.186180
     32          6           0       -1.602970    2.218236    1.090462
     33          6           0       -1.014117    3.604799    0.828758
     34          1           0       -1.253103    1.448878   -0.892245
     35          1           0       -2.845411    2.167531   -0.670396
     36          1           0       -0.849648    1.581495    1.571795
     37          1           0       -2.441083    2.299379    1.794450
     38          1           0       -1.761341    4.260338    0.369928
     39          1           0       -0.160863    3.538375    0.146008
     40          1           0       -0.671609    4.076843    1.754890
 ---------------------------------------------------------------------

 SCF Done:  E(RHF) =  -470.733228063     A.U. after   11 cycles
 E2 =    -0.1584229574D+01 EUMP2 =    -0.47231745763792D+03

 The electronic state is 1-A.
 Alpha  occ. eigenvalues --  -11.21676 -11.21666 -11.21665 -11.21600 -11.21478
 Alpha  occ. eigenvalues --  -11.21449 -11.21416 -11.21385 -11.21130 -11.21128
 Alpha  occ. eigenvalues --  -11.21110 -11.21036  -1.08520  -1.08454  -1.03603
 Alpha  occ. eigenvalues --   -1.03550  -0.96045  -0.96005  -0.87062  -0.87020
 Alpha  occ. eigenvalues --   -0.79684  -0.79598  -0.78345  -0.78260  -0.65373
 Alpha  occ. eigenvalues --   -0.64889  -0.61091  -0.60870  -0.59414  -0.59370
 Alpha  occ. eigenvalues --   -0.57652  -0.57616  -0.55341  -0.55297  -0.52733
 Alpha  occ. eigenvalues --   -0.52696  -0.52476  -0.52428  -0.50056  -0.49905
 Alpha  occ. eigenvalues --   -0.48086  -0.47862  -0.46827  -0.46600  -0.46080
 Alpha  occ. eigenvalues --   -0.45806  -0.45731  -0.45389  -0.43848  -0.43814
 Alpha virt. eigenvalues --    0.18740   0.22011   0.23822   0.24679   0.25501
 Alpha virt. eigenvalues --    0.26386   0.26773   0.27682   0.28659   0.29888
 Alpha virt. eigenvalues --    0.31063   0.31551   0.31620   0.32081   0.32160

 Mulliken charges:
               1
     1  C   -0.302884
     2  C   -0.299303
     3  C   -0.485175
     4  H    0.152759
     5  H    0.149857
     6  H    0.151880
     7  H    0.152579
     8  H    0.155637
     9  H    0.163009
    10  H    0.161153
    11  C   -0.298211
    12  C   -0.299875
    13  C   -0.475811
    14  H    0.149733
    15  H    0.150109
    16  H    0.151263
    17  H    0.152159
    18  H    0.155369
    19  H    0.155501
    20  H    0.160486
    21  C   -0.307445
    22  C   -0.299299
    23  C   -0.479083
    24  H    0.157015
    25  H    0.149957
    26  H    0.152476
    27  H    0.152003
    28  H    0.154930
    29  H    0.158878
    30  H    0.160289
    31  C   -0.299058
    32  C   -0.300282
    33  C   -0.475833
    34  H    0.150132
    35  H    0.150271
    36  H    0.151417
    37  H    0.152423
    38  H    0.155602
    39  H    0.154954
    40  H    0.160421
 Sum of Mulliken charges =  -0.00000

 Dipole moment (field-independent basis, Debye):
    X=              0.0088    Y=             -0.0092    Z=              0.0022  Tot=              0.0129
 Quadrupole moment (field-independent basis, Debye-Ang):
   XX=            -84.4856   YY=            -85.5193   ZZ=            -84.5586
   XY=             -1.8980   XZ=             -0.3431   YZ=              0.4416

 Normal termination of Gaussian 16 at Thu May  6 11:33:52 2021.
