 Gaussian 16, Revision A.03,
 Gaussian 16:  EM64L-G16RevA.03 25-Dec-2016

 -------------
 #p 6-31g* mp2
 -------------

 ------------------------------------------------------
 Input file generated by CHIRIPA (05-May-2021 14:53:15)
 ------------------------------------------------------
 Symbolic Z-matrix:
 Charge =  0 Multiplicity = 1

                         Standard orientation:
 ---------------------------------------------------------------------
 Center     Atomic      Atomic             Coordinates (Angstroms)
 Number     Number       Type             X           Y           Z
 ---------------------------------------------------------------------
      1          6           0        2.828018    0.828824   -0.174753
      2          6           0        2.726600    2.342718   -0.364031
      3          6           0        1.281193    2.829433   -0.472196
      4          1           0        2.332479    0.326418   -1.016759
      5          1           0        2.274731    0.541566    0.730095
      6          1           0        3.281074    2.627207   -1.267492
      7          1           0        3.222606    2.841577    0.478425
      8          1           0        0.720003    2.574105    0.432499
      9          1           0        0.778803    2.358516   -1.323338
     10          1           0        1.231965    3.914443   -0.607067
     11          6           0        4.266734    0.327056   -0.064964
     12          6           0        4.368152   -1.186838    0.124314
     13          6           0        5.813559   -1.673553    0.232479
     14          1           0        4.820022    0.614314   -0.969812
     15          1           0        4.762273    0.829462    0.777042
     16          1           0        3.872146   -1.685697   -0.718143
     17          1           0        3.813678   -1.471327    1.027774
     18          1           0        6.315950   -1.202636    1.083621
     19          1           0        6.374750   -1.418225   -0.672216
     20          1           0        5.862787   -2.758563    0.367349
     21          6           0       -5.034889    0.661070    0.025555
     22          6           0       -4.835950   -0.561406   -0.624442
     23          6           0       -3.586028   -1.186929   -0.593346
     24          6           0       -2.552560   -0.559076    0.100221
     25          6           0       -2.719438    0.658786    0.757683
     26          6           0       -3.977863    1.266197    0.713330
     27          1           0       -6.009161    1.139956   -0.003751
     28          1           0       -5.655031   -1.033664   -1.159348
     29          1           0       -3.404370   -2.133436   -1.087857
     30          1           0       -1.883763    1.105240    1.282796
     31          1           0       -4.129464    2.215576    1.219038
     32          7           0       -1.224824   -1.211702    0.140160
     33          8           0       -0.330526   -0.638036    0.758038
     34          8           0       -1.103583   -2.284539   -0.447172
 ---------------------------------------------------------------------

 SCF Done:  E(RHF) =  -669.535846057     A.U. after   15 cycles
 E2 =    -0.2091752706D+01 EUMP2 =    -0.67162759876291D+03

 The electronic state is 1-A.
 Alpha  occ. eigenvalues --  -20.60899 -20.60879 -15.85924 -11.31250 -11.27817
 Alpha  occ. eigenvalues --  -11.27813 -11.27555 -11.26826 -11.26814 -11.20754
 Alpha  occ. eigenvalues --  -11.20492 -11.20424 -11.20281 -11.20153 -11.19967
 Alpha  occ. eigenvalues --   -1.59951  -1.39508  -1.19420  -1.08824  -1.07327
 Alpha  occ. eigenvalues --   -1.04817  -1.02587  -0.95667  -0.95045  -0.86221
 Alpha  occ. eigenvalues --   -0.86075  -0.82505  -0.78633  -0.77568  -0.77049
 Alpha  occ. eigenvalues --   -0.72148  -0.71263  -0.70531  -0.65078  -0.64822
 Alpha  occ. eigenvalues --   -0.63966  -0.62168  -0.60003  -0.58412  -0.56638
 Alpha  occ. eigenvalues --   -0.55324  -0.54347  -0.53149  -0.52913  -0.51808
 Alpha  occ. eigenvalues --   -0.51477  -0.49048  -0.48906  -0.48870  -0.46962
 Alpha  occ. eigenvalues --   -0.45649  -0.45080  -0.44561  -0.44367  -0.42782
 Alpha  occ. eigenvalues --   -0.37399  -0.36417
 Alpha virt. eigenvalues --    0.04963   0.11223   0.16455   0.21016   0.23748
 Alpha virt. eigenvalues --    0.24713   0.26421   0.27574   0.27955   0.28956
 Alpha virt. eigenvalues --    0.29136   0.30664   0.31582   0.32469   0.32733

 Mulliken charges:
               1
     1  C   -0.299957
     2  C   -0.299396
     3  C   -0.473534
     4  H    0.151786
     5  H    0.169469
     6  H    0.148027
     7  H    0.147965
     8  H    0.153408
     9  H    0.153678
    10  H    0.153783
    11  C   -0.298769
    12  C   -0.298674
    13  C   -0.475350
    14  H    0.144183
    15  H    0.144768
    16  H    0.155294
    17  H    0.157616
    18  H    0.152052
    19  H    0.151991
    20  H    0.158831
    21  C   -0.170568
    22  C   -0.218651
    23  C   -0.170652
    24  C    0.157336
    25  C   -0.170676
    26  C   -0.218818
    27  H    0.225846
    28  H    0.223612
    29  H    0.275631
    30  H    0.276867
    31  H    0.223914
    32  N    0.491741
    33  O   -0.462994
    34  O   -0.459756
 Sum of Mulliken charges =  -0.00000

 Dipole moment (field-independent basis, Debye):
    X=             -4.9193    Y=              2.1153    Z=             -0.0745  Tot=              5.3554
 Quadrupole moment (field-independent basis, Debye-Ang):
   XX=            -72.9793   YY=            -95.7360   ZZ=            -92.9093
   XY=             -1.6851   XZ=              1.0968   YZ=              3.0903

 Normal termination of Gaussian 16 at Thu May  6 04:16:52 2021.
