 Gaussian 16, Revision A.03,
 Gaussian 16:  EM64L-G16RevA.03 25-Dec-2016

 -------------
 #p 6-31g* mp2
 -------------

 ------------------------------------------------------
 Input file generated by CHIRIPA (05-May-2021 14:55:18)
 ------------------------------------------------------
 Symbolic Z-matrix:
 Charge =  0 Multiplicity = 1

                         Standard orientation:
 ---------------------------------------------------------------------
 Center     Atomic      Atomic             Coordinates (Angstroms)
 Number     Number       Type             X           Y           Z
 ---------------------------------------------------------------------
      1          6           0        2.728808    2.594743    0.232314
      2          6           0        2.006564    1.657582    0.978379
      3          6           0        2.320103    0.297164    0.904194
      4          6           0        3.366712   -0.092828    0.070044
      5          6           0        4.104859    0.816772   -0.685639
      6          6           0        3.773809    2.172092   -0.595854
      7          1           0        2.478442    3.649568    0.296001
      8          1           0        1.194499    1.982941    1.622380
      9          1           0        1.777340   -0.449634    1.470867
     10          1           0        4.909055    0.462123   -1.318815
     11          1           0        4.336429    2.897673   -1.176402
     12          7           0        3.707911   -1.530343   -0.016749
     13          8           0        4.634460   -1.848332   -0.759062
     14          8           0        3.042334   -2.311859    0.659178
     15          6           0       -4.916687   -0.262720    0.232459
     16          6           0       -6.072827    0.322232   -0.579425
     17          6           0       -7.425225    0.157930    0.114706
     18          1           0       -5.108790   -1.328602    0.416684
     19          1           0       -4.886057    0.224104    1.217071
     20          1           0       -6.100410   -0.164572   -1.562724
     21          1           0       -5.877856    1.386799   -0.761901
     22          1           0       -7.422034    0.659017    1.088104
     23          1           0       -7.645853   -0.901170    0.282732
     24          1           0       -8.237549    0.583018   -0.483032
     25          6           0       -3.558138   -0.106155   -0.448393
     26          6           0       -2.401998   -0.691108    0.363491
     27          6           0       -1.049600   -0.526806   -0.330640
     28          1           0       -3.588767   -0.592979   -1.433004
     29          1           0       -3.366034    0.959725   -0.632617
     30          1           0       -2.596970   -1.755675    0.545969
     31          1           0       -2.374415   -0.204304    1.346791
     32          1           0       -0.828973    0.532294   -0.498665
     33          1           0       -1.052792   -1.027892   -1.304037
     34          1           0       -0.237276   -0.951893    0.267099
 ---------------------------------------------------------------------

 SCF Done:  E(RHF) =  -669.534686731     A.U. after   15 cycles
 E2 =    -0.2092031498D+01 EUMP2 =    -0.67162671822894D+03

 The electronic state is 1-A.
 Alpha  occ. eigenvalues --  -20.60765 -20.60759 -15.85814 -11.31157 -11.27739
 Alpha  occ. eigenvalues --  -11.27736 -11.27490 -11.26746 -11.26737 -11.21820
 Alpha  occ. eigenvalues --  -11.21761 -11.21601 -11.21533 -11.21246 -11.21206
 Alpha  occ. eigenvalues --   -1.59836  -1.39391  -1.19344  -1.08740  -1.08621
 Alpha  occ. eigenvalues --   -1.04754  -1.03715  -0.96171  -0.95575  -0.87189
 Alpha  occ. eigenvalues --   -0.86148  -0.82411  -0.79782  -0.78432  -0.77459
 Alpha  occ. eigenvalues --   -0.72035  -0.71156  -0.70476  -0.65256  -0.64997
 Alpha  occ. eigenvalues --   -0.64769  -0.62155  -0.61111  -0.59524  -0.57775
 Alpha  occ. eigenvalues --   -0.55463  -0.55258  -0.53297  -0.52944  -0.52610
 Alpha  occ. eigenvalues --   -0.52483  -0.50093  -0.48792  -0.48790  -0.48090
 Alpha  occ. eigenvalues --   -0.46814  -0.45971  -0.45902  -0.44804  -0.43967
 Alpha  occ. eigenvalues --   -0.37323  -0.36280
 Alpha virt. eigenvalues --    0.05067   0.11223   0.16536   0.20816   0.22780
 Alpha virt. eigenvalues --    0.24041   0.26416   0.26634   0.27326   0.27823
 Alpha virt. eigenvalues --    0.28854   0.29838   0.31303   0.31585   0.31791

 Mulliken charges:
               1
     1  C   -0.171390
     2  C   -0.217920
     3  C   -0.166689
     4  C    0.157870
     5  C   -0.170950
     6  C   -0.218564
     7  H    0.225376
     8  H    0.223417
     9  H    0.275667
    10  H    0.275501
    11  H    0.223253
    12  N    0.488648
    13  O   -0.460220
    14  O   -0.461675
    15  C   -0.298290
    16  C   -0.299674
    17  C   -0.475776
    18  H    0.151333
    19  H    0.148255
    20  H    0.152829
    21  H    0.150862
    22  H    0.154722
    23  H    0.156098
    24  H    0.160545
    25  C   -0.298245
    26  C   -0.299843
    27  C   -0.479308
    28  H    0.151545
    29  H    0.147089
    30  H    0.156275
    31  H    0.146370
    32  H    0.151614
    33  H    0.160115
    34  H    0.161158
 Sum of Mulliken charges =  -0.00000

 Dipole moment (field-independent basis, Debye):
    X=             -1.2189    Y=              5.0197    Z=              0.2595  Tot=              5.1721
 Quadrupole moment (field-independent basis, Debye-Ang):
   XX=           -101.5993   YY=            -95.2252   ZZ=            -93.0628
   XY=             18.4677   XZ=             -1.2959   YZ=              0.0219

 Normal termination of Gaussian 16 at Thu May  6 19:02:23 2021.
