 Gaussian 16, Revision A.03,
 Gaussian 16:  EM64L-G16RevA.03 25-Dec-2016

 -------------
 #p 6-31g* mp2
 -------------

 ------------------------------------------------------
 Input file generated by CHIRIPA (05-May-2021 14:53:12)
 ------------------------------------------------------
 Symbolic Z-matrix:
 Charge =  0 Multiplicity = 1

                         Standard orientation:
 ---------------------------------------------------------------------
 Center     Atomic      Atomic             Coordinates (Angstroms)
 Number     Number       Type             X           Y           Z
 ---------------------------------------------------------------------
      1          6           0        3.199982    0.960197    0.327360
      2          6           0        2.715301    2.060657   -0.617128
      3          6           0        2.452936    3.384013    0.102378
      4          1           0        2.451637    0.807740    1.117095
      5          1           0        4.119048    1.294892    0.828052
      6          1           0        1.798185    1.723434   -1.116923
      7          1           0        3.464799    2.210380   -1.404816
      8          1           0        3.365296    3.746557    0.586901
      9          1           0        1.689213    3.256845    0.876429
     10          1           0        2.107334    4.156616   -0.591527
     11          6           0        3.466585   -0.368816   -0.377179
     12          6           0        3.951266   -1.469276    0.567309
     13          6           0        4.213631   -2.792632   -0.152197
     14          1           0        2.547520   -0.703511   -0.877871
     15          1           0        4.214931   -0.216359   -1.166914
     16          1           0        3.201768   -1.618999    1.354997
     17          1           0        4.868382   -1.132054    1.067104
     18          1           0        4.977354   -2.665464   -0.926249
     19          1           0        3.301271   -3.155176   -0.636720
     20          1           0        4.559233   -3.565235    0.541708
     21          6           0       -5.116197   -0.004964   -0.046372
     22          6           0       -4.441113    0.040588    1.177845
     23          6           0       -3.049429   -0.083586    1.226272
     24          6           0       -2.361270   -0.252861    0.025825
     25          6           0       -3.005273   -0.302264   -1.209533
     26          6           0       -4.397390   -0.175942   -1.234060
     27          1           0       -6.197459    0.092332   -0.074708
     28          1           0       -4.996758    0.173274    2.101804
     29          1           0       -2.501566   -0.051867    2.160219
     30          1           0       -2.424085   -0.435579   -2.113892
     31          1           0       -4.919024   -0.211690   -2.186250
     32          7           0       -0.887728   -0.385456    0.064441
     33          8           0       -0.304502   -0.533701   -1.007244
     34          8           0       -0.343893   -0.338627    1.165662
 ---------------------------------------------------------------------

 SCF Done:  E(RHF) =  -669.537410111     A.U. after   15 cycles
 E2 =    -0.2092935530D+01 EUMP2 =    -0.67163034564062D+03

 The electronic state is 1-A.
 Alpha  occ. eigenvalues --  -20.61329 -20.61319 -15.86299 -11.31496 -11.28036
 Alpha  occ. eigenvalues --  -11.28032 -11.27751 -11.27012 -11.27002 -11.20000
 Alpha  occ. eigenvalues --  -11.19946 -11.19888 -11.19728 -11.19475 -11.19322
 Alpha  occ. eigenvalues --   -1.60344  -1.39906  -1.19645  -1.09076  -1.06649
 Alpha  occ. eigenvalues --   -1.05020  -1.02000  -0.95937  -0.94450  -0.86427
 Alpha  occ. eigenvalues --   -0.85489  -0.82775  -0.78049  -0.77845  -0.76448
 Alpha  occ. eigenvalues --   -0.72503  -0.71638  -0.70752  -0.65302  -0.65029
 Alpha  occ. eigenvalues --   -0.63247  -0.62367  -0.59394  -0.57849  -0.56082
 Alpha  occ. eigenvalues --   -0.55532  -0.53745  -0.53357  -0.53110  -0.51246
 Alpha  occ. eigenvalues --   -0.50919  -0.49314  -0.49246  -0.48385  -0.46392
 Alpha  occ. eigenvalues --   -0.45469  -0.44926  -0.43979  -0.43722  -0.42159
 Alpha  occ. eigenvalues --   -0.37615  -0.36613
 Alpha virt. eigenvalues --    0.04645   0.11045   0.16161   0.21173   0.24675
 Alpha virt. eigenvalues --    0.25696   0.27122   0.27942   0.28601   0.29216
 Alpha virt. eigenvalues --    0.29585   0.30850   0.32303   0.32758   0.33100

 Mulliken charges:
               1
     1  C   -0.300712
     2  C   -0.303020
     3  C   -0.475149
     4  H    0.166292
     5  H    0.138568
     6  H    0.162111
     7  H    0.144813
     8  H    0.151251
     9  H    0.154014
    10  H    0.153194
    11  C   -0.306959
    12  C   -0.299591
    13  C   -0.475042
    14  H    0.176749
    15  H    0.138319
    16  H    0.158211
    17  H    0.144046
    18  H    0.150481
    19  H    0.156828
    20  H    0.153895
    21  C   -0.170042
    22  C   -0.218614
    23  C   -0.170307
    24  C    0.157900
    25  C   -0.170323
    26  C   -0.218591
    27  H    0.226811
    28  H    0.224592
    29  H    0.276198
    30  H    0.276280
    31  H    0.224608
    32  N    0.489737
    33  O   -0.458210
    34  O   -0.458338
 Sum of Mulliken charges =  -0.00000

 Dipole moment (field-independent basis, Debye):
    X=             -5.8174    Y=              0.3146    Z=             -0.1198  Tot=              5.8271
 Quadrupole moment (field-independent basis, Debye-Ang):
   XX=            -71.7686   YY=            -98.0310   ZZ=            -89.8799
   XY=              0.5225   XZ=              0.0663   YZ=              0.2321

 Normal termination of Gaussian 16 at Wed May  5 23:22:23 2021.
