 Gaussian 16, Revision A.03,
 Gaussian 16:  EM64L-G16RevA.03 25-Dec-2016

 -------------
 #p 6-31g* mp2
 -------------

 ------------------------------------------------------
 Input file generated by CHIRIPA (05-May-2021 14:55:24)
 ------------------------------------------------------
 Symbolic Z-matrix:
 Charge =  0 Multiplicity = 1

                         Standard orientation:
 ---------------------------------------------------------------------
 Center     Atomic      Atomic             Coordinates (Angstroms)
 Number     Number       Type             X           Y           Z
 ---------------------------------------------------------------------
      1          6           0        0.396451   -1.793544    1.180917
      2          6           0        0.728245   -0.518712    1.651275
      3          6           0        1.808041    0.181021    1.104500
      4          6           0        2.537760   -0.426815    0.084042
      5          6           0        2.232036   -1.695541   -0.406016
      6          6           0        1.148080   -2.376862    0.155580
      7          1           0       -0.443976   -2.329962    1.611422
      8          1           0        0.146291   -0.063234    2.447462
      9          1           0        2.086832    1.169207    1.449728
     10          1           0        2.830818   -2.123600   -1.200776
     11          1           0        0.892703   -3.366782   -0.211688
     12          7           0        3.683093    0.304215   -0.502650
     13          8           0        4.310223   -0.253227   -1.400762
     14          8           0        3.931989    1.420796   -0.053278
     15          6           0       -3.136679   -0.008819   -0.483036
     16          6           0       -4.525462   -0.535929   -0.120512
     17          6           0       -4.770484   -1.956224   -0.630922
     18          1           0       -3.015471   -0.033691   -1.574656
     19          1           0       -2.375901   -0.684724   -0.068593
     20          1           0       -5.283370    0.141521   -0.534337
     21          1           0       -4.643448   -0.509618    0.970361
     22          1           0       -4.036288   -2.649571   -0.208043
     23          1           0       -4.679846   -1.994732   -1.721291
     24          1           0       -5.769172   -2.313235   -0.360690
     25          6           0       -2.876749    1.409900    0.020353
     26          6           0       -1.487966    1.937010   -0.342171
     27          6           0       -1.242944    3.357305    0.168240
     28          1           0       -3.637528    2.085806   -0.394090
     29          1           0       -2.997957    1.434773    1.111974
     30          1           0       -1.369980    1.910701   -1.433044
     31          1           0       -0.730058    1.259560    0.071654
     32          1           0       -1.333582    3.395813    1.258608
     33          1           0       -1.977140    4.050653   -0.254640
     34          1           0       -0.244256    3.714317   -0.101992
 ---------------------------------------------------------------------

 SCF Done:  E(RHF) =  -669.534631112     A.U. after   15 cycles
 E2 =    -0.2094017073D+01 EUMP2 =    -0.67162864818436D+03

 The electronic state is 1-A.
 Alpha  occ. eigenvalues --  -20.60850 -20.60845 -15.85905 -11.31316 -11.27872
 Alpha  occ. eigenvalues --  -11.27867 -11.27635 -11.26911 -11.26901 -11.22118
 Alpha  occ. eigenvalues --  -11.21844 -11.21762 -11.21671 -11.21653 -11.21280
 Alpha  occ. eigenvalues --   -1.59924  -1.39476  -1.19501  -1.08908  -1.08812
 Alpha  occ. eigenvalues --   -1.04915  -1.03907  -0.96379  -0.95707  -0.87391
 Alpha  occ. eigenvalues --   -0.86296  -0.82542  -0.79972  -0.78642  -0.77574
 Alpha  occ. eigenvalues --   -0.72122  -0.71247  -0.70596  -0.65524  -0.65148
 Alpha  occ. eigenvalues --   -0.64882  -0.62251  -0.61334  -0.59742  -0.57973
 Alpha  occ. eigenvalues --   -0.55703  -0.55392  -0.53336  -0.53012  -0.52985
 Alpha  occ. eigenvalues --   -0.52789  -0.50340  -0.48885  -0.48874  -0.48285
 Alpha  occ. eigenvalues --   -0.47030  -0.46168  -0.46101  -0.44869  -0.44159
 Alpha  occ. eigenvalues --   -0.37443  -0.36386
 Alpha virt. eigenvalues --    0.04907   0.11083   0.16277   0.20226   0.23070
 Alpha virt. eigenvalues --    0.23504   0.25996   0.26841   0.27248   0.27949
 Alpha virt. eigenvalues --    0.28858   0.30146   0.31337   0.31569   0.32002

 Mulliken charges:
               1
     1  C   -0.168924
     2  C   -0.220678
     3  C   -0.170772
     4  C    0.160654
     5  C   -0.170733
     6  C   -0.218449
     7  H    0.226363
     8  H    0.225389
     9  H    0.277073
    10  H    0.276237
    11  H    0.224485
    12  N    0.488050
    13  O   -0.459914
    14  O   -0.460075
    15  C   -0.300264
    16  C   -0.299868
    17  C   -0.474337
    18  H    0.152256
    19  H    0.145151
    20  H    0.154629
    21  H    0.149317
    22  H    0.148621
    23  H    0.157373
    24  H    0.161902
    25  C   -0.297171
    26  C   -0.310413
    27  C   -0.477223
    28  H    0.151394
    29  H    0.143645
    30  H    0.154040
    31  H    0.160742
    32  H    0.149319
    33  H    0.157004
    34  H    0.165179
 Sum of Mulliken charges =  -0.00000

 Dipole moment (field-independent basis, Debye):
    X=             -3.9198    Y=             -2.5973    Z=              1.9986  Tot=              5.1093
 Quadrupole moment (field-independent basis, Debye-Ang):
   XX=           -115.8336   YY=            -90.7821   ZZ=            -92.2536
   XY=             -6.1004   XZ=              4.7892   YZ=              0.8579

 Normal termination of Gaussian 16 at Wed May  5 22:25:51 2021.
