 Gaussian 16, Revision A.03,
 Gaussian 16:  EM64L-G16RevA.03 25-Dec-2016

 -------------
 #p 6-31g* mp2
 -------------

 ------------------------------------------------------
 Input file generated by CHIRIPA (05-May-2021 14:51:11)
 ------------------------------------------------------
 Symbolic Z-matrix:
 Charge =  0 Multiplicity = 1

                         Standard orientation:
 ---------------------------------------------------------------------
 Center     Atomic      Atomic             Coordinates (Angstroms)
 Number     Number       Type             X           Y           Z
 ---------------------------------------------------------------------
      1          6           0       -3.095858   -0.000084   -0.340814
      2          6           0       -4.481832   -0.612692   -0.136427
      3          6           0       -4.575345   -2.048852   -0.652658
      4          1           0       -2.845538   -0.023849   -1.410263
      5          1           0       -2.348295   -0.623402    0.169106
      6          1           0       -5.226721    0.012354   -0.645419
      7          1           0       -4.728962   -0.587292    0.932636
      8          1           0       -3.854025   -2.691223   -0.137238
      9          1           0       -4.354613   -2.088171   -1.724260
     10          1           0       -5.574521   -2.467333   -0.496510
     11          6           0       -2.986645    1.435413    0.170212
     12          6           0       -1.600672    2.048021   -0.034175
     13          6           0       -1.507158    3.484181    0.482055
     14          1           0       -3.734209    2.058731   -0.339709
     15          1           0       -3.236965    1.459178    1.239660
     16          1           0       -1.353541    2.022620   -1.103239
     17          1           0       -0.855782    1.422975    0.474817
     18          1           0       -1.727891    3.523500    1.553658
     19          1           0       -2.228478    4.126552   -0.033365
     20          1           0       -0.507983    3.902662    0.325908
     21          6           0        2.309857   -0.779876    0.296547
     22          6           0        1.817868   -2.226230    0.359698
     23          6           0        0.352849   -2.334326    0.783760
     24          1           0        2.175939   -0.310420    1.280732
     25          1           0        1.681084   -0.216409   -0.406692
     26          1           0        2.448249   -2.787141    1.061565
     27          1           0        1.953150   -2.692356   -0.624701
     28          1           0       -0.292507   -1.799254    0.079620
     29          1           0        0.205404   -1.894577    1.775467
     30          1           0        0.021938   -3.376858    0.822318
     31          6           0        3.772646   -0.655453   -0.125944
     32          6           0        4.264635    0.790902   -0.189096
     33          6           0        5.729654    0.898997   -0.613158
     34          1           0        4.401419   -1.218919    0.577295
     35          1           0        3.906564   -1.124910   -1.110130
     36          1           0        4.129353    1.257026    0.795303
     37          1           0        3.634254    1.351811   -0.890963
     38          1           0        5.877099    0.459248   -1.604864
     39          1           0        6.375010    0.363926    0.090983
     40          1           0        6.060564    1.941529   -0.651715
 ---------------------------------------------------------------------

 SCF Done:  E(RHF) =  -470.733329155     A.U. after   11 cycles
 E2 =    -0.1583162479D+01 EUMP2 =    -0.47231649163346D+03

 The electronic state is 1-A.
 Alpha  occ. eigenvalues --  -11.21623 -11.21606 -11.21566 -11.21562 -11.21416
 Alpha  occ. eigenvalues --  -11.21358 -11.21357 -11.21291 -11.21089 -11.21075
 Alpha  occ. eigenvalues --  -11.21046 -11.21031  -1.08448  -1.08390  -1.03546
 Alpha  occ. eigenvalues --   -1.03493  -0.96008  -0.95935  -0.87031  -0.86948
 Alpha  occ. eigenvalues --   -0.79625  -0.79553  -0.78323  -0.78142  -0.65105
 Alpha  occ. eigenvalues --   -0.64999  -0.60955  -0.60880  -0.59371  -0.59306
 Alpha  occ. eigenvalues --   -0.57677  -0.57500  -0.55346  -0.55180  -0.52694
 Alpha  occ. eigenvalues --   -0.52646  -0.52512  -0.52290  -0.50009  -0.49828
 Alpha  occ. eigenvalues --   -0.47987  -0.47866  -0.46715  -0.46577  -0.46008
 Alpha  occ. eigenvalues --   -0.45762  -0.45700  -0.45273  -0.43800  -0.43745
 Alpha virt. eigenvalues --    0.21478   0.23028   0.23954   0.24093   0.25676
 Alpha virt. eigenvalues --    0.26538   0.27041   0.27565   0.28045   0.29651
 Alpha virt. eigenvalues --    0.30805   0.31463   0.31630   0.31728   0.31927

 Mulliken charges:
               1
     1  C   -0.307096
     2  C   -0.298847
     3  C   -0.476179
     4  H    0.148265
     5  H    0.159430
     6  H    0.151657
     7  H    0.151852
     8  H    0.155979
     9  H    0.154772
    10  H    0.160086
    11  C   -0.297469
    12  C   -0.302612
    13  C   -0.475593
    14  H    0.149291
    15  H    0.149484
    16  H    0.150963
    17  H    0.155239
    18  H    0.155085
    19  H    0.155043
    20  H    0.160320
    21  C   -0.300282
    22  C   -0.299305
    23  C   -0.482640
    24  H    0.149258
    25  H    0.152061
    26  H    0.151914
    27  H    0.152170
    28  H    0.162373
    29  H    0.154212
    30  H    0.160354
    31  C   -0.298312
    32  C   -0.299696
    33  C   -0.475717
    34  H    0.149552
    35  H    0.149729
    36  H    0.151903
    37  H    0.152106
    38  H    0.155195
    39  H    0.155178
    40  H    0.160278
 Sum of Mulliken charges =  -0.00000

 Dipole moment (field-independent basis, Debye):
    X=              0.0195    Y=             -0.0153    Z=              0.0037  Tot=              0.0250
 Quadrupole moment (field-independent basis, Debye-Ang):
   XX=            -85.8724   YY=            -85.8516   ZZ=            -83.1674
   XY=             -0.5681   XZ=              0.7199   YZ=             -0.6194

 Normal termination of Gaussian 16 at Wed May  5 16:44:13 2021.
