 Gaussian 16, Revision A.03,
 Gaussian 16:  EM64L-G16RevA.03 25-Dec-2016

 -------------
 #p 6-31g* mp2
 -------------

 ------------------------------------------------------
 Input file generated by CHIRIPA (05-May-2021 14:53:16)
 ------------------------------------------------------
 Symbolic Z-matrix:
 Charge =  0 Multiplicity = 1

                         Standard orientation:
 ---------------------------------------------------------------------
 Center     Atomic      Atomic             Coordinates (Angstroms)
 Number     Number       Type             X           Y           Z
 ---------------------------------------------------------------------
      1          6           0        4.824355    0.168038   -0.037406
      2          6           0        4.972508   -1.290279   -0.472546
      3          6           0        6.373389   -1.845227   -0.213008
      4          1           0        5.566731    0.779648   -0.568214
      5          1           0        5.059666    0.249780    1.032800
      6          1           0        4.735645   -1.369474   -1.541303
      7          1           0        4.229566   -1.898458    0.059216
      8          1           0        6.616051   -1.795321    0.853400
      9          1           0        7.125005   -1.263331   -0.756213
     10          1           0        6.457101   -2.888975   -0.531506
     11          6           0        3.429377    0.737017   -0.290441
     12          6           0        3.281224    2.195334    0.144699
     13          6           0        1.880343    2.750282   -0.114840
     14          1           0        3.194066    0.655275   -1.360648
     15          1           0        2.687001    0.125407    0.240366
     16          1           0        4.024165    2.803513   -0.387064
     17          1           0        3.518087    2.274529    1.213455
     18          1           0        1.128727    2.168386    0.428365
     19          1           0        1.637681    2.700376   -1.181248
     20          1           0        1.796631    3.794031    0.203658
     21          6           0       -0.987954   -1.199146    0.934578
     22          6           0       -1.302712    0.159502    1.041925
     23          6           0       -2.538706    0.639180    0.598329
     24          6           0       -3.440298   -0.271787    0.050095
     25          6           0       -3.156044   -1.631183   -0.070443
     26          6           0       -1.913993   -2.088585    0.379714
     27          1           0       -0.025452   -1.563119    1.281722
     28          1           0       -0.585485    0.852546    1.472415
     29          1           0       -2.808275    1.685933    0.669448
     30          1           0       -3.891519   -2.297878   -0.504049
     31          1           0       -1.672263   -3.144260    0.295090
     32          7           0       -4.751995    0.224235   -0.422993
     33          8           0       -5.528984   -0.598731   -0.902213
     34          8           0       -4.978277    1.426590   -0.305621
 ---------------------------------------------------------------------

 SCF Done:  E(RHF) =  -669.535369583     A.U. after   15 cycles
 E2 =    -0.2091278310D+01 EUMP2 =    -0.67162664789290D+03

 The electronic state is 1-A.
 Alpha  occ. eigenvalues --  -20.60746 -20.60741 -15.85800 -11.31172 -11.27747
 Alpha  occ. eigenvalues --  -11.27739 -11.27499 -11.26762 -11.26748 -11.22362
 Alpha  occ. eigenvalues --  -11.22266 -11.22193 -11.22052 -11.21901 -11.21623
 Alpha  occ. eigenvalues --   -1.59822  -1.39375  -1.19348  -1.09162  -1.08743
 Alpha  occ. eigenvalues --   -1.04754  -1.04239  -0.96691  -0.95576  -0.87707
 Alpha  occ. eigenvalues --   -0.86154  -0.82409  -0.80303  -0.78972  -0.77454
 Alpha  occ. eigenvalues --   -0.72019  -0.71145  -0.70458  -0.65814  -0.65002
 Alpha  occ. eigenvalues --   -0.64778  -0.62157  -0.61599  -0.60049  -0.58293
 Alpha  occ. eigenvalues --   -0.56014  -0.55247  -0.53367  -0.53204  -0.53056
 Alpha  occ. eigenvalues --   -0.52784  -0.50620  -0.48787  -0.48773  -0.48599
 Alpha  occ. eigenvalues --   -0.47337  -0.46521  -0.46431  -0.44779  -0.44496
 Alpha  occ. eigenvalues --   -0.37325  -0.36344
 Alpha virt. eigenvalues --    0.05077   0.11213   0.16515   0.19379   0.22589
 Alpha virt. eigenvalues --    0.23660   0.25308   0.25750   0.26504   0.28293
 Alpha virt. eigenvalues --    0.29193   0.29966   0.31057   0.31378   0.31764

 Mulliken charges:
               1
     1  C   -0.298935
     2  C   -0.299083
     3  C   -0.476044
     4  H    0.152581
     5  H    0.149603
     6  H    0.153724
     7  H    0.147340
     8  H    0.155512
     9  H    0.157108
    10  H    0.161348
    11  C   -0.296348
    12  C   -0.300713
    13  C   -0.477917
    14  H    0.153139
    15  H    0.139779
    16  H    0.156043
    17  H    0.151575
    18  H    0.145640
    19  H    0.160720
    20  H    0.163755
    21  C   -0.171958
    22  C   -0.219705
    23  C   -0.171791
    24  C    0.158487
    25  C   -0.170759
    26  C   -0.218585
    27  H    0.225744
    28  H    0.227404
    29  H    0.276032
    30  H    0.275609
    31  H    0.223438
    32  N    0.488099
    33  O   -0.460552
    34  O   -0.460289
 Sum of Mulliken charges =  -0.00000

 Dipole moment (field-independent basis, Debye):
    X=              4.7733    Y=             -1.6994    Z=              1.5778  Tot=              5.3068
 Quadrupole moment (field-independent basis, Debye-Ang):
   XX=           -127.0352   YY=            -89.5309   ZZ=            -94.1395
   XY=              6.9211   XZ=             -5.7674   YZ=              0.5950

 Normal termination of Gaussian 16 at Thu May  6 17:12:38 2021.
