 Gaussian 16, Revision A.03,
 Gaussian 16:  EM64L-G16RevA.03 25-Dec-2016

 -------------
 #p 6-31g* mp2
 -------------

 ------------------------------------------------------
 Input file generated by CHIRIPA (05-May-2021 14:55:20)
 ------------------------------------------------------
 Symbolic Z-matrix:
 Charge =  0 Multiplicity = 1

                         Standard orientation:
 ---------------------------------------------------------------------
 Center     Atomic      Atomic             Coordinates (Angstroms)
 Number     Number       Type             X           Y           Z
 ---------------------------------------------------------------------
      1          6           0       -2.402860    1.063916    1.905388
      2          6           0       -2.853368    1.219876    0.590382
      3          6           0       -2.515049    0.284169   -0.391728
      4          6           0       -1.721022   -0.800397   -0.022233
      5          6           0       -1.256702   -0.983464    1.279375
      6          6           0       -1.607368   -0.035318    2.245088
      7          1           0       -2.670470    1.795627    2.661946
      8          1           0       -3.471292    2.072573    0.323695
      9          1           0       -2.850168    0.380485   -1.417319
     10          1           0       -0.642145   -1.843832    1.514969
     11          1           0       -1.256067   -0.158999    3.265547
     12          7           0       -1.356324   -1.797573   -1.053270
     13          8           0       -0.655585   -2.744332   -0.702202
     14          8           0       -1.778117   -1.613517   -2.192941
     15          6           0        1.595531    1.152041   -0.157855
     16          6           0        1.436208    2.292915   -1.163343
     17          6           0        0.061954    2.958993   -1.088790
     18          1           0        0.812835    0.402152   -0.336741
     19          1           0        1.429992    1.540774    0.856481
     20          1           0        1.603361    1.902432   -2.175370
     21          1           0        2.219491    3.040082   -0.982166
     22          1           0       -0.110797    3.375207   -0.091031
     23          1           0       -0.730428    2.231093   -1.291014
     24          1           0       -0.030265    3.771690   -1.816030
     25          6           0        2.964159    0.476250   -0.220242
     26          6           0        3.123481   -0.664625    0.785245
     27          6           0        4.497736   -1.330702    0.710692
     28          1           0        3.129697    0.087516   -1.234579
     29          1           0        3.746855    1.226138   -0.041357
     30          1           0        2.340198   -1.411792    0.604068
     31          1           0        2.956328   -0.274142    1.797273
     32          1           0        5.290118   -0.602803    0.912916
     33          1           0        4.670486   -1.746917   -0.287067
     34          1           0        4.589955   -2.143400    1.437933
 ---------------------------------------------------------------------

 SCF Done:  E(RHF) =  -669.533240809     A.U. after   15 cycles
 E2 =    -0.2096736516D+01 EUMP2 =    -0.67162997732468D+03

 The electronic state is 1-A.
 Alpha  occ. eigenvalues --  -20.60911 -20.60903 -15.85943 -11.31218 -11.27805
 Alpha  occ. eigenvalues --  -11.27797 -11.27559 -11.26833 -11.26821 -11.21528
 Alpha  occ. eigenvalues --  -11.21443 -11.21239 -11.21171 -11.21077 -11.20866
 Alpha  occ. eigenvalues --   -1.59979  -1.39532  -1.19449  -1.08845  -1.08303
 Alpha  occ. eigenvalues --   -1.04845  -1.03422  -0.95883  -0.95684  -0.86908
 Alpha  occ. eigenvalues --   -0.86236  -0.82516  -0.79510  -0.78154  -0.77564
 Alpha  occ. eigenvalues --   -0.72164  -0.71318  -0.70549  -0.65106  -0.64931
 Alpha  occ. eigenvalues --   -0.64826  -0.62190  -0.60831  -0.59268  -0.57518
 Alpha  occ. eigenvalues --   -0.55335  -0.55189  -0.53332  -0.52921  -0.52574
 Alpha  occ. eigenvalues --   -0.52339  -0.49847  -0.48926  -0.48920  -0.47766
 Alpha  occ. eigenvalues --   -0.46526  -0.45618  -0.45566  -0.44899  -0.43669
 Alpha  occ. eigenvalues --   -0.37331  -0.36306
 Alpha virt. eigenvalues --    0.04897   0.11074   0.16385   0.21095   0.22986
 Alpha virt. eigenvalues --    0.24255   0.26151   0.26759   0.27301   0.28328
 Alpha virt. eigenvalues --    0.28612   0.30623   0.31151   0.31702   0.32094

 Mulliken charges:
               1
     1  C   -0.171681
     2  C   -0.210665
     3  C   -0.177830
     4  C    0.157522
     5  C   -0.170707
     6  C   -0.214942
     7  H    0.225921
     8  H    0.224726
     9  H    0.276104
    10  H    0.276167
    11  H    0.223915
    12  N    0.490635
    13  O   -0.461167
    14  O   -0.460268
    15  C   -0.300287
    16  C   -0.299888
    17  C   -0.476936
    18  H    0.153121
    19  H    0.144698
    20  H    0.155641
    21  H    0.150571
    22  H    0.149434
    23  H    0.156767
    24  H    0.158071
    25  C   -0.297654
    26  C   -0.303783
    27  C   -0.475234
    28  H    0.154089
    29  H    0.147659
    30  H    0.159161
    31  H    0.145069
    32  H    0.153348
    33  H    0.159142
    34  H    0.159282
 Sum of Mulliken charges =  -0.00000

 Dipole moment (field-independent basis, Debye):
    X=             -1.3787    Y=              3.4075    Z=              3.6159  Tot=              5.1562
 Quadrupole moment (field-independent basis, Debye-Ang):
   XX=            -90.3053   YY=            -99.8671   ZZ=            -92.4351
   XY=             -6.1448   XZ=             -4.4266   YZ=             -4.3798

 Normal termination of Gaussian 16 at Thu May  6 19:07:25 2021.
