 Gaussian 16, Revision A.03,
 Gaussian 16:  EM64L-G16RevA.03 25-Dec-2016

 -------------
 #p 6-31g* mp2
 -------------

 ------------------------------------------------------
 Input file generated by CHIRIPA (05-May-2021 14:55:19)
 ------------------------------------------------------
 Symbolic Z-matrix:
 Charge =  0 Multiplicity = 1

                         Standard orientation:
 ---------------------------------------------------------------------
 Center     Atomic      Atomic             Coordinates (Angstroms)
 Number     Number       Type             X           Y           Z
 ---------------------------------------------------------------------
      1          6           0       -2.138311    2.168972   -0.603980
      2          6           0       -3.520911    2.008158   -0.742102
      3          6           0       -4.127086    0.785006   -0.440443
      4          6           0       -3.316818   -0.260861   -0.001219
      5          6           0       -1.936675   -0.131767    0.146537
      6          6           0       -1.351993    1.100381   -0.160882
      7          1           0       -1.675768    3.122640   -0.840553
      8          1           0       -4.134059    2.836302   -1.086010
      9          1           0       -5.195133    0.633041   -0.538426
     10          1           0       -1.351616   -0.975621    0.491549
     11          1           0       -0.278005    1.222392   -0.052676
     12          7           0       -3.947172   -1.560519    0.321183
     13          8           0       -3.211241   -2.466462    0.706293
     14          8           0       -5.165238   -1.648638    0.182667
     15          6           0        4.169525    0.819284    0.012484
     16          6           0        3.058598    1.567806    0.749736
     17          6           0        3.186240    3.086442    0.626261
     18          1           0        5.143400    1.140097    0.406934
     19          1           0        4.152702    1.104526   -1.048529
     20          1           0        3.076629    1.280185    1.808776
     21          1           0        2.087247    1.245032    0.353617
     22          1           0        3.146039    3.392274   -0.424192
     23          1           0        4.141042    3.427628    1.039235
     24          1           0        2.381988    3.601689    1.160637
     25          6           0        4.055571   -0.699830    0.126663
     26          6           0        5.166498   -1.448352   -0.610588
     27          6           0        5.038855   -2.966988   -0.487115
     28          1           0        4.072394   -0.985073    1.187676
     29          1           0        3.081695   -1.020644   -0.267787
     30          1           0        6.137849   -1.125578   -0.214470
     31          1           0        5.148467   -1.160733   -1.669629
     32          1           0        4.084053   -3.308174   -0.900089
     33          1           0        5.079057   -3.272820    0.563339
     34          1           0        5.843108   -3.482235   -1.021490
 ---------------------------------------------------------------------

 SCF Done:  E(RHF) =  -669.535530584     A.U. after   15 cycles
 E2 =    -0.2091013549D+01 EUMP2 =    -0.67162654413224D+03

 The electronic state is 1-A.
 Alpha  occ. eigenvalues --  -20.60739 -20.60733 -15.85792 -11.31155 -11.27725
 Alpha  occ. eigenvalues --  -11.27716 -11.27464 -11.26742 -11.26711 -11.22596
 Alpha  occ. eigenvalues --  -11.22090 -11.22012 -11.21973 -11.21927 -11.21341
 Alpha  occ. eigenvalues --   -1.59814  -1.39368  -1.19327  -1.09092  -1.08722
 Alpha  occ. eigenvalues --   -1.04730  -1.04174  -0.96596  -0.95557  -0.87613
 Alpha  occ. eigenvalues --   -0.86130  -0.82392  -0.80270  -0.78875  -0.77437
 Alpha  occ. eigenvalues --   -0.72010  -0.71137  -0.70435  -0.65753  -0.64978
 Alpha  occ. eigenvalues --   -0.64735  -0.62124  -0.61533  -0.59992  -0.58204
 Alpha  occ. eigenvalues --   -0.55873  -0.55232  -0.53306  -0.53060  -0.53021
 Alpha  occ. eigenvalues --   -0.52831  -0.50535  -0.48782  -0.48765  -0.48548
 Alpha  occ. eigenvalues --   -0.47302  -0.46414  -0.46314  -0.44774  -0.44419
 Alpha  occ. eigenvalues --   -0.37309  -0.36333
 Alpha virt. eigenvalues --    0.05097   0.11318   0.16590   0.19357   0.22676
 Alpha virt. eigenvalues --    0.23692   0.24985   0.26464   0.27270   0.28465
 Alpha virt. eigenvalues --    0.28775   0.29977   0.31059   0.31197   0.32129

 Mulliken charges:
               1
     1  C   -0.173689
     2  C   -0.218496
     3  C   -0.171234
     4  C    0.158816
     5  C   -0.174384
     6  C   -0.227631
     7  H    0.226338
     8  H    0.223257
     9  H    0.275467
    10  H    0.275927
    11  H    0.237580
    12  N    0.488111
    13  O   -0.460414
    14  O   -0.460655
    15  C   -0.297816
    16  C   -0.306166
    17  C   -0.476787
    18  H    0.152987
    19  H    0.150198
    20  H    0.156783
    21  H    0.144101
    22  H    0.154839
    23  H    0.160493
    24  H    0.158618
    25  C   -0.298541
    26  C   -0.300222
    27  C   -0.476345
    28  H    0.151590
    29  H    0.147020
    30  H    0.152966
    31  H    0.152379
    32  H    0.156601
    33  H    0.156452
    34  H    0.161860
 Sum of Mulliken charges =  -0.00000

 Dipole moment (field-independent basis, Debye):
    X=              2.4373    Y=              4.5650    Z=             -1.1130  Tot=              5.2933
 Quadrupole moment (field-independent basis, Debye-Ang):
   XX=           -104.3135   YY=            -98.0457   ZZ=            -94.5422
   XY=            -17.7925   XZ=              5.6716   YZ=             -0.2006

 Normal termination of Gaussian 16 at Thu May  6 17:22:48 2021.
