 Gaussian 16, Revision A.03,
 Gaussian 16:  EM64L-G16RevA.03 25-Dec-2016

 -------------
 #p 6-31g* mp2
 -------------

 ------------------------------------------------------
 Input file generated by CHIRIPA (05-May-2021 14:55:24)
 ------------------------------------------------------
 Symbolic Z-matrix:
 Charge =  0 Multiplicity = 1

                         Standard orientation:
 ---------------------------------------------------------------------
 Center     Atomic      Atomic             Coordinates (Angstroms)
 Number     Number       Type             X           Y           Z
 ---------------------------------------------------------------------
      1          6           0        2.400681    2.595432    0.108311
      2          6           0        1.816490    1.759191    1.065360
      3          6           0        2.148846    0.402334    1.120354
      4          6           0        3.073294   -0.087045    0.198836
      5          6           0        3.672495    0.720704   -0.766455
      6          6           0        3.325189    2.074438   -0.802936
      7          1           0        2.136691    3.648259    0.072781
      8          1           0        1.098196    2.161055    1.774306
      9          1           0        1.711725   -0.267484    1.850893
     10          1           0        4.385274    0.291162   -1.459894
     11          1           0        3.780466    2.721523   -1.547281
     12          7           0        3.433059   -1.521836    0.247256
     13          8           0        4.250244   -1.928542   -0.575808
     14          8           0        2.891044   -2.212551    1.107355
     15          6           0       -4.422209    0.110861    0.172514
     16          6           0       -5.811948   -0.362747   -0.254459
     17          6           0       -6.930368    0.250386    0.588749
     18          1           0       -4.265310   -0.140040    1.230519
     19          1           0       -4.377886    1.206463    0.101194
     20          1           0       -5.853194   -1.457235   -0.183676
     21          1           0       -5.965484   -0.110860   -1.311622
     22          1           0       -6.917856    1.342279    0.509928
     23          1           0       -6.804928   -0.011746    1.644283
     24          1           0       -7.915244   -0.101759    0.266458
     25          6           0       -3.293632   -0.493391   -0.661106
     26          6           0       -1.903893   -0.019783   -0.234133
     27          6           0       -0.785474   -0.632916   -1.077342
     28          1           0       -3.337956   -1.588993   -0.589785
     29          1           0       -3.450532   -0.242490   -1.719111
     30          1           0       -1.750358   -0.271670    0.823031
     31          1           0       -1.862647    1.074706   -0.304916
     32          1           0       -0.910914   -0.370784   -2.132876
     33          1           0       -0.797986   -1.724809   -0.998520
     34          1           0        0.199403   -0.280771   -0.755050
 ---------------------------------------------------------------------

 SCF Done:  E(RHF) =  -669.534835643     A.U. after   15 cycles
 E2 =    -0.2092797112D+01 EUMP2 =    -0.67162763275527D+03

 The electronic state is 1-A.
 Alpha  occ. eigenvalues --  -20.60787 -20.60781 -15.85841 -11.31227 -11.27819
 Alpha  occ. eigenvalues --  -11.27796 -11.27566 -11.26833 -11.26820 -11.21775
 Alpha  occ. eigenvalues --  -11.21713 -11.21541 -11.21465 -11.21192 -11.20919
 Alpha  occ. eigenvalues --   -1.59861  -1.39414  -1.19435  -1.08808  -1.08549
 Alpha  occ. eigenvalues --   -1.04838  -1.03619  -0.96054  -0.95636  -0.87069
 Alpha  occ. eigenvalues --   -0.86220  -0.82466  -0.79698  -0.78376  -0.77507
 Alpha  occ. eigenvalues --   -0.72060  -0.71190  -0.70525  -0.65180  -0.65071
 Alpha  occ. eigenvalues --   -0.64818  -0.62172  -0.61016  -0.59493  -0.57734
 Alpha  occ. eigenvalues --   -0.55339  -0.55309  -0.53574  -0.52910  -0.52586
 Alpha  occ. eigenvalues --   -0.52158  -0.49983  -0.48822  -0.48812  -0.47999
 Alpha  occ. eigenvalues --   -0.46737  -0.45912  -0.45841  -0.44813  -0.43879
 Alpha  occ. eigenvalues --   -0.37388  -0.36384
 Alpha virt. eigenvalues --    0.05010   0.11177   0.16480   0.21187   0.22782
 Alpha virt. eigenvalues --    0.24219   0.26385   0.26826   0.27751   0.27947
 Alpha virt. eigenvalues --    0.28372   0.30794   0.31330   0.31856   0.31906

 Mulliken charges:
               1
     1  C   -0.171225
     2  C   -0.214214
     3  C   -0.178376
     4  C    0.162482
     5  C   -0.171412
     6  C   -0.217710
     7  H    0.226015
     8  H    0.224730
     9  H    0.276226
    10  H    0.276100
    11  H    0.223824
    12  N    0.488622
    13  O   -0.460418
    14  O   -0.460388
    15  C   -0.298094
    16  C   -0.299786
    17  C   -0.475724
    18  H    0.149097
    19  H    0.147202
    20  H    0.153373
    21  H    0.152074
    22  H    0.154202
    23  H    0.155214
    24  H    0.160923
    25  C   -0.298206
    26  C   -0.298251
    27  C   -0.483561
    28  H    0.152430
    29  H    0.149957
    30  H    0.147545
    31  H    0.146586
    32  H    0.153612
    33  H    0.160437
    34  H    0.166717
 Sum of Mulliken charges =  -0.00000

 Dipole moment (field-independent basis, Debye):
    X=             -1.1961    Y=              5.0346    Z=             -0.1823  Tot=              5.1779
 Quadrupole moment (field-independent basis, Debye-Ang):
   XX=           -101.9063   YY=            -95.5896   ZZ=            -92.0503
   XY=             16.7413   XZ=             -3.0567   YZ=             -0.2600

 Normal termination of Gaussian 16 at Thu May  6 19:21:11 2021.
