 Gaussian 16, Revision A.03,
 Gaussian 16:  EM64L-G16RevA.03 25-Dec-2016

 -------------
 #p 6-31g* mp2
 -------------

 ------------------------------------------------------
 Input file generated by CHIRIPA (05-May-2021 14:57:26)
 ------------------------------------------------------
 Symbolic Z-matrix:
 Charge =  0 Multiplicity = 1

                         Standard orientation:
 ---------------------------------------------------------------------
 Center     Atomic      Atomic             Coordinates (Angstroms)
 Number     Number       Type             X           Y           Z
 ---------------------------------------------------------------------
      1          6           0       -6.252804    0.360373    0.655624
      2          6           0       -5.973955   -0.133299   -0.623068
      3          6           0       -4.654838   -0.372020   -1.019918
      4          6           0       -3.634410   -0.104744   -0.108556
      5          6           0       -3.880123    0.387442    1.172330
      6          6           0       -5.206842    0.618712    1.547669
      7          1           0       -7.280478    0.542923    0.955551
      8          1           0       -6.784257   -0.334842   -1.317932
      9          1           0       -4.410629   -0.753914   -2.003756
     10          1           0       -3.051235    0.578716    1.842984
     11          1           0       -5.420429    1.002134    2.541355
     12          7           0       -2.233896   -0.353524   -0.517297
     13          8           0       -1.352745   -0.109919    0.304205
     14          8           0       -2.043844   -0.787412   -1.651430
     15          6           0        3.999967   -2.426530    0.423701
     16          6           0        2.772265   -1.830971    0.116162
     17          6           0        2.685816   -0.452093   -0.097777
     18          6           0        3.852206    0.304493    0.004211
     19          6           0        5.090047   -0.259524    0.309046
     20          6           0        5.152907   -1.640292    0.518993
     21          1           0        4.057960   -3.498409    0.588344
     22          1           0        1.875242   -2.439098    0.041505
     23          1           0        1.748299    0.034869   -0.337252
     24          1           0        5.967008    0.372769    0.376601
     25          1           0        6.107710   -2.100097    0.757686
     26          7           0        3.773173    1.765249   -0.220164
     27          8           0        4.815318    2.409782   -0.124515
     28          8           0        2.670578    2.237997   -0.487429
 ---------------------------------------------------------------------

 SCF Done:  E(RHF) =  -868.340252568     A.U. after   16 cycles
 E2 =    -0.2598433335D+01 EUMP2 =    -0.87093868590334D+03

 The electronic state is 1-A.
 Alpha  occ. eigenvalues --  -20.61355 -20.61329 -20.59746 -20.59715 -15.86348
 Alpha  occ. eigenvalues --  -15.84780 -11.31485 -11.29996 -11.28030 -11.28016
 Alpha  occ. eigenvalues --  -11.27737 -11.26997 -11.26982 -11.26680 -11.26393
 Alpha  occ. eigenvalues --  -11.26355 -11.25694 -11.25467  -1.60395  -1.58815
 Alpha  occ. eigenvalues --   -1.39952  -1.38367  -1.19637  -1.18190  -1.09079
 Alpha  occ. eigenvalues --   -1.07639  -1.05005  -1.03545  -0.95951  -0.94477
 Alpha  occ. eigenvalues --   -0.86415  -0.84970  -0.82789  -0.81293  -0.77860
 Alpha  occ. eigenvalues --   -0.76333  -0.72583  -0.71683  -0.71005  -0.70746
 Alpha  occ. eigenvalues --   -0.70138  -0.69311  -0.65294  -0.65009  -0.63841
 Alpha  occ. eigenvalues --   -0.63553  -0.62353  -0.60853  -0.55522  -0.54130
 Alpha  occ. eigenvalues --   -0.53346  -0.53095  -0.51935  -0.51625  -0.49349
 Alpha  occ. eigenvalues --   -0.49328  -0.47771  -0.47743  -0.45399  -0.43804
 Alpha  occ. eigenvalues --   -0.37607  -0.36596  -0.36234  -0.35151
 Alpha virt. eigenvalues --    0.04660   0.06156   0.11062   0.12483   0.16197
 Alpha virt. eigenvalues --    0.17645   0.21212   0.22621   0.27144   0.28062
 Alpha virt. eigenvalues --    0.28603   0.29550   0.30810   0.32110   0.32324

 Mulliken charges:
               1
     1  C   -0.169929
     2  C   -0.218658
     3  C   -0.170335
     4  C    0.157864
     5  C   -0.170037
     6  C   -0.218610
     7  H    0.226883
     8  H    0.224461
     9  H    0.275869
    10  H    0.276900
    11  H    0.224949
    12  N    0.490014
    13  O   -0.465542
    14  O   -0.460177
    15  C   -0.171683
    16  C   -0.221851
    17  C   -0.174869
    18  C    0.156175
    19  C   -0.172259
    20  C   -0.219994
    21  H    0.221232
    22  H    0.229225
    23  H    0.296566
    24  H    0.271495
    25  H    0.218519
    26  N    0.487566
    27  O   -0.466244
    28  O   -0.457534
 Sum of Mulliken charges =  -0.00000

 Dipole moment (field-independent basis, Debye):
    X=             -5.2454    Y=             -4.2414    Z=              2.1920  Tot=              7.0928
 Quadrupole moment (field-independent basis, Debye-Ang):
   XX=            -63.2332   YY=           -109.4338   ZZ=           -101.8875
   XY=            -21.6270   XZ=              0.6070   YZ=              1.7938

 Normal termination of Gaussian 16 at Fri May  7 06:35:01 2021.
