 Gaussian 16, Revision A.03,
 Gaussian 16:  EM64L-G16RevA.03 25-Dec-2016

 -------------
 #p 6-31g* mp2
 -------------

 ------------------------------------------------------
 Input file generated by CHIRIPA (05-May-2021 14:55:24)
 ------------------------------------------------------
 Symbolic Z-matrix:
 Charge =  0 Multiplicity = 1

                         Standard orientation:
 ---------------------------------------------------------------------
 Center     Atomic      Atomic             Coordinates (Angstroms)
 Number     Number       Type             X           Y           Z
 ---------------------------------------------------------------------
      1          6           0       -2.230347    1.030026    2.053537
      2          6           0       -1.371662   -0.053767    2.264666
      3          6           0       -1.101097   -0.956857    1.232305
      4          6           0       -1.709085   -0.744973   -0.004120
      5          6           0       -2.569132    0.325223   -0.245552
      6          6           0       -2.825293    1.215734    0.801310
      7          1           0       -2.434934    1.726682    2.861133
      8          1           0       -0.908211   -0.200474    3.236126
      9          1           0       -0.440318   -1.804375    1.368330
     10          1           0       -3.016281    0.445293   -1.224867
     11          1           0       -3.492577    2.056532    0.634470
     12          7           0       -1.430274   -1.694376   -1.104710
     13          8           0       -1.978442   -1.485607   -2.184786
     14          8           0       -0.668854   -2.629310   -0.866437
     15          6           0        1.658201    1.031656   -0.626790
     16          6           0        1.561832    2.556989   -0.581409
     17          6           0        0.380029    3.098856   -1.386092
     18          1           0        1.745330    0.707073   -1.672733
     19          1           0        0.723356    0.600565   -0.242577
     20          1           0        2.497116    2.985070   -0.964302
     21          1           0        1.475116    2.877991    0.464561
     22          1           0       -0.563754    2.699407   -1.000974
     23          1           0        0.464053    2.807095   -2.437955
     24          1           0        0.330069    4.191209   -1.339964
     25          6           0        2.834691    0.474903    0.172977
     26          6           0        2.931060   -1.050429    0.127597
     27          6           0        4.112863   -1.592295    0.932279
     28          1           0        3.769536    0.905996   -0.211236
     29          1           0        2.747563    0.799488    1.218921
     30          1           0        3.017776   -1.371430   -0.918374
     31          1           0        1.995775   -1.478509    0.510489
     32          1           0        4.028838   -1.300534    1.984142
     33          1           0        5.056647   -1.192847    0.547162
     34          1           0        4.162822   -2.684649    0.886152
 ---------------------------------------------------------------------

 SCF Done:  E(RHF) =  -669.534050072     A.U. after   15 cycles
 E2 =    -0.2096502013D+01 EUMP2 =    -0.67163055208485D+03

 The electronic state is 1-A.
 Alpha  occ. eigenvalues --  -20.60877 -20.60862 -15.85909 -11.31298 -11.27917
 Alpha  occ. eigenvalues --  -11.27894 -11.27680 -11.26961 -11.26945 -11.21543
 Alpha  occ. eigenvalues --  -11.21315 -11.21230 -11.21090 -11.21028 -11.20902
 Alpha  occ. eigenvalues --   -1.59934  -1.39487  -1.19548  -1.08911  -1.08271
 Alpha  occ. eigenvalues --   -1.04952  -1.03388  -0.95855  -0.95733  -0.86876
 Alpha  occ. eigenvalues --   -0.86333  -0.82563  -0.79450  -0.78113  -0.77590
 Alpha  occ. eigenvalues --   -0.72135  -0.71257  -0.70629  -0.65183  -0.65002
 Alpha  occ. eigenvalues --   -0.64882  -0.62300  -0.60802  -0.59215  -0.57463
 Alpha  occ. eigenvalues --   -0.55431  -0.55191  -0.53376  -0.53028  -0.52543
 Alpha  occ. eigenvalues --   -0.52285  -0.49828  -0.48907  -0.48891  -0.47744
 Alpha  occ. eigenvalues --   -0.46469  -0.45619  -0.45532  -0.44787  -0.43630
 Alpha  occ. eigenvalues --   -0.37428  -0.36493
 Alpha virt. eigenvalues --    0.04868   0.10994   0.16341   0.20872   0.23151
 Alpha virt. eigenvalues --    0.24037   0.26173   0.27171   0.27201   0.28292
 Alpha virt. eigenvalues --    0.28642   0.30329   0.31443   0.31746   0.32062

 Mulliken charges:
               1
     1  C   -0.171379
     2  C   -0.215046
     3  C   -0.177281
     4  C    0.159868
     5  C   -0.171427
     6  C   -0.217182
     7  H    0.226796
     8  H    0.224528
     9  H    0.277621
    10  H    0.277114
    11  H    0.225240
    12  N    0.490866
    13  O   -0.459931
    14  O   -0.460396
    15  C   -0.307856
    16  C   -0.296632
    17  C   -0.480304
    18  H    0.153985
    19  H    0.157091
    20  H    0.151880
    21  H    0.147284
    22  H    0.153386
    23  H    0.158247
    24  H    0.157045
    25  C   -0.297320
    26  C   -0.302046
    27  C   -0.476043
    28  H    0.149470
    29  H    0.143217
    30  H    0.160001
    31  H    0.151554
    32  H    0.149582
    33  H    0.155230
    34  H    0.162840
 Sum of Mulliken charges =  -0.00000

 Dipole moment (field-independent basis, Debye):
    X=             -1.1226    Y=              3.1993    Z=              3.8131  Tot=              5.1025
 Quadrupole moment (field-independent basis, Debye-Ang):
   XX=            -90.3576   YY=            -99.5522   ZZ=            -92.8966
   XY=             -6.6837   XZ=             -5.9250   YZ=             -4.2700

 Normal termination of Gaussian 16 at Thu May  6 19:20:14 2021.
