 Gaussian 16, Revision A.03,
 Gaussian 16:  EM64L-G16RevA.03 25-Dec-2016

 -------------
 #p 6-31g* mp2
 -------------

 ------------------------------------------------------
 Input file generated by CHIRIPA (05-May-2021 14:51:12)
 ------------------------------------------------------
 Symbolic Z-matrix:
 Charge =  0 Multiplicity = 1

                         Standard orientation:
 ---------------------------------------------------------------------
 Center     Atomic      Atomic             Coordinates (Angstroms)
 Number     Number       Type             X           Y           Z
 ---------------------------------------------------------------------
      1          6           0       -2.437173    0.669071   -0.464282
      2          6           0       -2.668032    2.160725   -0.220032
      3          6           0       -2.596872    2.987943   -1.503948
      4          1           0       -1.456046    0.529187   -0.938380
      5          1           0       -3.185475    0.301742   -1.180179
      6          1           0       -1.920377    2.524824    0.496249
      7          1           0       -3.648641    2.297058    0.253713
      8          1           0       -3.353314    2.652471   -2.220784
      9          1           0       -1.615230    2.881531   -1.976870
     10          1           0       -2.764743    4.051242   -1.306271
     11          6           0       -2.505245   -0.171085    0.809779
     12          6           0       -2.274385   -1.662738    0.565529
     13          6           0       -2.345546   -2.489957    1.849444
     14          1           0       -1.756943    0.196244    1.525676
     15          1           0       -3.486372   -0.031200    1.283876
     16          1           0       -1.293776   -1.799072    0.091783
     17          1           0       -3.022041   -2.026837   -0.150753
     18          1           0       -3.327188   -2.383544    2.322367
     19          1           0       -1.589103   -2.154485    2.566281
     20          1           0       -2.177674   -3.553255    1.651767
     21          6           0        2.990404    0.307188   -0.105437
     22          6           0        2.735503    1.233967    1.083720
     23          6           0        3.782581    2.341528    1.205095
     24          1           0        3.989119   -0.139695   -0.006396
     25          1           0        3.004526    0.902498   -1.028910
     26          1           0        2.720489    0.636892    2.004529
     27          1           0        1.737203    1.678549    0.981935
     28          1           0        3.793700    2.961698    0.302951
     29          1           0        4.782573    1.914124    1.331356
     30          1           0        3.581147    2.992309    2.061699
     31          6           0        1.952014   -0.805174   -0.240059
     32          6           0        2.206915   -1.731954   -1.429216
     33          6           0        1.159837   -2.839514   -1.550593
     34          1           0        1.937892   -1.400484    0.683413
     35          1           0        0.953299   -0.358292   -0.339100
     36          1           0        3.205214   -2.176534   -1.327432
     37          1           0        2.221929   -1.134879   -2.350026
     38          1           0        0.159844   -2.412111   -1.676852
     39          1           0        1.148717   -3.459685   -0.648448
     40          1           0        1.361271   -3.490295   -2.407195
 ---------------------------------------------------------------------

 SCF Done:  E(RHF) =  -470.732810538     A.U. after   11 cycles
 E2 =    -0.1584477755D+01 EUMP2 =    -0.47231728829290D+03

 The electronic state is 1-A.
 Alpha  occ. eigenvalues --  -11.21677 -11.21662 -11.21635 -11.21484 -11.21483
 Alpha  occ. eigenvalues --  -11.21424 -11.21422 -11.21331 -11.21123 -11.21108
 Alpha  occ. eigenvalues --  -11.21095 -11.21013  -1.08523  -1.08412  -1.03607
 Alpha  occ. eigenvalues --   -1.03502  -0.96049  -0.95964  -0.87064  -0.86982
 Alpha  occ. eigenvalues --   -0.79719  -0.79536  -0.78416  -0.78154  -0.65310
 Alpha  occ. eigenvalues --   -0.64903  -0.61051  -0.60872  -0.59444  -0.59303
 Alpha  occ. eigenvalues --   -0.57714  -0.57528  -0.55391  -0.55206  -0.52730
 Alpha  occ. eigenvalues --   -0.52662  -0.52494  -0.52376  -0.50032  -0.49880
 Alpha  occ. eigenvalues --   -0.48177  -0.47775  -0.46814  -0.46563  -0.46247
 Alpha  occ. eigenvalues --   -0.45798  -0.45728  -0.45117  -0.43850  -0.43767
 Alpha virt. eigenvalues --    0.19685   0.22824   0.23692   0.24484   0.25461
 Alpha virt. eigenvalues --    0.26549   0.26919   0.27613   0.28431   0.30442
 Alpha virt. eigenvalues --    0.31139   0.31529   0.31551   0.31700   0.31839

 Mulliken charges:
               1
     1  C   -0.302970
     2  C   -0.299623
     3  C   -0.475651
     4  H    0.151489
     5  H    0.149858
     6  H    0.151781
     7  H    0.152465
     8  H    0.155380
     9  H    0.154604
    10  H    0.160472
    11  C   -0.297729
    12  C   -0.309998
    13  C   -0.475240
    14  H    0.149988
    15  H    0.149600
    16  H    0.164107
    17  H    0.150811
    18  H    0.154743
    19  H    0.154923
    20  H    0.160091
    21  C   -0.297944
    22  C   -0.299873
    23  C   -0.475747
    24  H    0.150205
    25  H    0.149578
    26  H    0.152056
    27  H    0.151260
    28  H    0.155386
    29  H    0.155445
    30  H    0.160480
    31  C   -0.306415
    32  C   -0.299363
    33  C   -0.480337
    34  H    0.149844
    35  H    0.156127
    36  H    0.152286
    37  H    0.151867
    38  H    0.159807
    39  H    0.155414
    40  H    0.160826
 Sum of Mulliken charges =  -0.00000

 Dipole moment (field-independent basis, Debye):
    X=              0.0332    Y=             -0.0125    Z=             -0.0119  Tot=              0.0374
 Quadrupole moment (field-independent basis, Debye-Ang):
   XX=            -83.8850   YY=            -85.6443   ZZ=            -85.1773
   XY=             -0.8516   XZ=              0.3916   YZ=              0.1237

 Normal termination of Gaussian 16 at Thu May  6 00:44:53 2021.
