 Gaussian 16, Revision A.03,
 Gaussian 16:  EM64L-G16RevA.03 25-Dec-2016

 -------------
 #p 6-31g* mp2
 -------------

 ------------------------------------------------------
 Input file generated by CHIRIPA (05-May-2021 14:53:17)
 ------------------------------------------------------
 Symbolic Z-matrix:
 Charge =  0 Multiplicity = 1

                         Standard orientation:
 ---------------------------------------------------------------------
 Center     Atomic      Atomic             Coordinates (Angstroms)
 Number     Number       Type             X           Y           Z
 ---------------------------------------------------------------------
      1          6           0        3.251785    0.670078    0.001006
      2          6           0        3.221065    1.790651    1.040889
      3          6           0        2.224565    2.895851    0.689724
      4          1           0        3.504526    1.095542   -0.979834
      5          1           0        2.244986    0.240436   -0.094693
      6          1           0        4.227923    2.217127    1.135602
      7          1           0        2.968555    1.362441    2.019404
      8          1           0        1.210311    2.490526    0.614883
      9          1           0        2.476834    3.350068   -0.273940
     10          1           0        2.218930    3.686599    1.446392
     11          6           0        4.243212   -0.442204    0.338095
     12          6           0        4.273932   -1.562777   -0.701788
     13          6           0        5.270431   -2.667976   -0.350623
     14          1           0        5.250011   -0.012561    0.433795
     15          1           0        3.990471   -0.867667    1.318935
     16          1           0        4.526441   -1.134567   -1.680303
     17          1           0        3.267074   -1.989253   -0.796501
     18          1           0        5.018162   -3.122194    0.613041
     19          1           0        6.284685   -2.262652   -0.275782
     20          1           0        5.276066   -3.458724   -1.107291
     21          6           0       -4.723535   -1.679455    0.649534
     22          6           0       -5.067241   -0.396353    0.211314
     23          6           0       -4.080557    0.493228   -0.224171
     24          6           0       -2.754122    0.064744   -0.208061
     25          6           0       -2.380008   -1.207158    0.222743
     26          6           0       -3.383377   -2.080056    0.653842
     27          1           0       -5.496495   -2.364023    0.986125
     28          1           0       -6.107211   -0.082526    0.206875
     29          1           0       -4.318698    1.492284   -0.568548
     30          1           0       -1.334741   -1.491387    0.215651
     31          1           0       -3.113521   -3.075930    0.993632
     32          7           0       -1.700732    0.997674   -0.666769
     33          8           0       -0.539377    0.596025   -0.642855
     34          8           0       -2.056384    2.112887   -1.041531
 ---------------------------------------------------------------------

 SCF Done:  E(RHF) =  -669.536193068     A.U. after   15 cycles
 E2 =    -0.2091844439D+01 EUMP2 =    -0.67162803750660D+03

 The electronic state is 1-A.
 Alpha  occ. eigenvalues --  -20.61077 -20.61069 -15.86098 -11.31378 -11.27939
 Alpha  occ. eigenvalues --  -11.27928 -11.27663 -11.26931 -11.26921 -11.20913
 Alpha  occ. eigenvalues --  -11.20577 -11.20485 -11.20344 -11.19984 -11.19421
 Alpha  occ. eigenvalues --   -1.60128  -1.39687  -1.19540  -1.08952  -1.07381
 Alpha  occ. eigenvalues --   -1.04930  -1.02490  -0.95801  -0.94919  -0.86333
 Alpha  occ. eigenvalues --   -0.85930  -0.82641  -0.78607  -0.77707  -0.77100
 Alpha  occ. eigenvalues --   -0.72318  -0.71439  -0.70649  -0.65200  -0.64932
 Alpha  occ. eigenvalues --   -0.64019  -0.62279  -0.59897  -0.58351  -0.56518
 Alpha  occ. eigenvalues --   -0.55435  -0.54208  -0.53263  -0.53021  -0.51665
 Alpha  occ. eigenvalues --   -0.51318  -0.49175  -0.49075  -0.48765  -0.46880
 Alpha  occ. eigenvalues --   -0.45681  -0.45135  -0.44678  -0.44395  -0.42731
 Alpha  occ. eigenvalues --   -0.37515  -0.36528
 Alpha virt. eigenvalues --    0.04800   0.11127   0.16296   0.21187   0.23779
 Alpha virt. eigenvalues --    0.25429   0.26973   0.27438   0.28023   0.28919
 Alpha virt. eigenvalues --    0.29088   0.30911   0.32254   0.32459   0.32701

 Mulliken charges:
               1
     1  C   -0.305309
     2  C   -0.297974
     3  C   -0.480502
     4  H    0.148328
     5  H    0.170950
     6  H    0.145398
     7  H    0.144968
     8  H    0.175865
     9  H    0.153845
    10  H    0.150416
    11  C   -0.297404
    12  C   -0.297890
    13  C   -0.474908
    14  H    0.146275
    15  H    0.144619
    16  H    0.152417
    17  H    0.149835
    18  H    0.152307
    19  H    0.154562
    20  H    0.157427
    21  C   -0.170421
    22  C   -0.218572
    23  C   -0.170446
    24  C    0.157415
    25  C   -0.170285
    26  C   -0.218490
    27  H    0.226350
    28  H    0.224160
    29  H    0.276175
    30  H    0.275110
    31  H    0.224145
    32  N    0.495363
    33  O   -0.466540
    34  O   -0.457188
 Sum of Mulliken charges =  -0.00000

 Dipole moment (field-independent basis, Debye):
    X=             -4.1624    Y=             -3.2730    Z=              1.4818  Tot=              5.4985
 Quadrupole moment (field-independent basis, Debye-Ang):
   XX=            -73.3157   YY=            -94.1579   ZZ=            -96.1168
   XY=              7.1416   XZ=             -3.9423   YZ=             -0.5152

 Normal termination of Gaussian 16 at Thu May  6 18:57:47 2021.
