 Gaussian 16, Revision A.03,
 Gaussian 16:  EM64L-G16RevA.03 25-Dec-2016

 -------------
 #p 6-31g* mp2
 -------------

 ------------------------------------------------------
 Input file generated by CHIRIPA (05-May-2021 14:57:25)
 ------------------------------------------------------
 Symbolic Z-matrix:
 Charge =  0 Multiplicity = 1

                         Standard orientation:
 ---------------------------------------------------------------------
 Center     Atomic      Atomic             Coordinates (Angstroms)
 Number     Number       Type             X           Y           Z
 ---------------------------------------------------------------------
      1          6           0        3.141716    2.242862    1.183947
      2          6           0        3.693863    2.071190   -0.089703
      3          6           0        3.645436    0.825513   -0.722548
      4          6           0        3.034507   -0.231561   -0.049757
      5          6           0        2.475419   -0.092113    1.219600
      6          6           0        2.535325    1.162567    1.833388
      7          1           0        3.183794    3.214031    1.668154
      8          1           0        4.165420    2.908381   -0.596448
      9          1           0        4.064974    0.664733   -1.708223
     10          1           0        2.011943   -0.945427    1.699666
     11          1           0        2.105691    1.292968    2.822557
     12          7           0        2.977163   -1.555069   -0.709634
     13          8           0        2.433364   -2.470515   -0.095728
     14          8           0        3.477101   -1.651929   -1.828257
     15          6           0       -2.770073   -2.370561    0.720419
     16          6           0       -4.048407   -1.815186    0.602344
     17          6           0       -4.212077   -0.495302    0.171454
     18          6           0       -3.070436    0.243907   -0.134350
     19          6           0       -1.783552   -0.281126   -0.026825
     20          6           0       -1.643711   -1.603112    0.406011
     21          1           0       -2.652185   -3.396695    1.055901
     22          1           0       -4.924949   -2.408846    0.845828
     23          1           0       -5.190031   -0.040378    0.071118
     24          1           0       -0.928695    0.335437   -0.276801
     25          1           0       -0.649714   -2.031805    0.496774
     26          7           0       -3.231092    1.642321   -0.591545
     27          8           0       -2.209328    2.272650   -0.854831
     28          8           0       -4.375738    2.081590   -0.677953
 ---------------------------------------------------------------------

 SCF Done:  E(RHF) =  -868.339901898     A.U. after   16 cycles
 E2 =    -0.2599477443D+01 EUMP2 =    -0.87093937934170D+03

 The electronic state is 1-A.
 Alpha  occ. eigenvalues --  -20.61541 -20.61469 -20.60709 -20.60698 -15.86525
 Alpha  occ. eigenvalues --  -15.85753 -11.31694 -11.30994 -11.28277 -11.28153
 Alpha  occ. eigenvalues --  -11.27833 -11.27549 -11.27505 -11.27205 -11.27178
 Alpha  occ. eigenvalues --  -11.27104 -11.26540 -11.26391  -1.60562  -1.59784
 Alpha  occ. eigenvalues --   -1.40126  -1.39341  -1.19818  -1.19137  -1.09233
 Alpha  occ. eigenvalues --   -1.08547  -1.05182  -1.04512  -0.96110  -0.95410
 Alpha  occ. eigenvalues --   -0.86585  -0.85905  -0.82949  -0.82242  -0.78046
 Alpha  occ. eigenvalues --   -0.77310  -0.72743  -0.71975  -0.71874  -0.71105
 Alpha  occ. eigenvalues --   -0.70891  -0.70233  -0.65461  -0.65164  -0.64779
 Alpha  occ. eigenvalues --   -0.64473  -0.62543  -0.61842  -0.55642  -0.54995
 Alpha  occ. eigenvalues --   -0.53520  -0.53260  -0.52861  -0.52568  -0.49519
 Alpha  occ. eigenvalues --   -0.49473  -0.48737  -0.48718  -0.45558  -0.44775
 Alpha  occ. eigenvalues --   -0.37748  -0.37105  -0.36783  -0.36113
 Alpha virt. eigenvalues --    0.04429   0.05200   0.10822   0.11532   0.15990
 Alpha virt. eigenvalues --    0.16725   0.20669   0.21883   0.25987   0.27387
 Alpha virt. eigenvalues --    0.28314   0.28658   0.30181   0.31358   0.32257

 Mulliken charges:
               1
     1  C   -0.167847
     2  C   -0.216349
     3  C   -0.169721
     4  C    0.156722
     5  C   -0.178339
     6  C   -0.216943
     7  H    0.229998
     8  H    0.227406
     9  H    0.277483
    10  H    0.270869
    11  H    0.226010
    12  N    0.488881
    13  O   -0.469390
    14  O   -0.453669
    15  C   -0.171450
    16  C   -0.218530
    17  C   -0.172044
    18  C    0.158371
    19  C   -0.174799
    20  C   -0.227993
    21  H    0.227919
    22  H    0.222720
    23  H    0.274317
    24  H    0.273647
    25  H    0.238699
    26  N    0.488100
    27  O   -0.462958
    28  O   -0.461109
 Sum of Mulliken charges =  -0.00000

 Dipole moment (field-independent basis, Debye):
    X=              1.0697    Y=             -0.1353    Z=              3.8998  Tot=              4.0461
 Quadrupole moment (field-independent basis, Debye-Ang):
   XX=           -101.0719   YY=           -109.3720   ZZ=           -103.2009
   XY=             32.0562   XZ=             -0.8292   YZ=             -1.2378

 Normal termination of Gaussian 16 at Wed May  5 22:46:47 2021.
