 Gaussian 16, Revision A.03,
 Gaussian 16:  EM64L-G16RevA.03 25-Dec-2016

 -------------
 #p 6-31g* mp2
 -------------

 ------------------------------------------------------
 Input file generated by CHIRIPA (05-May-2021 14:53:16)
 ------------------------------------------------------
 Symbolic Z-matrix:
 Charge =  0 Multiplicity = 1

                         Standard orientation:
 ---------------------------------------------------------------------
 Center     Atomic      Atomic             Coordinates (Angstroms)
 Number     Number       Type             X           Y           Z
 ---------------------------------------------------------------------
      1          6           0        4.016895    0.652672    0.408439
      2          6           0        3.351748    1.816053   -0.327841
      3          6           0        2.566261    2.735850    0.607455
      4          1           0        3.246978    0.071947    0.934682
      5          1           0        4.688865    1.052619    1.180380
      6          1           0        2.682282    1.414045   -1.099087
      7          1           0        4.123315    2.393964   -0.852549
      8          1           0        3.225400    3.164375    1.369362
      9          1           0        1.776179    2.178888    1.121424
     10          1           0        2.099041    3.560585    0.060301
     11          6           0        4.805879   -0.275718   -0.513148
     12          6           0        5.471026   -1.439100    0.223132
     13          6           0        6.256513   -2.358897   -0.712164
     14          1           0        4.133909   -0.675665   -1.285090
     15          1           0        5.575796    0.305007   -1.039392
     16          1           0        4.699459   -2.017011    0.747840
     17          1           0        6.140493   -1.037092    0.994378
     18          1           0        7.046595   -1.801935   -1.226133
     19          1           0        5.597374   -2.787422   -1.474072
     20          1           0        6.723733   -3.183632   -0.165011
     21          6           0       -1.040539    0.372469    0.595581
     22          6           0       -1.760456   -0.532766    1.382213
     23          6           0       -3.094025   -0.828275    1.084194
     24          6           0       -3.678985   -0.197491   -0.012723
     25          6           0       -2.988109    0.708900   -0.815489
     26          6           0       -1.655579    0.989325   -0.498829
     27          1           0       -0.004994    0.596169    0.834330
     28          1           0       -1.285381   -1.013323    2.232751
     29          1           0       -3.674650   -1.525122    1.676389
     30          1           0       -3.488798    1.172159   -1.656986
     31          1           0       -1.098923    1.692758   -1.111498
     32          7           0       -5.090225   -0.502350   -0.338088
     33          8           0       -5.582687    0.066695   -1.309844
     34          8           0       -5.677172   -1.304570    0.384804
 ---------------------------------------------------------------------

 SCF Done:  E(RHF) =  -669.535457989     A.U. after   15 cycles
 E2 =    -0.2091083486D+01 EUMP2 =    -0.67162654147460D+03

 The electronic state is 1-A.
 Alpha  occ. eigenvalues --  -20.60747 -20.60742 -15.85801 -11.31167 -11.27736
 Alpha  occ. eigenvalues --  -11.27731 -11.27459 -11.26752 -11.26739 -11.22693
 Alpha  occ. eigenvalues --  -11.22372 -11.22331 -11.22251 -11.22134 -11.21592
 Alpha  occ. eigenvalues --   -1.59823  -1.39376  -1.19338  -1.09321  -1.08732
 Alpha  occ. eigenvalues --   -1.04742  -1.04415  -0.96866  -0.95569  -0.87878
 Alpha  occ. eigenvalues --   -0.86137  -0.82403  -0.80482  -0.79094  -0.77448
 Alpha  occ. eigenvalues --   -0.72019  -0.71146  -0.70478  -0.65960  -0.64990
 Alpha  occ. eigenvalues --   -0.64745  -0.62093  -0.61821  -0.60248  -0.58460
 Alpha  occ. eigenvalues --   -0.56250  -0.55181  -0.53548  -0.53268  -0.53069
 Alpha  occ. eigenvalues --   -0.52832  -0.50807  -0.48805  -0.48774  -0.48758
 Alpha  occ. eigenvalues --   -0.47526  -0.46641  -0.46546  -0.44782  -0.44652
 Alpha  occ. eigenvalues --   -0.37316  -0.36347
 Alpha virt. eigenvalues --    0.05079   0.11304   0.16549   0.18426   0.22648
 Alpha virt. eigenvalues --    0.23833   0.25171   0.26040   0.26808   0.27642
 Alpha virt. eigenvalues --    0.29070   0.29999   0.30892   0.31287   0.31980

 Mulliken charges:
               1
     1  C   -0.297856
     2  C   -0.301712
     3  C   -0.479596
     4  H    0.143128
     5  H    0.152943
     6  H    0.148879
     7  H    0.157611
     8  H    0.162195
     9  H    0.146212
    10  H    0.162885
    11  C   -0.298927
    12  C   -0.300054
    13  C   -0.476240
    14  H    0.150306
    15  H    0.152103
    16  H    0.151176
    17  H    0.153079
    18  H    0.156369
    19  H    0.156152
    20  H    0.162082
    21  C   -0.176759
    22  C   -0.220136
    23  C   -0.170705
    24  C    0.158390
    25  C   -0.170848
    26  C   -0.221285
    27  H    0.234795
    28  H    0.223675
    29  H    0.275486
    30  H    0.275550
    31  H    0.224044
    32  N    0.488011
    33  O   -0.460476
    34  O   -0.460475
 Sum of Mulliken charges =  -0.00000

 Dipole moment (field-independent basis, Debye):
    X=              5.2237    Y=              1.1035    Z=              1.1140  Tot=              5.4540
 Quadrupole moment (field-independent basis, Debye-Ang):
   XX=           -130.5923   YY=            -93.6562   ZZ=            -92.3845
   XY=             -3.6910   XZ=             -4.1067   YZ=             -3.4324

 Normal termination of Gaussian 16 at Thu May  6 17:11:38 2021.
