 Gaussian 16, Revision A.03,
 Gaussian 16:  EM64L-G16RevA.03 25-Dec-2016

 -------------
 #p 6-31g* mp2
 -------------

 ------------------------------------------------------
 Input file generated by CHIRIPA (05-May-2021 14:57:25)
 ------------------------------------------------------
 Symbolic Z-matrix:
 Charge =  0 Multiplicity = 1

                         Standard orientation:
 ---------------------------------------------------------------------
 Center     Atomic      Atomic             Coordinates (Angstroms)
 Number     Number       Type             X           Y           Z
 ---------------------------------------------------------------------
      1          6           0       -1.688299    1.616348   -0.762887
      2          6           0       -3.006593    2.041742   -0.956954
      3          6           0       -4.078217    1.212865   -0.611800
      4          6           0       -3.793910   -0.040779   -0.072506
      5          6           0       -2.491422   -0.493108    0.132950
      6          6           0       -1.435367    0.352508   -0.219512
      7          1           0       -0.861883    2.266741   -1.033849
      8          1           0       -3.206011    3.022743   -1.378754
      9          1           0       -5.108467    1.517045   -0.751363
     10          1           0       -2.324115   -1.476429    0.555451
     11          1           0       -0.412577    0.019505   -0.067677
     12          7           0       -4.920149   -0.927135    0.296761
     13          8           0       -4.643094   -2.027028    0.770165
     14          8           0       -6.058625   -0.505183    0.105797
     15          6           0        3.212994    2.278010    0.861019
     16          6           0        2.277062    1.286456    1.173061
     17          6           0        2.485729   -0.037376    0.774972
     18          6           0        3.646509   -0.335713    0.063019
     19          6           0        4.597658    0.629832   -0.263056
     20          6           0        4.368269    1.947117    0.145218
     21          1           0        3.042847    3.303852    1.174220
     22          1           0        1.378957    1.540533    1.728849
     23          1           0        1.777624   -0.824738    1.003151
     24          1           0        5.483431    0.346012   -0.818279
     25          1           0        5.096852    2.715103   -0.098522
     26          7           0        3.878384   -1.733730   -0.363811
     27          8           0        4.909054   -1.970779   -0.990041
     28          8           0        3.025068   -2.565974   -0.064048
 ---------------------------------------------------------------------

 SCF Done:  E(RHF) =  -868.337016051     A.U. after   16 cycles
 E2 =    -0.2600737219D+01 EUMP2 =    -0.87093775326926D+03

 The electronic state is 1-A.
 Alpha  occ. eigenvalues --  -20.61515 -20.61505 -20.60938 -20.60930 -15.86574
 Alpha  occ. eigenvalues --  -15.85994 -11.32132 -11.31458 -11.28775 -11.28651
 Alpha  occ. eigenvalues --  -11.28436 -11.28047 -11.28040 -11.27843 -11.27789
 Alpha  occ. eigenvalues --  -11.27694 -11.27092 -11.27081  -1.60585  -1.60011
 Alpha  occ. eigenvalues --   -1.40134  -1.39561  -1.20312  -1.19652  -1.09655
 Alpha  occ. eigenvalues --   -1.09035  -1.05752  -1.05070  -0.96466  -0.95847
 Alpha  occ. eigenvalues --   -0.87116  -0.86474  -0.83300  -0.82677  -0.78337
 Alpha  occ. eigenvalues --   -0.77695  -0.72783  -0.72210  -0.71914  -0.71401
 Alpha  occ. eigenvalues --   -0.71336  -0.70765  -0.65968  -0.65722  -0.65303
 Alpha  occ. eigenvalues --   -0.65116  -0.63117  -0.62351  -0.56197  -0.55583
 Alpha  occ. eigenvalues --   -0.54083  -0.53827  -0.53391  -0.53121  -0.49556
 Alpha  occ. eigenvalues --   -0.49532  -0.48978  -0.48958  -0.45498  -0.44944
 Alpha  occ. eigenvalues --   -0.38278  -0.37664  -0.37344  -0.36675
 Alpha virt. eigenvalues --    0.04157   0.04836   0.10202   0.10934   0.15531
 Alpha virt. eigenvalues --    0.16287   0.19560   0.21763   0.25141   0.26800
 Alpha virt. eigenvalues --    0.28021   0.28764   0.29866   0.30668   0.32192

 Mulliken charges:
               1
     1  C   -0.174631
     2  C   -0.218387
     3  C   -0.170445
     4  C    0.159017
     5  C   -0.171636
     6  C   -0.225593
     7  H    0.224683
     8  H    0.223479
     9  H    0.276605
    10  H    0.278698
    11  H    0.224846
    12  N    0.487976
    13  O   -0.458423
    14  O   -0.460009
    15  C   -0.172420
    16  C   -0.223038
    17  C   -0.178627
    18  C    0.160124
    19  C   -0.170131
    20  C   -0.217485
    21  H    0.227965
    22  H    0.226626
    23  H    0.273175
    24  H    0.278939
    25  H    0.226919
    26  N    0.488041
    27  O   -0.456764
    28  O   -0.459504
 Sum of Mulliken charges =  -0.00000

 Dipole moment (field-independent basis, Debye):
    X=              3.3494    Y=              8.0371    Z=              0.1648  Tot=              8.7086
 Quadrupole moment (field-independent basis, Debye-Ang):
   XX=           -133.8894   YY=           -106.2222   ZZ=           -104.4846
   XY=              5.3194   XZ=              9.1200   YZ=             -2.2372

 Normal termination of Gaussian 16 at Fri May  7 01:55:51 2021.
