 Gaussian 16, Revision A.03,
 Gaussian 16:  EM64L-G16RevA.03 25-Dec-2016

 -------------
 #p 6-31g* mp2
 -------------

 ------------------------------------------------------
 Input file generated by CHIRIPA (05-May-2021 14:53:12)
 ------------------------------------------------------
 Symbolic Z-matrix:
 Charge =  0 Multiplicity = 1

                         Standard orientation:
 ---------------------------------------------------------------------
 Center     Atomic      Atomic             Coordinates (Angstroms)
 Number     Number       Type             X           Y           Z
 ---------------------------------------------------------------------
      1          6           0        4.393202    0.470231   -0.061638
      2          6           0        4.823873   -0.996174   -0.108168
      3          6           0        6.281486   -1.170929   -0.535509
      4          1           0        4.543030    0.921383   -1.052071
      5          1           0        5.047657    1.015505    0.632451
      6          1           0        4.167925   -1.538809   -0.800912
      7          1           0        4.672822   -1.443939    0.882441
      8          1           0        6.951321   -0.654707    0.159786
      9          1           0        6.443555   -0.750116   -1.533132
     10          1           0        6.568245   -2.226830   -0.562010
     11          6           0        2.938496    0.661184    0.363918
     12          6           0        2.507825    2.127588    0.410448
     13          6           0        1.050212    2.302344    0.837789
     14          1           0        2.284041    0.115910   -0.330171
     15          1           0        2.788668    0.210032    1.354351
     16          1           0        2.658876    2.575353   -0.580161
     17          1           0        3.163773    2.670224    1.103192
     18          1           0        0.888143    1.881531    1.835412
     19          1           0        0.380377    1.786121    0.142494
     20          1           0        0.763453    3.358245    0.864290
     21          6           0       -0.722452   -1.766333    0.043068
     22          6           0       -0.771113   -0.606365   -0.737078
     23          6           0       -1.952276    0.135304   -0.833655
     24          6           0       -3.070977   -0.313923   -0.133657
     25          6           0       -3.054032   -1.465472    0.651797
     26          6           0       -1.862058   -2.191434    0.733798
     27          1           0        0.199303   -2.336378    0.112429
     28          1           0        0.112374   -0.273850   -1.274600
     29          1           0       -2.017776    1.036979   -1.430405
     30          1           0       -3.951028   -1.771906    1.176120
     31          1           0       -1.827185   -3.091895    1.340426
     32          7           0       -4.327144    0.462935   -0.228183
     33          8           0       -5.298963    0.046029    0.398230
     34          8           0       -4.316122    1.474032   -0.926896
 ---------------------------------------------------------------------

 SCF Done:  E(RHF) =  -669.533805347     A.U. after   15 cycles
 E2 =    -0.2093569761D+01 EUMP2 =    -0.67162737510847D+03

 The electronic state is 1-A.
 Alpha  occ. eigenvalues --  -20.60752 -20.60747 -15.85806 -11.31185 -11.27747
 Alpha  occ. eigenvalues --  -11.27743 -11.27474 -11.26769 -11.26745 -11.22390
 Alpha  occ. eigenvalues --  -11.22310 -11.22223 -11.22120 -11.21700 -11.21476
 Alpha  occ. eigenvalues --   -1.59827  -1.39380  -1.19361  -1.09202  -1.08745
 Alpha  occ. eigenvalues --   -1.04789  -1.04192  -0.96637  -0.95579  -0.87649
 Alpha  occ. eigenvalues --   -0.86173  -0.82430  -0.80269  -0.79055  -0.77462
 Alpha  occ. eigenvalues --   -0.72025  -0.71149  -0.70453  -0.65918  -0.65017
 Alpha  occ. eigenvalues --   -0.64754  -0.62217  -0.61512  -0.59997  -0.58264
 Alpha  occ. eigenvalues --   -0.55959  -0.55250  -0.53315  -0.53288  -0.52908
 Alpha  occ. eigenvalues --   -0.52837  -0.50587  -0.48793  -0.48778  -0.48554
 Alpha  occ. eigenvalues --   -0.47304  -0.46542  -0.46490  -0.44782  -0.44478
 Alpha  occ. eigenvalues --   -0.37317  -0.36279
 Alpha virt. eigenvalues --    0.05043   0.11201   0.16419   0.19603   0.22746
 Alpha virt. eigenvalues --    0.23779   0.25196   0.26179   0.26845   0.28412
 Alpha virt. eigenvalues --    0.29692   0.30299   0.31130   0.31428   0.31523

 Mulliken charges:
               1
     1  C   -0.298163
     2  C   -0.299604
     3  C   -0.475940
     4  H    0.150961
     5  H    0.153240
     6  H    0.146662
     7  H    0.151841
     8  H    0.157419
     9  H    0.156587
    10  H    0.161280
    11  C   -0.299460
    12  C   -0.301460
    13  C   -0.478204
    14  H    0.137679
    15  H    0.151469
    16  H    0.151697
    17  H    0.155372
    18  H    0.157306
    19  H    0.153373
    20  H    0.164107
    21  C   -0.172326
    22  C   -0.217685
    23  C   -0.170088
    24  C    0.158500
    25  C   -0.171243
    26  C   -0.218719
    27  H    0.226562
    28  H    0.226448
    29  H    0.275961
    30  H    0.275599
    31  H    0.223481
    32  N    0.488051
    33  O   -0.460446
    34  O   -0.460259
 Sum of Mulliken charges =  -0.00000

 Dipole moment (field-independent basis, Debye):
    X=              4.5183    Y=             -2.6962    Z=              0.4104  Tot=              5.2776
 Quadrupole moment (field-independent basis, Debye-Ang):
   XX=           -121.8636   YY=            -91.2402   ZZ=            -92.6313
   XY=              9.2027   XZ=             -2.4966   YZ=             -2.0473

 Normal termination of Gaussian 16 at Wed May  5 23:23:40 2021.
