 Gaussian 16, Revision A.03,
 Gaussian 16:  EM64L-G16RevA.03 25-Dec-2016

 -------------
 #p 6-31g* mp2
 -------------

 ------------------------------------------------------
 Input file generated by CHIRIPA (05-May-2021 14:57:23)
 ------------------------------------------------------
 Symbolic Z-matrix:
 Charge =  0 Multiplicity = 1

                         Standard orientation:
 ---------------------------------------------------------------------
 Center     Atomic      Atomic             Coordinates (Angstroms)
 Number     Number       Type             X           Y           Z
 ---------------------------------------------------------------------
      1          6           0        0.283141   -0.395571    1.897262
      2          6           0        0.731411    0.908258    1.661455
      3          6           0        1.856785    1.138942    0.864670
      4          6           0        2.512816    0.037590    0.317006
      5          6           0        2.090673   -1.273220    0.533484
      6          6           0        0.963004   -1.480237    1.333518
      7          1           0       -0.591969   -0.565579    2.517485
      8          1           0        0.205393    1.752535    2.097970
      9          1           0        2.225421    2.137935    0.665825
     10          1           0        2.635825   -2.094690    0.084692
     11          1           0        0.617136   -2.493896    1.514941
     12          7           0        3.705414    0.269277   -0.528234
     13          8           0        4.265824   -0.718026   -0.999202
     14          8           0        4.057180    1.433789   -0.703761
     15          6           0       -2.642985    2.494145   -0.252879
     16          6           0       -1.718706    1.981718   -1.169202
     17          6           0       -1.529413    0.601857   -1.290442
     18          6           0       -2.284674   -0.240472   -0.475979
     19          6           0       -3.213200    0.239539    0.446367
     20          6           0       -3.385972    1.622956    0.550564
     21          1           0       -2.783615    3.567435   -0.165316
     22          1           0       -1.140304    2.655922   -1.794459
     23          1           0       -0.820611    0.178213   -1.991544
     24          1           0       -3.775155   -0.457545    1.056036
     25          1           0       -4.104486    2.018089    1.263061
     26          7           0       -2.093023   -1.703151   -0.595309
     27          8           0       -2.770757   -2.424133    0.133731
     28          8           0       -1.268703   -2.100921   -1.415621
 ---------------------------------------------------------------------

 SCF Done:  E(RHF) =  -868.337858952     A.U. after   16 cycles
 E2 =    -0.2605240607D+01 EUMP2 =    -0.87094309955882D+03

 The electronic state is 1-A.
 Alpha  occ. eigenvalues --  -20.61508 -20.61469 -20.60725 -20.60697 -15.86504
 Alpha  occ. eigenvalues --  -15.85761 -11.31775 -11.31056 -11.28425 -11.28272
 Alpha  occ. eigenvalues --  -11.28125 -11.27645 -11.27506 -11.27447 -11.27319
 Alpha  occ. eigenvalues --  -11.27274 -11.26645 -11.26454  -1.60559  -1.59793
 Alpha  occ. eigenvalues --   -1.40113  -1.39346  -1.19991  -1.19205  -1.09402
 Alpha  occ. eigenvalues --   -1.08625  -1.05375  -1.04570  -0.96241  -0.95472
 Alpha  occ. eigenvalues --   -0.86775  -0.85981  -0.83072  -0.82283  -0.78124
 Alpha  occ. eigenvalues --   -0.77344  -0.72745  -0.71994  -0.71903  -0.71127
 Alpha  occ. eigenvalues --   -0.71089  -0.70300  -0.65637  -0.65371  -0.64844
 Alpha  occ. eigenvalues --   -0.64545  -0.62712  -0.61908  -0.55887  -0.55106
 Alpha  occ. eigenvalues --   -0.54158  -0.53457  -0.52660  -0.52497  -0.49519
 Alpha  occ. eigenvalues --   -0.49493  -0.48744  -0.48724  -0.45542  -0.44766
 Alpha  occ. eigenvalues --   -0.38293  -0.37166  -0.36837  -0.35933
 Alpha virt. eigenvalues --    0.04188   0.05328   0.10618   0.11438   0.15843
 Alpha virt. eigenvalues --    0.16730   0.20784   0.21672   0.26670   0.27463
 Alpha virt. eigenvalues --    0.27758   0.28418   0.30501   0.31055   0.32093

 Mulliken charges:
               1
     1  C   -0.180824
     2  C   -0.211707
     3  C   -0.176751
     4  C    0.154821
     5  C   -0.165689
     6  C   -0.219774
     7  H    0.226586
     8  H    0.219138
     9  H    0.271007
    10  H    0.279246
    11  H    0.235717
    12  N    0.487754
    13  O   -0.457635
    14  O   -0.464324
    15  C   -0.174403
    16  C   -0.219179
    17  C   -0.163948
    18  C    0.162386
    19  C   -0.179555
    20  C   -0.221269
    21  H    0.227207
    22  H    0.227927
    23  H    0.279379
    24  H    0.273939
    25  H    0.223921
    26  N    0.487745
    27  O   -0.465705
    28  O   -0.456010
 Sum of Mulliken charges =  -0.00000

 Dipole moment (field-independent basis, Debye):
    X=             -4.8586    Y=              4.1579    Z=              3.2308  Tot=              7.1647
 Quadrupole moment (field-independent basis, Debye-Ang):
   XX=           -122.1981   YY=           -102.7888   ZZ=           -101.7852
   XY=            -14.5086   XZ=              2.8164   YZ=             -2.7991

 Normal termination of Gaussian 16 at Fri May  7 11:00:34 2021.
