 Gaussian 16, Revision A.03,
 Gaussian 16:  EM64L-G16RevA.03 25-Dec-2016

 -------------
 #p 6-31g* mp2
 -------------

 ------------------------------------------------------
 Input file generated by CHIRIPA (05-May-2021 14:57:22)
 ------------------------------------------------------
 Symbolic Z-matrix:
 Charge =  0 Multiplicity = 1

                         Standard orientation:
 ---------------------------------------------------------------------
 Center     Atomic      Atomic             Coordinates (Angstroms)
 Number     Number       Type             X           Y           Z
 ---------------------------------------------------------------------
      1          6           0       -2.135095    1.996613   -0.173751
      2          6           0       -3.179605    1.965699    0.756068
      3          6           0       -4.069718    0.888109    0.788427
      4          6           0       -3.885052   -0.146240   -0.127712
      5          6           0       -2.854183   -0.144399   -1.066113
      6          6           0       -1.975998    0.943322   -1.080275
      7          1           0       -1.448266    2.837646   -0.191820
      8          1           0       -3.305581    2.782305    1.461284
      9          1           0       -4.886993    0.838624    1.497673
     10          1           0       -2.754093   -0.973120   -1.756491
     11          1           0       -1.165724    0.964652   -1.803494
     12          7           0       -4.821061   -1.292399   -0.103087
     13          8           0       -4.636851   -2.191262   -0.920858
     14          8           0       -5.721191   -1.270194    0.733519
     15          6           0        1.405826    0.854042    0.527256
     16          6           0        2.106872    1.212047   -0.628982
     17          6           0        3.395653    0.721210   -0.858486
     18          6           0        3.955554   -0.129351    0.093536
     19          6           0        3.282520   -0.504386    1.255286
     20          6           0        1.994849   -0.001525    1.464049
     21          1           0        0.405101    1.240006    0.697484
     22          1           0        1.651921    1.876318   -1.358234
     23          1           0        3.960821    0.982178   -1.744995
     24          1           0        3.762307   -1.168378    1.964044
     25          1           0        1.452760   -0.281253    2.362902
     26          7           0        5.319342   -0.655342   -0.138450
     27          8           0        5.790437   -1.403157    0.715646
     28          8           0        5.891359   -0.309841   -1.169984
 ---------------------------------------------------------------------

 SCF Done:  E(RHF) =  -868.335899291     A.U. after   16 cycles
 E2 =    -0.2601877955D+01 EUMP2 =    -0.87093777724517D+03

 The electronic state is 1-A.
 Alpha  occ. eigenvalues --  -20.61538 -20.61531 -20.61148 -20.61140 -15.86596
 Alpha  occ. eigenvalues --  -15.86208 -11.32209 -11.31674 -11.28756 -11.28753
 Alpha  occ. eigenvalues --  -11.28645 -11.28328 -11.28245 -11.27980 -11.27915
 Alpha  occ. eigenvalues --  -11.27882 -11.27420 -11.27238  -1.60607  -1.60221
 Alpha  occ. eigenvalues --   -1.40152  -1.39771  -1.20416  -1.19877  -1.09814
 Alpha  occ. eigenvalues --   -1.09249  -1.05824  -1.05306  -0.96597  -0.96056
 Alpha  occ. eigenvalues --   -0.87241  -0.86703  -0.83388  -0.82899  -0.78364
 Alpha  occ. eigenvalues --   -0.77928  -0.72812  -0.72423  -0.71933  -0.71702
 Alpha  occ. eigenvalues --   -0.71547  -0.70889  -0.66070  -0.65885  -0.65517
 Alpha  occ. eigenvalues --   -0.65296  -0.63141  -0.62646  -0.56494  -0.55896
 Alpha  occ. eigenvalues --   -0.54029  -0.53926  -0.53582  -0.53404  -0.49589
 Alpha  occ. eigenvalues --   -0.49549  -0.49192  -0.49170  -0.45502  -0.45154
 Alpha  occ. eigenvalues --   -0.38490  -0.37910  -0.37313  -0.36916
 Alpha virt. eigenvalues --    0.04077   0.04614   0.10126   0.10702   0.15330
 Alpha virt. eigenvalues --    0.16120   0.18637   0.22027   0.24954   0.26560
 Alpha virt. eigenvalues --    0.27620   0.29442   0.29731   0.31031   0.31831

 Mulliken charges:
               1
     1  C   -0.186378
     2  C   -0.218752
     3  C   -0.170698
     4  C    0.160042
     5  C   -0.169815
     6  C   -0.217138
     7  H    0.224034
     8  H    0.226964
     9  H    0.279054
    10  H    0.280145
    11  H    0.224950
    12  N    0.487719
    13  O   -0.456925
    14  O   -0.457703
    15  C   -0.173128
    16  C   -0.226335
    17  C   -0.169265
    18  C    0.158185
    19  C   -0.169186
    20  C   -0.221526
    21  H    0.231011
    22  H    0.214304
    23  H    0.276487
    24  H    0.277831
    25  H    0.226502
    26  N    0.488018
    27  O   -0.458527
    28  O   -0.459869
 Sum of Mulliken charges =  -0.00000

 Dipole moment (field-independent basis, Debye):
    X=             -1.7335    Y=              5.6714    Z=              0.8032  Tot=              5.9845
 Quadrupole moment (field-independent basis, Debye-Ang):
   XX=           -166.8057   YY=           -105.6372   ZZ=            -98.3897
   XY=             -9.3773   XZ=              0.4479   YZ=             -0.9799

 Normal termination of Gaussian 16 at Thu May  6 21:08:26 2021.
