 Gaussian 16, Revision A.03,
 Gaussian 16:  EM64L-G16RevA.03 25-Dec-2016

 -------------
 #p 6-31g* mp2
 -------------

 ------------------------------------------------------
 Input file generated by CHIRIPA (05-May-2021 14:53:18)
 ------------------------------------------------------
 Symbolic Z-matrix:
 Charge =  0 Multiplicity = 1

                         Standard orientation:
 ---------------------------------------------------------------------
 Center     Atomic      Atomic             Coordinates (Angstroms)
 Number     Number       Type             X           Y           Z
 ---------------------------------------------------------------------
      1          6           0       -5.574423    0.033181    0.190629
      2          6           0       -6.606088   -0.594919   -0.746998
      3          6           0       -8.044349   -0.249249   -0.360075
      4          1           0       -5.769956   -0.302510    1.218258
      5          1           0       -5.703553    1.124380    0.188357
      6          1           0       -6.474146   -1.684506   -0.744020
      7          1           0       -6.407958   -0.257845   -1.772542
      8          1           0       -8.199192    0.834343   -0.381399
      9          1           0       -8.265757   -0.600424    0.652968
     10          1           0       -8.765371   -0.708502   -1.043503
     11          6           0       -4.131934   -0.303260   -0.183219
     12          6           0       -3.100270    0.324841    0.754407
     13          6           0       -1.662008   -0.020830    0.367484
     14          1           0       -4.002804   -1.394459   -0.180948
     15          1           0       -3.936401    0.032431   -1.210849
     16          1           0       -3.298399   -0.012234    1.779951
     17          1           0       -3.232211    1.414427    0.751429
     18          1           0       -1.440601    0.330345   -0.645559
     19          1           0       -1.507165   -1.104421    0.388808
     20          1           0       -0.940986    0.438423    1.050912
     21          6           0        2.439434    2.225883    0.201285
     22          6           0        3.521076    2.167895   -0.683706
     23          6           0        4.277262    0.998276   -0.805047
     24          6           0        3.922263   -0.099492   -0.022633
     25          6           0        2.850233   -0.072809    0.868057
     26          6           0        2.108050    1.107318    0.972981
     27          1           0        1.857450    3.138554    0.289169
     28          1           0        3.780730    3.035045   -1.284271
     29          1           0        5.119606    0.925947   -1.482279
     30          1           0        2.615597   -0.953489    1.453521
     31          1           0        1.268554    1.149477    1.661106
     32          7           0        4.715391   -1.343277   -0.142402
     33          8           0        4.382206   -2.296682    0.558057
     34          8           0        5.655213   -1.341200   -0.934468
 ---------------------------------------------------------------------

 SCF Done:  E(RHF) =  -669.535212754     A.U. after   15 cycles
 E2 =    -0.2090989123D+01 EUMP2 =    -0.67162620187762D+03

 The electronic state is 1-A.
 Alpha  occ. eigenvalues --  -20.60733 -20.60728 -15.85786 -11.31149 -11.27721
 Alpha  occ. eigenvalues --  -11.27712 -11.27463 -11.26739 -11.26719 -11.22177
 Alpha  occ. eigenvalues --  -11.21882 -11.21816 -11.21780 -11.21720 -11.21312
 Alpha  occ. eigenvalues --   -1.59808  -1.39362  -1.19323  -1.08847  -1.08719
 Alpha  occ. eigenvalues --   -1.04729  -1.03972  -0.96429  -0.95554  -0.87453
 Alpha  occ. eigenvalues --   -0.86125  -0.82388  -0.80036  -0.78638  -0.77435
 Alpha  occ. eigenvalues --   -0.72005  -0.71131  -0.70431  -0.65472  -0.64976
 Alpha  occ. eigenvalues --   -0.64770  -0.62117  -0.61361  -0.59810  -0.58035
 Alpha  occ. eigenvalues --   -0.55698  -0.55235  -0.53365  -0.53008  -0.52883
 Alpha  occ. eigenvalues --   -0.52600  -0.50352  -0.48765  -0.48759  -0.48347
 Alpha  occ. eigenvalues --   -0.47057  -0.46185  -0.46096  -0.44768  -0.44227
 Alpha  occ. eigenvalues --   -0.37298  -0.36308
 Alpha virt. eigenvalues --    0.05100   0.11273   0.16550   0.20487   0.22576
 Alpha virt. eigenvalues --    0.23880   0.26014   0.26268   0.27113   0.28334
 Alpha virt. eigenvalues --    0.28372   0.29941   0.31011   0.31613   0.32184

 Mulliken charges:
               1
     1  C   -0.298494
     2  C   -0.300013
     3  C   -0.475910
     4  H    0.150199
     5  H    0.149067
     6  H    0.153054
     7  H    0.152287
     8  H    0.155011
     9  H    0.155573
    10  H    0.161315
    11  C   -0.299057
    12  C   -0.299727
    13  C   -0.476149
    14  H    0.151674
    15  H    0.150356
    16  H    0.152640
    17  H    0.150225
    18  H    0.158311
    19  H    0.159721
    20  H    0.148842
    21  C   -0.171807
    22  C   -0.218671
    23  C   -0.170944
    24  C    0.158409
    25  C   -0.171547
    26  C   -0.216079
    27  H    0.225453
    28  H    0.223190
    29  H    0.275452
    30  H    0.275708
    31  H    0.224873
    32  N    0.488118
    33  O   -0.460462
    34  O   -0.460618
 Sum of Mulliken charges =  -0.00000

 Dipole moment (field-independent basis, Debye):
    X=             -2.9101    Y=              4.3475    Z=              0.3717  Tot=              5.2448
 Quadrupole moment (field-independent basis, Debye-Ang):
   XX=           -116.3317   YY=            -94.5402   ZZ=            -92.6282
   XY=             19.4081   XZ=             -0.3804   YZ=             -2.4690

 Normal termination of Gaussian 16 at Thu May  6 19:00:04 2021.
