 Gaussian 16, Revision A.03,
 Gaussian 16:  EM64L-G16RevA.03 25-Dec-2016

 -------------
 #p 6-31g* mp2
 -------------

 ------------------------------------------------------
 Input file generated by CHIRIPA (05-May-2021 14:55:19)
 ------------------------------------------------------
 Symbolic Z-matrix:
 Charge =  0 Multiplicity = 1

                         Standard orientation:
 ---------------------------------------------------------------------
 Center     Atomic      Atomic             Coordinates (Angstroms)
 Number     Number       Type             X           Y           Z
 ---------------------------------------------------------------------
      1          6           0        5.698556   -0.070495    0.446599
      2          6           0        4.782910    0.434662    1.375539
      3          6           0        3.407883    0.336293    1.142786
      4          6           0        2.981504   -0.276119   -0.034687
      5          6           0        3.868972   -0.789101   -0.979430
      6          6           0        5.239474   -0.679690   -0.725854
      7          1           0        6.764952    0.010208    0.635496
      8          1           0        5.136570    0.908275    2.286945
      9          1           0        2.677126    0.718827    1.844983
     10          1           0        3.486199   -1.255905   -1.878873
     11          1           0        5.948282   -1.072897   -1.449058
     12          7           0        1.528220   -0.386102   -0.292115
     13          8           0        1.178098   -0.930127   -1.337145
     14          8           0        0.766776    0.073802    0.556018
     15          6           0       -3.991201    1.079197    0.061743
     16          6           0       -2.688324    1.531632   -0.598408
     17          6           0       -2.438786    3.032454   -0.446560
     18          1           0       -4.829826    1.637905   -0.375864
     19          1           0       -3.963834    1.341203    1.128513
     20          1           0       -2.717564    1.267611   -1.663328
     21          1           0       -1.852724    0.971645   -0.159315
     22          1           0       -2.383072    3.308617    0.611377
     23          1           0       -3.252826    3.606264   -0.901182
     24          1           0       -1.502199    3.334210   -0.925737
     25          6           0       -4.254617   -0.418737   -0.081558
     26          6           0       -5.557494   -0.871172    0.578593
     27          6           0       -5.807032   -2.371993    0.426744
     28          1           0       -4.281984   -0.680742   -1.148328
     29          1           0       -3.415992   -0.977445    0.356048
     30          1           0       -6.393094   -0.311184    0.139499
     31          1           0       -5.528253   -0.607150    1.643512
     32          1           0       -4.992992   -2.945804    0.881366
     33          1           0       -5.862746   -2.648157   -0.631193
     34          1           0       -6.743618   -2.673750    0.905921
 ---------------------------------------------------------------------

 SCF Done:  E(RHF) =  -669.536515451     A.U. after   15 cycles
 E2 =    -0.2091123934D+01 EUMP2 =    -0.67162763938534D+03

 The electronic state is 1-A.
 Alpha  occ. eigenvalues --  -20.61048 -20.61028 -15.86055 -11.31348 -11.27905
 Alpha  occ. eigenvalues --  -11.27901 -11.27636 -11.26904 -11.26894 -11.20643
 Alpha  occ. eigenvalues --  -11.20246 -11.20149 -11.20072 -11.19857 -11.19797
 Alpha  occ. eigenvalues --   -1.60087  -1.39645  -1.19511  -1.08921  -1.07171
 Alpha  occ. eigenvalues --   -1.04902  -1.02312  -0.95767  -0.94825  -0.86303
 Alpha  occ. eigenvalues --   -0.85849  -0.82603  -0.78378  -0.77659  -0.76927
 Alpha  occ. eigenvalues --   -0.72273  -0.71396  -0.70619  -0.65167  -0.64904
 Alpha  occ. eigenvalues --   -0.63803  -0.62249  -0.59707  -0.58201  -0.56410
 Alpha  occ. eigenvalues --   -0.55407  -0.54130  -0.53235  -0.52993  -0.51553
 Alpha  occ. eigenvalues --   -0.51243  -0.49131  -0.49025  -0.48744  -0.46683
 Alpha  occ. eigenvalues --   -0.45394  -0.45058  -0.44498  -0.44277  -0.42570
 Alpha  occ. eigenvalues --   -0.37488  -0.36501
 Alpha virt. eigenvalues --    0.04863   0.11155   0.16366   0.21293   0.24074
 Alpha virt. eigenvalues --    0.25466   0.27214   0.27894   0.28185   0.28844
 Alpha virt. eigenvalues --    0.29134   0.30864   0.32373   0.32562   0.33009

 Mulliken charges:
               1
     1  C   -0.170463
     2  C   -0.218550
     3  C   -0.170685
     4  C    0.157841
     5  C   -0.170584
     6  C   -0.218602
     7  H    0.226198
     8  H    0.224022
     9  H    0.275851
    10  H    0.276022
    11  H    0.224018
    12  N    0.489304
    13  O   -0.457973
    14  O   -0.460375
    15  C   -0.297057
    16  C   -0.312648
    17  C   -0.473375
    18  H    0.143280
    19  H    0.145902
    20  H    0.148505
    21  H    0.184197
    22  H    0.151183
    23  H    0.148489
    24  H    0.157188
    25  C   -0.298591
    26  C   -0.298746
    27  C   -0.474936
    28  H    0.148592
    29  H    0.157119
    30  H    0.148909
    31  H    0.149680
    32  H    0.155473
    33  H    0.154344
    34  H    0.156466
 Sum of Mulliken charges =  -0.00000

 Dipole moment (field-independent basis, Debye):
    X=              5.5538    Y=              0.2390    Z=              0.9140  Tot=              5.6335
 Quadrupole moment (field-independent basis, Debye-Ang):
   XX=            -65.9425   YY=            -96.5007   ZZ=            -90.5632
   XY=             -0.8271   XZ=              2.0856   YZ=              2.1029

 Normal termination of Gaussian 16 at Thu May  6 17:24:31 2021.
