 Gaussian 16, Revision A.03,
 Gaussian 16:  EM64L-G16RevA.03 25-Dec-2016

 -------------
 #p 6-31g* mp2
 -------------

 ------------------------------------------------------
 Input file generated by CHIRIPA (05-May-2021 14:53:13)
 ------------------------------------------------------
 Symbolic Z-matrix:
 Charge =  0 Multiplicity = 1

                         Standard orientation:
 ---------------------------------------------------------------------
 Center     Atomic      Atomic             Coordinates (Angstroms)
 Number     Number       Type             X           Y           Z
 ---------------------------------------------------------------------
      1          6           0        3.451677   -0.169468    0.063641
      2          6           0        4.264437   -1.248733   -0.652315
      3          6           0        4.883125   -2.260517    0.312730
      4          1           0        4.099702    0.353815    0.780008
      5          1           0        2.657512   -0.648688    0.652746
      6          1           0        5.055972   -0.767539   -1.240992
      7          1           0        3.614450   -1.769381   -1.367199
      8          1           0        4.103997   -2.767095    0.891470
      9          1           0        5.553710   -1.759561    1.018393
     10          1           0        5.459698   -3.022990   -0.220242
     11          6           0        2.826855    0.849424   -0.887771
     12          6           0        2.014095    1.928689   -0.171816
     13          6           0        1.395407    2.940473   -1.136861
     14          1           0        3.621020    1.328644   -1.476877
     15          1           0        2.178830    0.326140   -1.604139
     16          1           0        2.664083    2.449336    0.543068
     17          1           0        1.222561    1.447495    0.416862
     18          1           0        0.724823    2.439517   -1.842524
     19          1           0        2.174535    3.447051   -1.715600
     20          1           0        0.818835    3.702946   -0.603888
     21          6           0       -4.027973   -1.163356   -1.432503
     22          6           0       -3.101973   -2.015207   -0.821442
     23          6           0       -2.224210   -1.528687    0.151893
     24          6           0       -2.300246   -0.178817    0.491538
     25          6           0       -3.211735    0.694974   -0.099199
     26          6           0       -4.079806    0.186635   -1.070070
     27          1           0       -4.706076   -1.549771   -2.187655
     28          1           0       -3.059462   -3.064075   -1.100927
     29          1           0       -1.497531   -2.166040    0.640908
     30          1           0       -3.230339    1.735821    0.200316
     31          1           0       -4.797923    0.850512   -1.542956
     32          7           0       -1.376127    0.347790    1.520659
     33          8           0       -1.463184    1.541009    1.802233
     34          8           0       -0.582245   -0.442649    2.026225
 ---------------------------------------------------------------------

 SCF Done:  E(RHF) =  -669.536228926     A.U. after   15 cycles
 E2 =    -0.2091894273D+01 EUMP2 =    -0.67162812319898D+03

 The electronic state is 1-A.
 Alpha  occ. eigenvalues --  -20.60994 -20.60984 -15.86006 -11.31321 -11.27886
 Alpha  occ. eigenvalues --  -11.27877 -11.27618 -11.26885 -11.26874 -11.21058
 Alpha  occ. eigenvalues --  -11.20692 -11.20621 -11.20583 -11.20560 -11.20377
 Alpha  occ. eigenvalues --   -1.60051  -1.39602  -1.19489  -1.08895  -1.07702
 Alpha  occ. eigenvalues --   -1.04881  -1.02844  -0.95738  -0.95316  -0.86339
 Alpha  occ. eigenvalues --   -0.86282  -0.82572  -0.78895  -0.77629  -0.77483
 Alpha  occ. eigenvalues --   -0.72224  -0.71385  -0.70596  -0.65142  -0.64882
 Alpha  occ. eigenvalues --   -0.64335  -0.62228  -0.60253  -0.58673  -0.56900
 Alpha  occ. eigenvalues --   -0.55386  -0.54625  -0.53215  -0.52972  -0.52023
 Alpha  occ. eigenvalues --   -0.51737  -0.49291  -0.48994  -0.48992  -0.47205
 Alpha  occ. eigenvalues --   -0.45923  -0.45069  -0.45040  -0.44854  -0.43083
 Alpha  occ. eigenvalues --   -0.37466  -0.36481
 Alpha virt. eigenvalues --    0.04853   0.11172   0.16333   0.21290   0.23499
 Alpha virt. eigenvalues --    0.24884   0.27168   0.27303   0.27959   0.28494
 Alpha virt. eigenvalues --    0.28634   0.30924   0.31975   0.32342   0.32464

 Mulliken charges:
               1
     1  C   -0.301596
     2  C   -0.298649
     3  C   -0.475250
     4  H    0.150003
     5  H    0.160705
     6  H    0.149777
     7  H    0.147616
     8  H    0.156066
     9  H    0.155751
    10  H    0.156945
    11  C   -0.297384
    12  C   -0.304245
    13  C   -0.475605
    14  H    0.145977
    15  H    0.143509
    16  H    0.153200
    17  H    0.165897
    18  H    0.147911
    19  H    0.151490
    20  H    0.164011
    21  C   -0.170447
    22  C   -0.218632
    23  C   -0.170989
    24  C    0.158111
    25  C   -0.170458
    26  C   -0.218648
    27  H    0.226190
    28  H    0.223951
    29  H    0.275583
    30  H    0.276226
    31  H    0.224089
    32  N    0.486965
    33  O   -0.457886
    34  O   -0.460182
 Sum of Mulliken charges =  -0.00000

 Dipole moment (field-independent basis, Debye):
    X=             -3.4562    Y=             -1.8433    Z=             -3.4419  Tot=              5.2143
 Quadrupole moment (field-independent basis, Debye-Ang):
   XX=            -79.4528   YY=            -90.5206   ZZ=            -99.5761
   XY=              3.8421   XZ=              7.5054   YZ=             -0.0075

 Normal termination of Gaussian 16 at Wed May  5 21:47:18 2021.
