 Gaussian 16, Revision A.03,
 Gaussian 16:  EM64L-G16RevA.03 25-Dec-2016

 -------------
 #p 6-31g* mp2
 -------------

 ------------------------------------------------------
 Input file generated by CHIRIPA (05-May-2021 14:57:22)
 ------------------------------------------------------
 Symbolic Z-matrix:
 Charge =  0 Multiplicity = 1

                         Standard orientation:
 ---------------------------------------------------------------------
 Center     Atomic      Atomic             Coordinates (Angstroms)
 Number     Number       Type             X           Y           Z
 ---------------------------------------------------------------------
      1          6           0       -5.989656    0.451165   -0.049569
      2          6           0       -5.512663   -0.456132   -1.001309
      3          6           0       -4.170310   -0.846817   -0.999598
      4          6           0       -3.328951   -0.308073   -0.027405
      5          6           0       -3.774192    0.597805    0.934070
      6          6           0       -5.120431    0.974316    0.913386
      7          1           0       -7.033938    0.749153   -0.058267
      8          1           0       -6.185433   -0.864038   -1.750334
      9          1           0       -3.774567   -1.547526   -1.724727
     10          1           0       -3.079497    0.987356    1.668283
     11          1           0       -5.488096    1.679112    1.653744
     12          7           0       -1.905805   -0.714171   -0.015550
     13          8           0       -1.184865   -0.225124    0.851466
     14          8           0       -1.538230   -1.513827   -0.873499
     15          6           0        4.527851   -2.068256    0.349718
     16          6           0        5.148338   -1.164970   -0.519530
     17          6           0        4.622806    0.117236   -0.704769
     18          6           0        3.470273    0.464407   -0.001613
     19          6           0        2.829137   -0.413106    0.871432
     20          6           0        3.372269   -1.690108    1.041206
     21          1           0        4.942933   -3.062282    0.487610
     22          1           0        6.045889   -1.455908   -1.057862
     23          1           0        5.082933    0.836342   -1.371542
     24          1           0        1.935582   -0.094250    1.394220
     25          1           0        2.888271   -2.389535    1.716922
     26          7           0        2.904599    1.819067   -0.189530
     27          8           0        1.888231    2.100582    0.441643
     28          8           0        3.488306    2.573683   -0.964436
 ---------------------------------------------------------------------

 SCF Done:  E(RHF) =  -868.339130494     A.U. after   16 cycles
 E2 =    -0.2598844932D+01 EUMP2 =    -0.87093797542620D+03

 The electronic state is 1-A.
 Alpha  occ. eigenvalues --  -20.60840 -20.60790 -20.59677 -20.59632 -15.85846
 Alpha  occ. eigenvalues --  -15.84706 -11.31099 -11.29960 -11.27674 -11.27632
 Alpha  occ. eigenvalues --  -11.27400 -11.26669 -11.26646 -11.26639 -11.26397
 Alpha  occ. eigenvalues --  -11.26381 -11.25656 -11.25509  -1.59875  -1.58737
 Alpha  occ. eigenvalues --   -1.39430  -1.38287  -1.19264  -1.18162  -1.08686
 Alpha  occ. eigenvalues --   -1.07600  -1.04652  -1.03545  -0.95538  -0.94436
 Alpha  occ. eigenvalues --   -0.86057  -0.84961  -0.82373  -0.81267  -0.77427
 Alpha  occ. eigenvalues --   -0.76299  -0.72084  -0.71174  -0.70935  -0.70379
 Alpha  occ. eigenvalues --   -0.70053  -0.69295  -0.64924  -0.64661  -0.63827
 Alpha  occ. eigenvalues --   -0.63573  -0.61999  -0.60874  -0.55171  -0.54118
 Alpha  occ. eigenvalues --   -0.52986  -0.52747  -0.51896  -0.51649  -0.48838
 Alpha  occ. eigenvalues --   -0.48825  -0.47706  -0.47670  -0.44851  -0.43714
 Alpha  occ. eigenvalues --   -0.37244  -0.36249  -0.36187  -0.35131
 Alpha virt. eigenvalues --    0.05106   0.06221   0.11408   0.12512   0.16614
 Alpha virt. eigenvalues --    0.17697   0.21528   0.22559   0.27453   0.28332
 Alpha virt. eigenvalues --    0.28538   0.29491   0.31096   0.32028   0.32662

 Mulliken charges:
               1
     1  C   -0.170391
     2  C   -0.218708
     3  C   -0.170626
     4  C    0.158280
     5  C   -0.169453
     6  C   -0.218654
     7  H    0.225581
     8  H    0.223039
     9  H    0.274809
    10  H    0.278042
    11  H    0.224176
    12  N    0.490674
    13  O   -0.462083
    14  O   -0.462476
    15  C   -0.170701
    16  C   -0.219841
    17  C   -0.171617
    18  C    0.155026
    19  C   -0.165927
    20  C   -0.219197
    21  H    0.221389
    22  H    0.218617
    23  H    0.271584
    24  H    0.291452
    25  H    0.223045
    26  N    0.487648
    27  O   -0.456369
    28  O   -0.467319
 Sum of Mulliken charges =  -0.00000

 Dipole moment (field-independent basis, Debye):
    X=             -3.4047    Y=             -3.3223    Z=              0.7522  Tot=              4.8162
 Quadrupole moment (field-independent basis, Debye-Ang):
   XX=            -57.2337   YY=           -109.7488   ZZ=           -100.4515
   XY=            -17.9146   XZ=              0.8661   YZ=              2.3265

 Normal termination of Gaussian 16 at Thu May  6 11:16:19 2021.
