 Gaussian 16, Revision A.03,
 Gaussian 16:  EM64L-G16RevA.03 25-Dec-2016

 -------------
 #p 6-31g* mp2
 -------------

 ------------------------------------------------------
 Input file generated by CHIRIPA (05-May-2021 14:53:12)
 ------------------------------------------------------
 Symbolic Z-matrix:
 Charge =  0 Multiplicity = 1

                         Standard orientation:
 ---------------------------------------------------------------------
 Center     Atomic      Atomic             Coordinates (Angstroms)
 Number     Number       Type             X           Y           Z
 ---------------------------------------------------------------------
      1          6           0        3.545822    0.796547    0.340621
      2          6           0        2.394946    1.486072   -0.392879
      3          6           0        1.769467    2.619082    0.421283
      4          1           0        3.178268    0.402434    1.297974
      5          1           0        4.315208    1.542241    0.584302
      6          1           0        1.628588    0.739047   -0.636326
      7          1           0        2.765237    1.878423   -1.348683
      8          1           0        2.516510    3.385340    0.652319
      9          1           0        1.373403    2.239491    1.368724
     10          1           0        0.948874    3.098134   -0.121852
     11          6           0        4.181351   -0.338352   -0.460525
     12          6           0        5.332228   -1.027877    0.272975
     13          6           0        5.957706   -2.160887   -0.541188
     14          1           0        3.411965   -1.084046   -0.704206
     15          1           0        4.548905    0.055762   -1.417878
     16          1           0        4.961936   -1.420228    1.228779
     17          1           0        6.098585   -0.280852    0.516421
     18          1           0        6.353771   -1.781296   -1.488628
     19          1           0        5.210664   -2.927145   -0.772224
     20          1           0        6.778299   -2.639939    0.001947
     21          6           0       -2.362592    2.254219   -0.076997
     22          6           0       -3.344932    1.749454   -0.935334
     23          6           0       -3.716252    0.402941   -0.875565
     24          6           0       -3.081831   -0.414216    0.058810
     25          6           0       -2.099618    0.058966    0.927514
     26          6           0       -1.744161    1.408854    0.850053
     27          1           0       -2.080303    3.301534   -0.130299
     28          1           0       -3.826903    2.403654   -1.656286
     29          1           0       -4.473672   -0.014062   -1.528129
     30          1           0       -1.636963   -0.617635    1.635736
     31          1           0       -0.980941    1.798111    1.517899
     32          7           0       -3.466534   -1.841495    0.131450
     33          8           0       -2.892583   -2.540758    0.963464
     34          8           0       -4.334731   -2.233908   -0.645006
 ---------------------------------------------------------------------

 SCF Done:  E(RHF) =  -669.535171735     A.U. after   15 cycles
 E2 =    -0.2091822389D+01 EUMP2 =    -0.67162699412312D+03

 The electronic state is 1-A.
 Alpha  occ. eigenvalues --  -20.60766 -20.60761 -15.85818 -11.31181 -11.27740
 Alpha  occ. eigenvalues --  -11.27730 -11.27472 -11.26763 -11.26701 -11.22223
 Alpha  occ. eigenvalues --  -11.22063 -11.21859 -11.21816 -11.21668 -11.21196
 Alpha  occ. eigenvalues --   -1.59842  -1.39395  -1.19346  -1.08860  -1.08738
 Alpha  occ. eigenvalues --   -1.04750  -1.03995  -0.96478  -0.95578  -0.87511
 Alpha  occ. eigenvalues --   -0.86133  -0.82411  -0.80070  -0.78624  -0.77460
 Alpha  occ. eigenvalues --   -0.72037  -0.71165  -0.70456  -0.65522  -0.64997
 Alpha  occ. eigenvalues --   -0.64753  -0.62168  -0.61328  -0.59868  -0.58058
 Alpha  occ. eigenvalues --   -0.55809  -0.55224  -0.53267  -0.53059  -0.52895
 Alpha  occ. eigenvalues --   -0.52749  -0.50381  -0.48794  -0.48791  -0.48376
 Alpha  occ. eigenvalues --   -0.47074  -0.46179  -0.46070  -0.44802  -0.44241
 Alpha  occ. eigenvalues --   -0.37313  -0.36335
 Alpha virt. eigenvalues --    0.05051   0.11245   0.16491   0.20265   0.22737
 Alpha virt. eigenvalues --    0.24094   0.25521   0.26534   0.26596   0.27531
 Alpha virt. eigenvalues --    0.29065   0.29610   0.31281   0.31666   0.32570

 Mulliken charges:
               1
     1  C   -0.298670
     2  C   -0.300979
     3  C   -0.477293
     4  H    0.148762
     5  H    0.150155
     6  H    0.156059
     7  H    0.154422
     8  H    0.159126
     9  H    0.147769
    10  H    0.155091
    11  C   -0.299160
    12  C   -0.300034
    13  C   -0.476191
    14  H    0.152185
    15  H    0.150220
    16  H    0.152693
    17  H    0.151665
    18  H    0.155201
    19  H    0.157147
    20  H    0.161166
    21  C   -0.173727
    22  C   -0.218485
    23  C   -0.171232
    24  C    0.158831
    25  C   -0.173979
    26  C   -0.216929
    27  H    0.226001
    28  H    0.223356
    29  H    0.275498
    30  H    0.275056
    31  H    0.229271
    32  N    0.488081
    33  O   -0.460662
    34  O   -0.460415
 Sum of Mulliken charges =  -0.00000

 Dipole moment (field-independent basis, Debye):
    X=              1.4822    Y=              4.9905    Z=             -0.3137  Tot=              5.2154
 Quadrupole moment (field-independent basis, Debye-Ang):
   XX=           -100.8574   YY=            -99.8261   ZZ=            -92.5576
   XY=            -15.9563   XZ=              3.5986   YZ=             -0.9486

 Normal termination of Gaussian 16 at Thu May  6 13:38:25 2021.
