 Gaussian 16, Revision A.03,
 Gaussian 16:  EM64L-G16RevA.03 25-Dec-2016

 -------------
 #p 6-31g* mp2
 -------------

 ------------------------------------------------------
 Input file generated by CHIRIPA (05-May-2021 14:51:11)
 ------------------------------------------------------
 Symbolic Z-matrix:
 Charge =  0 Multiplicity = 1

                         Standard orientation:
 ---------------------------------------------------------------------
 Center     Atomic      Atomic             Coordinates (Angstroms)
 Number     Number       Type             X           Y           Z
 ---------------------------------------------------------------------
      1          6           0        4.064792    0.590349    0.254612
      2          6           0        2.936296    0.620415   -0.776687
      3          6           0        1.699693    1.368815   -0.278186
      4          1           0        3.697327    0.120621    1.177255
      5          1           0        4.339967    1.621309    0.516899
      6          1           0        2.664276   -0.410287   -1.037982
      7          1           0        3.306547    1.089952   -1.697048
      8          1           0        1.949387    2.406771   -0.035490
      9          1           0        1.303466    0.898008    0.627322
     10          1           0        0.905407    1.378097   -1.031103
     11          6           0        5.307854   -0.154325   -0.229111
     12          6           0        6.436350   -0.184390    0.802189
     13          6           0        7.672953   -0.932791    0.303688
     14          1           0        5.032679   -1.185285   -0.491398
     15          1           0        5.675320    0.315403   -1.151754
     16          1           0        6.066099   -0.653928    1.722550
     17          1           0        6.708370    0.846311    1.063483
     18          1           0        8.069180   -0.461984   -0.601821
     19          1           0        7.423259   -1.970747    0.060991
     20          1           0        8.467239   -0.942073    1.056604
     21          6           0       -3.967120    0.025351    0.070632
     22          6           0       -2.940055   -0.868215   -0.625548
     23          6           0       -1.505844   -0.368315   -0.449682
     24          1           0       -3.882386    1.047016   -0.324293
     25          1           0       -3.726666    0.083150    1.141256
     26          1           0       -3.183183   -0.925426   -1.694299
     27          1           0       -3.027374   -1.887915   -0.229056
     28          1           0       -1.239280   -0.328107    0.611415
     29          1           0       -1.395974    0.639850   -0.862154
     30          1           0       -0.788077   -1.021806   -0.955272
     31          6           0       -5.405527   -0.461375   -0.096132
     32          6           0       -6.432590    0.432191    0.600046
     33          6           0       -7.866803   -0.067709    0.424181
     34          1           0       -5.645980   -0.519173   -1.166757
     35          1           0       -5.490260   -1.483040    0.298792
     36          1           0       -6.345272    1.451890    0.203555
     37          1           0       -6.189464    0.489402    1.668799
     38          1           0       -7.976673   -1.075875    0.836653
     39          1           0       -8.133367   -0.107918   -0.636916
     40          1           0       -8.584569    0.585782    0.929769
 ---------------------------------------------------------------------

 SCF Done:  E(RHF) =  -470.732548517     A.U. after   11 cycles
 E2 =    -0.1582682692D+01 EUMP2 =    -0.47231523120883D+03

 The electronic state is 1-A.
 Alpha  occ. eigenvalues --  -11.21590 -11.21571 -11.21555 -11.21515 -11.21387
 Alpha  occ. eigenvalues --  -11.21355 -11.21328 -11.21293 -11.21063 -11.21048
 Alpha  occ. eigenvalues --  -11.21015 -11.20880  -1.08413  -1.08371  -1.03533
 Alpha  occ. eigenvalues --   -1.03438  -0.96035  -0.95837  -0.87109  -0.86801
 Alpha  occ. eigenvalues --   -0.79668  -0.79435  -0.78229  -0.78181  -0.65044
 Alpha  occ. eigenvalues --   -0.65004  -0.60929  -0.60861  -0.59395  -0.59231
 Alpha  occ. eigenvalues --   -0.57580  -0.57525  -0.55271  -0.55196  -0.52906
 Alpha  occ. eigenvalues --   -0.52558  -0.52325  -0.52179  -0.49908  -0.49819
 Alpha  occ. eigenvalues --   -0.47887  -0.47835  -0.46609  -0.46542  -0.45774
 Alpha  occ. eigenvalues --   -0.45725  -0.45686  -0.45640  -0.43814  -0.43617
 Alpha virt. eigenvalues --    0.22246   0.22977   0.23563   0.24846   0.26315
 Alpha virt. eigenvalues --    0.26575   0.26933   0.27370   0.27690   0.29164
 Alpha virt. eigenvalues --    0.29599   0.30543   0.31397   0.32216   0.32281

 Mulliken charges:
               1
     1  C   -0.298398
     2  C   -0.300093
     3  C   -0.477320
     4  H    0.149466
     5  H    0.149384
     6  H    0.151586
     7  H    0.151256
     8  H    0.153193
     9  H    0.156773
    10  H    0.164437
    11  C   -0.298185
    12  C   -0.299582
    13  C   -0.475661
    14  H    0.149344
    15  H    0.149516
    16  H    0.151837
    17  H    0.151862
    18  H    0.155123
    19  H    0.155105
    20  H    0.160132
    21  C   -0.298306
    22  C   -0.301286
    23  C   -0.473945
    24  H    0.149688
    25  H    0.149419
    26  H    0.151519
    27  H    0.151396
    28  H    0.155198
    29  H    0.156760
    30  H    0.159897
    31  C   -0.298191
    32  C   -0.299617
    33  C   -0.475690
    34  H    0.149458
    35  H    0.149571
    36  H    0.151941
    37  H    0.151901
    38  H    0.155137
    39  H    0.155154
    40  H    0.160221
 Sum of Mulliken charges =  -0.00000

 Dipole moment (field-independent basis, Debye):
    X=             -0.0218    Y=              0.0066    Z=              0.0005  Tot=              0.0228
 Quadrupole moment (field-independent basis, Debye-Ang):
   XX=            -87.0728   YY=            -84.0712   ZZ=            -83.9659
   XY=              0.4555   XZ=              0.0964   YZ=             -0.9759

 Normal termination of Gaussian 16 at Wed May  5 21:27:39 2021.
