 Gaussian 16, Revision A.03,
 Gaussian 16:  EM64L-G16RevA.03 25-Dec-2016

 -------------
 #p 6-31g* mp2
 -------------

 ------------------------------------------------------
 Input file generated by CHIRIPA (05-May-2021 14:51:13)
 ------------------------------------------------------
 Symbolic Z-matrix:
 Charge =  0 Multiplicity = 1

                         Standard orientation:
 ---------------------------------------------------------------------
 Center     Atomic      Atomic             Coordinates (Angstroms)
 Number     Number       Type             X           Y           Z
 ---------------------------------------------------------------------
      1          6           0        1.886407    0.873308   -0.281115
      2          6           0        1.374378    2.309909   -0.390600
      3          6           0       -0.047148    2.389969   -0.947958
      4          1           0        1.852882    0.402246   -1.273043
      5          1           0        1.206549    0.297112    0.361681
      6          1           0        2.055760    2.883578   -1.031880
      7          1           0        1.409307    2.777667    0.601669
      8          1           0       -0.744149    1.841840   -0.305816
      9          1           0       -0.094023    1.948352   -1.948647
     10          1           0       -0.393250    3.425923   -1.017756
     11          6           0        3.306175    0.776883    0.274486
     12          6           0        3.818204   -0.659719    0.383971
     13          6           0        5.239730   -0.739778    0.941329
     14          1           0        3.986033    1.353078   -0.368310
     15          1           0        3.339700    1.247945    1.266414
     16          1           0        3.783275   -1.127477   -0.608298
     17          1           0        3.136822   -1.233388    1.025251
     18          1           0        5.286605   -0.298162    1.942018
     19          1           0        5.936731   -0.191649    0.299187
     20          1           0        5.585832   -1.775733    1.011127
     21          6           0       -3.161332   -0.336329   -0.155645
     22          6           0       -4.018769    0.015550    1.060484
     23          6           0       -5.144960    0.994302    0.726522
     24          1           0       -2.735571    0.585430   -0.575209
     25          1           0       -3.803622   -0.767414   -0.936045
     26          1           0       -3.374830    0.444567    1.838882
     27          1           0       -4.442383   -0.907173    1.477316
     28          1           0       -5.810895    0.570922   -0.032347
     29          1           0       -4.737276    1.930343    0.331273
     30          1           0       -5.745364    1.232120    1.610161
     31          6           0       -2.031250   -1.313862    0.162274
     32          6           0       -1.173814   -1.665740   -1.053855
     33          6           0       -0.047622   -2.644493   -0.719893
     34          1           0       -1.388960   -0.882776    0.942674
     35          1           0       -2.457011   -2.235620    0.581838
     36          1           0       -0.750199   -0.743017   -1.470688
     37          1           0       -1.817752   -2.094757   -1.832254
     38          1           0       -0.455306   -3.580533   -0.324644
     39          1           0        0.618312   -2.221113    0.038976
     40          1           0        0.552782   -2.882311   -1.603531
 ---------------------------------------------------------------------

 SCF Done:  E(RHF) =  -470.732189407     A.U. after   11 cycles
 E2 =    -0.1585692385D+01 EUMP2 =    -0.47231788179226D+03

 The electronic state is 1-A.
 Alpha  occ. eigenvalues --  -11.21686 -11.21633 -11.21572 -11.21464 -11.21457
 Alpha  occ. eigenvalues --  -11.21403 -11.21347 -11.21275 -11.21169 -11.21091
 Alpha  occ. eigenvalues --  -11.21040 -11.20942  -1.08526  -1.08349  -1.03603
 Alpha  occ. eigenvalues --   -1.03454  -0.96074  -0.95893  -0.87073  -0.86928
 Alpha  occ. eigenvalues --   -0.79687  -0.79515  -0.78345  -0.78168  -0.65279
 Alpha  occ. eigenvalues --   -0.64899  -0.60996  -0.60882  -0.59413  -0.59274
 Alpha  occ. eigenvalues --   -0.57695  -0.57516  -0.55477  -0.55090  -0.52743
 Alpha  occ. eigenvalues --   -0.52636  -0.52445  -0.52324  -0.50056  -0.49813
 Alpha  occ. eigenvalues --   -0.48062  -0.47857  -0.46782  -0.46520  -0.46068
 Alpha  occ. eigenvalues --   -0.45856  -0.45486  -0.45288  -0.43848  -0.43713
 Alpha virt. eigenvalues --    0.19963   0.22422   0.23758   0.23902   0.25298
 Alpha virt. eigenvalues --    0.25860   0.26557   0.27859   0.29236   0.29712
 Alpha virt. eigenvalues --    0.30826   0.31415   0.31586   0.31890   0.32281

 Mulliken charges:
               1
     1  C   -0.303377
     2  C   -0.299362
     3  C   -0.482631
     4  H    0.151517
     5  H    0.153617
     6  H    0.152317
     7  H    0.151920
     8  H    0.161050
     9  H    0.156100
    10  H    0.160846
    11  C   -0.298423
    12  C   -0.301099
    13  C   -0.475809
    14  H    0.149744
    15  H    0.149506
    16  H    0.152965
    17  H    0.152985
    18  H    0.155114
    19  H    0.155251
    20  H    0.160666
    21  C   -0.304688
    22  C   -0.299510
    23  C   -0.475678
    24  H    0.156000
    25  H    0.149778
    26  H    0.150938
    27  H    0.151946
    28  H    0.155216
    29  H    0.155431
    30  H    0.160013
    31  C   -0.299724
    32  C   -0.305373
    33  C   -0.478506
    34  H    0.148216
    35  H    0.149849
    36  H    0.159450
    37  H    0.151280
    38  H    0.153983
    39  H    0.159353
    40  H    0.159127
 Sum of Mulliken charges =  -0.00000

 Dipole moment (field-independent basis, Debye):
    X=              0.0517    Y=              0.0460    Z=             -0.0228  Tot=              0.0728
 Quadrupole moment (field-independent basis, Debye-Ang):
   XX=            -86.0349   YY=            -84.7980   ZZ=            -83.9963
   XY=              1.2748   XZ=             -0.6757   YZ=              0.2066

 Normal termination of Gaussian 16 at Thu May  6 05:35:45 2021.
