 Gaussian 16, Revision A.03,
 Gaussian 16:  EM64L-G16RevA.03 25-Dec-2016

 -------------
 #p 6-31g* mp2
 -------------

 ------------------------------------------------------
 Input file generated by CHIRIPA (05-May-2021 14:55:22)
 ------------------------------------------------------
 Symbolic Z-matrix:
 Charge =  0 Multiplicity = 1

                         Standard orientation:
 ---------------------------------------------------------------------
 Center     Atomic      Atomic             Coordinates (Angstroms)
 Number     Number       Type             X           Y           Z
 ---------------------------------------------------------------------
      1          6           0       -1.141542    0.595287    2.455433
      2          6           0       -1.657821    1.493206    1.515370
      3          6           0       -2.183603    1.030273    0.305496
      4          6           0       -2.177213   -0.343243    0.067371
      5          6           0       -1.670018   -1.262927    0.984009
      6          6           0       -1.149274   -0.777493    2.187225
      7          1           0       -0.735059    0.963644    3.392706
      8          1           0       -1.653119    2.559860    1.720972
      9          1           0       -2.589630    1.703295   -0.439891
     10          1           0       -1.688440   -2.320586    0.750697
     11          1           0       -0.748990   -1.477147    2.915443
     12          7           0       -2.731168   -0.845239   -1.209944
     13          8           0       -2.713941   -2.060065   -1.395790
     14          8           0       -3.172095   -0.014373   -2.001070
     15          6           0        2.610877   -0.410207   -0.191641
     16          6           0        3.952664   -1.143234   -0.207926
     17          6           0        3.818051   -2.630078    0.122176
     18          1           0        2.148387   -0.527144    0.797992
     19          1           0        1.931879   -0.886729   -0.912255
     20          1           0        4.629387   -0.664608    0.511505
     21          1           0        4.412101   -1.024378   -1.197575
     22          1           0        3.164158   -3.127658   -0.601316
     23          1           0        3.382678   -2.765845    1.117474
     24          1           0        4.789110   -3.134665    0.104937
     25          6           0        2.729064    1.077107   -0.519753
     26          6           0        1.387277    1.810133   -0.503469
     27          6           0        1.521890    3.296978   -0.833570
     28          1           0        3.408062    1.553628    0.200860
     29          1           0        3.191554    1.194043   -1.509387
     30          1           0        0.927839    1.691276    0.486181
     31          1           0        0.710554    1.331508   -1.222899
     32          1           0        1.957263    3.432745   -1.828869
     33          1           0        2.175782    3.794557   -0.110078
     34          1           0        0.550832    3.801565   -0.816331
 ---------------------------------------------------------------------

 SCF Done:  E(RHF) =  -669.534344144     A.U. after   15 cycles
 E2 =    -0.2094537589D+01 EUMP2 =    -0.67162888173312D+03

 The electronic state is 1-A.
 Alpha  occ. eigenvalues --  -20.60828 -20.60822 -15.85880 -11.31256 -11.27830
 Alpha  occ. eigenvalues --  -11.27798 -11.27565 -11.26867 -11.26808 -11.21737
 Alpha  occ. eigenvalues --  -11.21595 -11.21511 -11.21452 -11.21332 -11.21242
 Alpha  occ. eigenvalues --   -1.59903  -1.39456  -1.19436  -1.08840  -1.08549
 Alpha  occ. eigenvalues --   -1.04845  -1.03677  -0.96152  -0.95661  -0.87165
 Alpha  occ. eigenvalues --   -0.86240  -0.82491  -0.79745  -0.78374  -0.77531
 Alpha  occ. eigenvalues --   -0.72099  -0.71226  -0.70542  -0.65204  -0.65088
 Alpha  occ. eigenvalues --   -0.64836  -0.62184  -0.61092  -0.59548  -0.57777
 Alpha  occ. eigenvalues --   -0.55444  -0.55343  -0.53318  -0.52930  -0.52794
 Alpha  occ. eigenvalues --   -0.52559  -0.50090  -0.48859  -0.48852  -0.48040
 Alpha  occ. eigenvalues --   -0.46781  -0.45855  -0.45823  -0.44856  -0.43929
 Alpha  occ. eigenvalues --   -0.37356  -0.36329
 Alpha virt. eigenvalues --    0.04978   0.11109   0.16419   0.20978   0.22851
 Alpha virt. eigenvalues --    0.23935   0.26404   0.26848   0.27231   0.27983
 Alpha virt. eigenvalues --    0.28452   0.30704   0.31241   0.31851   0.31908

 Mulliken charges:
               1
     1  C   -0.171939
     2  C   -0.219047
     3  C   -0.165925
     4  C    0.159045
     5  C   -0.169909
     6  C   -0.216948
     7  H    0.225927
     8  H    0.224367
     9  H    0.275718
    10  H    0.276116
    11  H    0.223926
    12  N    0.487610
    13  O   -0.460245
    14  O   -0.460318
    15  C   -0.298797
    16  C   -0.299669
    17  C   -0.475509
    18  H    0.145689
    19  H    0.152529
    20  H    0.150318
    21  H    0.153858
    22  H    0.157976
    23  H    0.150560
    24  H    0.160997
    25  C   -0.298029
    26  C   -0.305307
    27  C   -0.475282
    28  H    0.146547
    29  H    0.150940
    30  H    0.155864
    31  H    0.153861
    32  H    0.158632
    33  H    0.152873
    34  H    0.153572
 Sum of Mulliken charges =  -0.00000

 Dipole moment (field-independent basis, Debye):
    X=              1.8523    Y=              1.7077    Z=              4.4819  Tot=              5.1415
 Quadrupole moment (field-independent basis, Debye-Ang):
   XX=           -104.0019   YY=            -93.0729   ZZ=            -93.3532
   XY=             -5.7117   XZ=             -9.5005   YZ=             -2.3789

 Normal termination of Gaussian 16 at Thu May  6 20:48:45 2021.
