 Gaussian 16, Revision A.03,
 Gaussian 16:  EM64L-G16RevA.03 25-Dec-2016

 -------------
 #p 6-31g* mp2
 -------------

 ------------------------------------------------------
 Input file generated by CHIRIPA (05-May-2021 14:53:12)
 ------------------------------------------------------
 Symbolic Z-matrix:
 Charge =  0 Multiplicity = 1

                         Standard orientation:
 ---------------------------------------------------------------------
 Center     Atomic      Atomic             Coordinates (Angstroms)
 Number     Number       Type             X           Y           Z
 ---------------------------------------------------------------------
      1          6           0        2.934810    0.663270    0.218595
      2          6           0        2.876059    1.401164    1.556520
      3          6           0        1.768852    2.454622    1.602494
      4          1           0        3.086921    1.392621   -0.588780
      5          1           0        1.964038    0.184771    0.028760
      6          1           0        3.847095    1.876975    1.744430
      7          1           0        2.724261    0.669952    2.360823
      8          1           0        0.789946    1.991978    1.440308
      9          1           0        1.919159    3.205859    0.820413
     10          1           0        1.744816    2.969919    2.567767
     11          6           0        4.036669   -0.393076    0.157224
     12          6           0        4.095420   -1.130971   -1.180702
     13          6           0        5.202627   -2.184428   -1.226675
     14          1           0        5.007441    0.085422    0.347059
     15          1           0        3.884558   -1.122427    0.964599
     16          1           0        4.247218   -0.399759   -1.985004
     17          1           0        3.124384   -1.606782   -1.368611
     18          1           0        5.052320   -2.935665   -0.444594
     19          1           0        6.181533   -1.721785   -1.064489
     20          1           0        5.226663   -2.699726   -2.191948
     21          6           0       -3.347005   -1.949685    1.458181
     22          6           0       -4.177387   -1.657047    0.371281
     23          6           0       -3.841708   -0.637406   -0.524375
     24          6           0       -2.662930    0.072740   -0.301968
     25          6           0       -1.814941   -0.195069    0.771569
     26          6           0       -2.170506   -1.219051    1.654509
     27          1           0       -3.615493   -2.743453    2.149009
     28          1           0       -5.091681   -2.222821    0.216331
     29          1           0       -4.466332   -0.389897   -1.374081
     30          1           0       -0.909962    0.386273    0.899913
     31          1           0       -1.523711   -1.444120    2.497743
     32          7           0       -2.297036    1.154486   -1.243428
     33          8           0       -1.253098    1.765478   -1.025438
     34          8           0       -3.061113    1.370883   -2.181509
 ---------------------------------------------------------------------

 SCF Done:  E(RHF) =  -669.535378374     A.U. after   15 cycles
 E2 =    -0.2091768285D+01 EUMP2 =    -0.67162714665935D+03

 The electronic state is 1-A.
 Alpha  occ. eigenvalues --  -20.60798 -20.60792 -15.85843 -11.31224 -11.27793
 Alpha  occ. eigenvalues --  -11.27789 -11.27537 -11.26816 -11.26806 -11.21511
 Alpha  occ. eigenvalues --  -11.21459 -11.21279 -11.21174 -11.20985 -11.20849
 Alpha  occ. eigenvalues --   -1.59869  -1.39422  -1.19398  -1.08790  -1.08298
 Alpha  occ. eigenvalues --   -1.04806  -1.03401  -0.95837  -0.95622  -0.86846
 Alpha  occ. eigenvalues --   -0.86204  -0.82454  -0.79454  -0.78097  -0.77492
 Alpha  occ. eigenvalues --   -0.72063  -0.71189  -0.70516  -0.65051  -0.64999
 Alpha  occ. eigenvalues --   -0.64771  -0.62190  -0.60792  -0.59200  -0.57432
 Alpha  occ. eigenvalues --   -0.55335  -0.55111  -0.53131  -0.52914  -0.52536
 Alpha  occ. eigenvalues --   -0.52220  -0.49782  -0.48829  -0.48822  -0.47741
 Alpha  occ. eigenvalues --   -0.46495  -0.45617  -0.45571  -0.44818  -0.43650
 Alpha  occ. eigenvalues --   -0.37378  -0.36407
 Alpha virt. eigenvalues --    0.05016   0.11215   0.16527   0.19927   0.22924
 Alpha virt. eigenvalues --    0.23874   0.25962   0.27254   0.27658   0.27972
 Alpha virt. eigenvalues --    0.29328   0.30527   0.31498   0.31912   0.32066

 Mulliken charges:
               1
     1  C   -0.297959
     2  C   -0.301411
     3  C   -0.479001
     4  H    0.156712
     5  H    0.147733
     6  H    0.152796
     7  H    0.144578
     8  H    0.156063
     9  H    0.165088
    10  H    0.157431
    11  C   -0.298112
    12  C   -0.299420
    13  C   -0.475572
    14  H    0.149726
    15  H    0.145561
    16  H    0.154851
    17  H    0.151578
    18  H    0.153166
    19  H    0.155229
    20  H    0.160508
    21  C   -0.170307
    22  C   -0.219049
    23  C   -0.169522
    24  C    0.155015
    25  C   -0.179158
    26  C   -0.223495
    27  H    0.225789
    28  H    0.223633
    29  H    0.275820
    30  H    0.293104
    31  H    0.224111
    32  N    0.486877
    33  O   -0.462392
    34  O   -0.459969
 Sum of Mulliken charges =  -0.00000

 Dipole moment (field-independent basis, Debye):
    X=             -1.3035    Y=             -3.7020    Z=              3.1965  Tot=              5.0617
 Quadrupole moment (field-independent basis, Debye-Ang):
   XX=            -84.7773   YY=            -95.7593   ZZ=            -96.0336
   XY=             12.5877   XZ=             -6.4148   YZ=              1.3242

 Normal termination of Gaussian 16 at Thu May  6 08:50:28 2021.
