 Gaussian 16, Revision A.03,
 Gaussian 16:  EM64L-G16RevA.03 25-Dec-2016

 -------------
 #p 6-31g* mp2
 -------------

 ------------------------------------------------------
 Input file generated by CHIRIPA (05-May-2021 14:53:17)
 ------------------------------------------------------
 Symbolic Z-matrix:
 Charge =  0 Multiplicity = 1

                         Standard orientation:
 ---------------------------------------------------------------------
 Center     Atomic      Atomic             Coordinates (Angstroms)
 Number     Number       Type             X           Y           Z
 ---------------------------------------------------------------------
      1          6           0       -3.683813   -0.514241   -0.255201
      2          6           0       -4.834174   -1.390511    0.241593
      3          6           0       -4.560263   -2.883904    0.061194
      4          1           0       -3.499644   -0.729091   -1.316741
      5          1           0       -2.765433   -0.787142    0.282849
      6          1           0       -5.750407   -1.115090   -0.296251
      7          1           0       -5.015752   -1.173411    1.302023
      8          1           0       -3.661525   -3.179995    0.611831
      9          1           0       -4.400354   -3.121342   -0.995524
     10          1           0       -5.395418   -3.491810    0.422894
     11          6           0       -3.942777    0.981262   -0.081596
     12          6           0       -2.792416    1.857532   -0.578390
     13          6           0       -3.066326    3.350925   -0.397991
     14          1           0       -4.861157    1.254163   -0.619646
     15          1           0       -4.126946    1.196112    0.979944
     16          1           0       -2.610838    1.640432   -1.638821
     17          1           0       -1.876182    1.582111   -0.040546
     18          1           0       -3.226235    3.588363    0.658727
     19          1           0       -3.965064    3.647016   -0.948628
     20          1           0       -2.231172    3.958831   -0.759692
     21          6           0        0.531073   -0.275190    0.735138
     22          6           0        1.294514    0.845671    1.077705
     23          6           0        2.651784    0.907919    0.748326
     24          6           0        3.215806   -0.173462    0.073210
     25          6           0        2.481610   -1.304035   -0.281827
     26          6           0        1.126009   -1.344580    0.057660
     27          1           0       -0.522638   -0.315116    0.994934
     28          1           0        0.835135    1.677646    1.603856
     29          1           0        3.266141    1.763447    1.001416
     30          1           0        2.967537   -2.117872   -0.806195
     31          1           0        0.535557   -2.216334   -0.209652
     32          7           0        4.651804   -0.119051   -0.280839
     33          8           0        5.125072   -1.084850   -0.875723
     34          8           0        5.276879    0.888366    0.043245
 ---------------------------------------------------------------------

 SCF Done:  E(RHF) =  -669.535039910     A.U. after   15 cycles
 E2 =    -0.2092298428D+01 EUMP2 =    -0.67162733833787D+03

 The electronic state is 1-A.
 Alpha  occ. eigenvalues --  -20.60743 -20.60738 -15.85797 -11.31162 -11.27733
 Alpha  occ. eigenvalues --  -11.27728 -11.27441 -11.26749 -11.26727 -11.22558
 Alpha  occ. eigenvalues --  -11.22549 -11.22491 -11.22340 -11.21932 -11.21863
 Alpha  occ. eigenvalues --   -1.59819  -1.39372  -1.19335  -1.09435  -1.08728
 Alpha  occ. eigenvalues --   -1.04737  -1.04442  -0.96893  -0.95567  -0.87902
 Alpha  occ. eigenvalues --   -0.86134  -0.82403  -0.80507  -0.79272  -0.77443
 Alpha  occ. eigenvalues --   -0.72015  -0.71142  -0.70485  -0.66074  -0.64988
 Alpha  occ. eigenvalues --   -0.64731  -0.62094  -0.61835  -0.60252  -0.58506
 Alpha  occ. eigenvalues --   -0.56218  -0.55252  -0.53541  -0.53311  -0.53064
 Alpha  occ. eigenvalues --   -0.52827  -0.50841  -0.48822  -0.48775  -0.48767
 Alpha  occ. eigenvalues --   -0.47561  -0.46760  -0.46703  -0.44778  -0.44722
 Alpha  occ. eigenvalues --   -0.37285  -0.36340
 Alpha virt. eigenvalues --    0.05066   0.11246   0.16483   0.19064   0.22848
 Alpha virt. eigenvalues --    0.23083   0.25074   0.26202   0.26760   0.27126
 Alpha virt. eigenvalues --    0.30046   0.30405   0.30894   0.31169   0.31591

 Mulliken charges:
               1
     1  C   -0.301395
     2  C   -0.299834
     3  C   -0.476013
     4  H    0.153793
     5  H    0.138510
     6  H    0.156037
     7  H    0.153163
     8  H    0.151315
     9  H    0.156767
    10  H    0.164295
    11  C   -0.299518
    12  C   -0.302242
    13  C   -0.476658
    14  H    0.154352
    15  H    0.149513
    16  H    0.156628
    17  H    0.144462
    18  H    0.154393
    19  H    0.158740
    20  H    0.162913
    21  C   -0.173007
    22  C   -0.220558
    23  C   -0.170768
    24  C    0.158309
    25  C   -0.170920
    26  C   -0.221795
    27  H    0.233809
    28  H    0.223912
    29  H    0.275506
    30  H    0.275598
    31  H    0.223656
    32  N    0.488021
    33  O   -0.460481
    34  O   -0.460499
 Sum of Mulliken charges =  -0.00000

 Dipole moment (field-independent basis, Debye):
    X=             -5.2795    Y=             -0.1626    Z=              1.1529  Tot=              5.4063
 Quadrupole moment (field-independent basis, Debye-Ang):
   XX=           -126.7458   YY=            -91.6625   ZZ=            -93.4727
   XY=              0.6553   XZ=              4.5169   YZ=              1.8254

 Normal termination of Gaussian 16 at Thu May  6 18:59:06 2021.
