 Gaussian 16, Revision A.03,
 Gaussian 16:  EM64L-G16RevA.03 25-Dec-2016

 -------------
 #p 6-31g* mp2
 -------------

 ------------------------------------------------------
 Input file generated by CHIRIPA (05-May-2021 14:53:18)
 ------------------------------------------------------
 Symbolic Z-matrix:
 Charge =  0 Multiplicity = 1

                         Standard orientation:
 ---------------------------------------------------------------------
 Center     Atomic      Atomic             Coordinates (Angstroms)
 Number     Number       Type             X           Y           Z
 ---------------------------------------------------------------------
      1          6           0       -3.219218   -0.000002   -0.319132
      2          6           0       -3.895442   -0.774915    0.812334
      3          6           0       -4.412924   -2.142466    0.365332
      4          1           0       -3.932685    0.128261   -1.144638
      5          1           0       -2.386091   -0.596552   -0.715898
      6          1           0       -4.726181   -0.176484    1.207770
      7          1           0       -3.180343   -0.901181    1.635320
      8          1           0       -3.591532   -2.761241   -0.010212
      9          1           0       -5.146154   -2.032427   -0.440190
     10          1           0       -4.892593   -2.679276    1.189718
     11          6           0       -2.696648    1.369158    0.112200
     12          6           0       -2.020423    2.144071   -1.019266
     13          6           0       -1.502941    3.511622   -0.572264
     14          1           0       -3.529774    1.965709    0.508966
     15          1           0       -1.983181    1.240896    0.937706
     16          1           0       -2.735523    2.270337   -1.842252
     17          1           0       -1.189684    1.545641   -1.414703
     18          1           0       -0.769711    3.401584    0.233258
     19          1           0       -2.324333    4.130397   -0.196720
     20          1           0       -1.023272    4.048433   -1.396650
     21          6           0        4.022631    1.253198    0.569522
     22          6           0        2.768464    1.297247    1.187296
     23          6           0        1.812289    0.311881    0.923987
     24          6           0        2.145400   -0.707686    0.033588
     25          6           0        3.386257   -0.779057   -0.597656
     26          6           0        4.326988    0.217014   -0.319415
     27          1           0        4.759411    2.022811    0.779866
     28          1           0        2.529333    2.100777    1.878094
     29          1           0        0.833678    0.321733    1.388358
     30          1           0        3.595522   -1.592537   -1.281669
     31          1           0        5.300186    0.180262   -0.800643
     32          7           0        1.141315   -1.756515   -0.253070
     33          8           0        1.459364   -2.644217   -1.041402
     34          8           0        0.055277   -1.671025    0.316008
 ---------------------------------------------------------------------

 SCF Done:  E(RHF) =  -669.536509807     A.U. after   15 cycles
 E2 =    -0.2092294064D+01 EUMP2 =    -0.67162880387106D+03

 The electronic state is 1-A.
 Alpha  occ. eigenvalues --  -20.61046 -20.61041 -15.86067 -11.31349 -11.27909
 Alpha  occ. eigenvalues --  -11.27901 -11.27629 -11.26903 -11.26893 -11.21301
 Alpha  occ. eigenvalues --  -11.21059 -11.20885 -11.20603 -11.20313 -11.19986
 Alpha  occ. eigenvalues --   -1.60101  -1.39658  -1.19511  -1.08922  -1.07738
 Alpha  occ. eigenvalues --   -1.04900  -1.02881  -0.95772  -0.95346  -0.86371
 Alpha  occ. eigenvalues --   -0.86299  -0.82607  -0.79007  -0.77669  -0.77479
 Alpha  occ. eigenvalues --   -0.72300  -0.71412  -0.70618  -0.65175  -0.64907
 Alpha  occ. eigenvalues --   -0.64334  -0.62246  -0.60260  -0.58776  -0.56945
 Alpha  occ. eigenvalues --   -0.55404  -0.54633  -0.53228  -0.52991  -0.52091
 Alpha  occ. eigenvalues --   -0.51770  -0.49298  -0.49058  -0.49024  -0.47315
 Alpha  occ. eigenvalues --   -0.46049  -0.45336  -0.45043  -0.44572  -0.43112
 Alpha  occ. eigenvalues --   -0.37482  -0.36495
 Alpha virt. eigenvalues --    0.04814   0.11122   0.16289   0.20137   0.23007
 Alpha virt. eigenvalues --    0.24872   0.25906   0.27415   0.28042   0.28426
 Alpha virt. eigenvalues --    0.29338   0.31152   0.31989   0.32136   0.32533

 Mulliken charges:
               1
     1  C   -0.304793
     2  C   -0.297150
     3  C   -0.478287
     4  H    0.144034
     5  H    0.172270
     6  H    0.144687
     7  H    0.155096
     8  H    0.168016
     9  H    0.150365
    10  H    0.155864
    11  C   -0.296491
    12  C   -0.299889
    13  C   -0.473166
    14  H    0.146441
    15  H    0.143166
    16  H    0.152857
    17  H    0.152088
    18  H    0.145757
    19  H    0.155475
    20  H    0.158895
    21  C   -0.170258
    22  C   -0.218962
    23  C   -0.172467
    24  C    0.157386
    25  C   -0.170432
    26  C   -0.218542
    27  H    0.226400
    28  H    0.224531
    29  H    0.278394
    30  H    0.275933
    31  H    0.224074
    32  N    0.489134
    33  O   -0.458174
    34  O   -0.462252
 Sum of Mulliken charges =  -0.00000

 Dipole moment (field-independent basis, Debye):
    X=              3.7641    Y=              3.4764    Z=              0.9398  Tot=              5.2093
 Quadrupole moment (field-independent basis, Debye-Ang):
   XX=            -77.8500   YY=           -100.6747   ZZ=            -93.3245
   XY=              3.4176   XZ=              0.3495   YZ=              0.8489

 Normal termination of Gaussian 16 at Thu May  6 09:10:40 2021.
