 Gaussian 16, Revision A.03,
 Gaussian 16:  EM64L-G16RevA.03 25-Dec-2016

 -------------
 #p 6-31g* mp2
 -------------

 ------------------------------------------------------
 Input file generated by CHIRIPA (05-May-2021 14:53:18)
 ------------------------------------------------------
 Symbolic Z-matrix:
 Charge =  0 Multiplicity = 1

                         Standard orientation:
 ---------------------------------------------------------------------
 Center     Atomic      Atomic             Coordinates (Angstroms)
 Number     Number       Type             X           Y           Z
 ---------------------------------------------------------------------
      1          6           0        3.077910   -0.613990   -0.572152
      2          6           0        3.784059   -1.706538    0.231389
      3          6           0        3.553382   -3.104909   -0.342318
      4          1           0        2.000531   -0.827029   -0.600684
      5          1           0        3.430792   -0.647418   -1.612226
      6          1           0        3.430973   -1.670162    1.269956
      7          1           0        4.859857   -1.490769    0.258172
      8          1           0        3.922342   -3.164819   -1.371337
      9          1           0        2.485339   -3.345230   -0.353804
     10          1           0        4.067079   -3.870554    0.247396
     11          6           0        3.299071    0.789538   -0.010970
     12          6           0        2.592923    1.882086   -0.814511
     13          6           0        2.823600    3.280458   -0.240804
     14          1           0        2.946190    0.822966    1.029103
     15          1           0        4.376450    1.002577    0.017561
     16          1           0        1.517124    1.666318   -0.841294
     17          1           0        2.946008    1.845710   -1.853079
     18          1           0        3.891642    3.520778   -0.229318
     19          1           0        2.454639    3.340367    0.788215
     20          1           0        2.309902    4.046102   -0.830519
     21          6           0       -4.780469   -0.356107   -0.792815
     22          6           0       -3.986291   -1.476710   -0.528141
     23          6           0       -2.716159   -1.329286    0.037173
     24          6           0       -2.269672   -0.040776    0.326450
     25          6           0       -3.037296    1.095254    0.074499
     26          6           0       -4.304277    0.924040   -0.491182
     27          1           0       -5.765914   -0.479870   -1.232108
     28          1           0       -4.353521   -2.472098   -0.761354
     29          1           0       -2.080477   -2.179572    0.252443
     30          1           0       -2.643977    2.074772    0.317938
     31          1           0       -4.918860    1.796123   -0.695645
     32          7           0       -0.926708    0.127887    0.925117
     33          8           0       -0.556354    1.273818    1.170715
     34          8           0       -0.269877   -0.889039    1.137418
 ---------------------------------------------------------------------

 SCF Done:  E(RHF) =  -669.536911860     A.U. after   15 cycles
 E2 =    -0.2092695546D+01 EUMP2 =    -0.67162960740680D+03

 The electronic state is 1-A.
 Alpha  occ. eigenvalues --  -20.61225 -20.61214 -15.86200 -11.31429 -11.27978
 Alpha  occ. eigenvalues --  -11.27974 -11.27699 -11.26962 -11.26952 -11.20283
 Alpha  occ. eigenvalues --  -11.20154 -11.20037 -11.19859 -11.19790 -11.19777
 Alpha  occ. eigenvalues --   -1.60252  -1.39812  -1.19586  -1.09011  -1.06961
 Alpha  occ. eigenvalues --   -1.04967  -1.02194  -0.95867  -0.94662  -0.86372
 Alpha  occ. eigenvalues --   -0.85693  -0.82706  -0.78276  -0.77773  -0.76793
 Alpha  occ. eigenvalues --   -0.72429  -0.71560  -0.70695  -0.65244  -0.64973
 Alpha  occ. eigenvalues --   -0.63530  -0.62314  -0.59563  -0.58057  -0.56299
 Alpha  occ. eigenvalues --   -0.55476  -0.53929  -0.53302  -0.53056  -0.51425
 Alpha  occ. eigenvalues --   -0.51125  -0.49212  -0.49181  -0.48590  -0.46651
 Alpha  occ. eigenvalues --   -0.45580  -0.44836  -0.44333  -0.44167  -0.42420
 Alpha  occ. eigenvalues --   -0.37556  -0.36561
 Alpha virt. eigenvalues --    0.04693   0.11095   0.16166   0.21203   0.24389
 Alpha virt. eigenvalues --    0.25534   0.27163   0.27660   0.28476   0.28886
 Alpha virt. eigenvalues --    0.29201   0.30953   0.32038   0.32750   0.33081

 Mulliken charges:
               1
     1  C   -0.300494
     2  C   -0.298325
     3  C   -0.475364
     4  H    0.160710
     5  H    0.139569
     6  H    0.159502
     7  H    0.145990
     8  H    0.150059
     9  H    0.155978
    10  H    0.155705
    11  C   -0.298857
    12  C   -0.297744
    13  C   -0.475506
    14  H    0.163488
    15  H    0.141378
    16  H    0.156937
    17  H    0.142355
    18  H    0.149297
    19  H    0.163337
    20  H    0.152572
    21  C   -0.170184
    22  C   -0.218556
    23  C   -0.170482
    24  C    0.158286
    25  C   -0.170512
    26  C   -0.218575
    27  H    0.226588
    28  H    0.224414
    29  H    0.275923
    30  H    0.276293
    31  H    0.224405
    32  N    0.487638
    33  O   -0.457501
    34  O   -0.458321
 Sum of Mulliken charges =  -0.00000

 Dipole moment (field-independent basis, Debye):
    X=             -5.1980    Y=             -0.6076    Z=             -1.8582  Tot=              5.5535
 Quadrupole moment (field-independent basis, Debye-Ang):
   XX=            -74.3142   YY=            -91.6777   ZZ=            -96.9362
   XY=              0.8467   XZ=              3.7122   YZ=             -0.2008

 Normal termination of Gaussian 16 at Thu May  6 06:02:49 2021.
