 Gaussian 16, Revision A.03,
 Gaussian 16:  EM64L-G16RevA.03 25-Dec-2016

 -------------
 #p 6-31g* mp2
 -------------

 ------------------------------------------------------
 Input file generated by CHIRIPA (05-May-2021 14:57:23)
 ------------------------------------------------------
 Symbolic Z-matrix:
 Charge =  0 Multiplicity = 1

                         Standard orientation:
 ---------------------------------------------------------------------
 Center     Atomic      Atomic             Coordinates (Angstroms)
 Number     Number       Type             X           Y           Z
 ---------------------------------------------------------------------
      1          6           0       -2.141964    2.553746   -0.534509
      2          6           0       -3.237832    2.478650    0.331490
      3          6           0       -3.800162    1.241395    0.659413
      4          6           0       -3.238908    0.094170    0.100701
      5          6           0       -2.147220    0.136288   -0.765170
      6          6           0       -1.601109    1.384387   -1.079115
      7          1           0       -1.711433    3.519087   -0.783818
      8          1           0       -3.659938    3.385140    0.755928
      9          1           0       -4.648681    1.154404    1.327145
     10          1           0       -1.748261   -0.784729   -1.172574
     11          1           0       -0.750058    1.439682   -1.751944
     12          7           0       -3.825635   -1.221396    0.440460
     13          8           0       -3.312750   -2.217427   -0.065019
     14          8           0       -4.787288   -1.231596    1.205808
     15          6           0        4.720240    1.403094    0.923617
     16          6           0        4.665387    0.115744    1.467895
     17          6           0        3.794817   -0.842050    0.939417
     18          6           0        2.989650   -0.476703   -0.138319
     19          6           0        3.021319    0.797632   -0.702549
     20          6           0        3.899478    1.739338   -0.157961
     21          1           0        5.399466    2.140883    1.340409
     22          1           0        5.301638   -0.148193    2.307875
     23          1           0        3.732073   -1.845985    1.341409
     24          1           0        2.374815    1.031169   -1.539754
     25          1           0        3.939952    2.738345   -0.582686
     26          7           0        2.063999   -1.482160   -0.706322
     27          8           0        1.364994   -1.135325   -1.655919
     28          8           0        2.055007   -2.598035   -0.191171
 ---------------------------------------------------------------------

 SCF Done:  E(RHF) =  -868.338654568     A.U. after   16 cycles
 E2 =    -0.2599736455D+01 EUMP2 =    -0.87093839102301D+03

 The electronic state is 1-A.
 Alpha  occ. eigenvalues --  -20.61454 -20.61367 -20.60085 -20.60043 -15.86440
 Alpha  occ. eigenvalues --  -15.85119 -11.31729 -11.30514 -11.28360 -11.28232
 Alpha  occ. eigenvalues --  -11.27994 -11.27316 -11.27235 -11.27186 -11.26977
 Alpha  occ. eigenvalues --  -11.26940 -11.26237 -11.26100  -1.60457  -1.59146
 Alpha  occ. eigenvalues --   -1.40021  -1.38693  -1.19887  -1.18726  -1.09290
 Alpha  occ. eigenvalues --   -1.08144  -1.05286  -1.04110  -0.96143  -0.94951
 Alpha  occ. eigenvalues --   -0.86686  -0.85530  -0.82987  -0.81760  -0.78052
 Alpha  occ. eigenvalues --   -0.76775  -0.72664  -0.71765  -0.71334  -0.71000
 Alpha  occ. eigenvalues --   -0.70474  -0.69853  -0.65547  -0.65292  -0.64375
 Alpha  occ. eigenvalues --   -0.64129  -0.62645  -0.61414  -0.55776  -0.54697
 Alpha  occ. eigenvalues --   -0.53606  -0.53384  -0.52486  -0.52196  -0.49426
 Alpha  occ. eigenvalues --   -0.49386  -0.48115  -0.48076  -0.45437  -0.44089
 Alpha  occ. eigenvalues --   -0.37847  -0.36887  -0.36774  -0.35721
 Alpha virt. eigenvalues --    0.04454   0.05728   0.10752   0.11908   0.15953
 Alpha virt. eigenvalues --    0.17170   0.20206   0.22046   0.25447   0.27202
 Alpha virt. eigenvalues --    0.28727   0.28989   0.30402   0.31227   0.32745

 Mulliken charges:
               1
     1  C   -0.171775
     2  C   -0.219512
     3  C   -0.171619
     4  C    0.157590
     5  C   -0.174604
     6  C   -0.223431
     7  H    0.219602
     8  H    0.219828
     9  H    0.273497
    10  H    0.293626
    11  H    0.225169
    12  N    0.487419
    13  O   -0.454450
    14  O   -0.464720
    15  C   -0.170204
    16  C   -0.218145
    17  C   -0.169641
    18  C    0.159754
    19  C   -0.171185
    20  C   -0.218340
    21  H    0.227143
    22  H    0.225953
    23  H    0.278538
    24  H    0.268991
    25  H    0.222499
    26  N    0.489720
    27  O   -0.471538
    28  O   -0.450163
 Sum of Mulliken charges =  -0.00000

 Dipole moment (field-independent basis, Debye):
    X=              5.6692    Y=              7.8367    Z=              0.8653  Tot=              9.7110
 Quadrupole moment (field-independent basis, Debye-Ang):
   XX=            -96.9128   YY=           -104.9857   ZZ=           -102.7417
   XY=             -8.4119   XZ=              9.4281   YZ=             -2.1099

 Normal termination of Gaussian 16 at Fri May  7 12:32:29 2021.
