 Gaussian 16, Revision A.03,
 Gaussian 16:  EM64L-G16RevA.03 25-Dec-2016

 -------------
 #p 6-31g* mp2
 -------------

 ------------------------------------------------------
 Input file generated by CHIRIPA (05-May-2021 14:55:24)
 ------------------------------------------------------
 Symbolic Z-matrix:
 Charge =  0 Multiplicity = 1

                         Standard orientation:
 ---------------------------------------------------------------------
 Center     Atomic      Atomic             Coordinates (Angstroms)
 Number     Number       Type             X           Y           Z
 ---------------------------------------------------------------------
      1          6           0       -2.853162    1.700304    0.299663
      2          6           0       -1.945942    1.275478    1.275878
      3          6           0       -1.349275    0.014081    1.189780
      4          6           0       -1.684199   -0.800401    0.109162
      5          6           0       -2.584381   -0.405651   -0.879339
      6          6           0       -3.168930    0.859865   -0.772939
      7          1           0       -3.311960    2.681787    0.374431
      8          1           0       -1.698834    1.926059    2.109981
      9          1           0       -0.643669   -0.339965    1.931528
     10          1           0       -2.810912   -1.076469   -1.699159
     11          1           0       -3.873146    1.187153   -1.532549
     12          7           0       -1.058949   -2.137966    0.007268
     13          8           0       -1.370733   -2.836709   -0.954598
     14          8           0       -0.268934   -2.462279    0.891198
     15          6           0        1.962148    1.310477   -0.554523
     16          6           0        1.833505    2.606530    0.246529
     17          6           0        1.180392    3.733787   -0.553801
     18          1           0        2.548949    1.504935   -1.462705
     19          1           0        0.964514    0.993696   -0.888842
     20          1           0        2.830929    2.920029    0.580411
     21          1           0        1.247105    2.408920    1.153005
     22          1           0        0.174034    3.445612   -0.874423
     23          1           0        1.766858    3.959625   -1.450271
     24          1           0        1.098351    4.650872    0.037878
     25          6           0        2.613206    0.174205    0.232077
     26          6           0        2.741849   -1.121848   -0.568974
     27          6           0        3.394961   -2.249105    0.231356
     28          1           0        3.610840    0.490986    0.566397
     29          1           0        2.026404   -0.020253    1.140260
     30          1           0        3.328250   -0.924238   -1.475451
     31          1           0        1.744424   -1.435347   -0.902857
     32          1           0        2.808495   -2.474943    1.127824
     33          1           0        4.401320   -1.960930    0.551977
     34          1           0        3.477002   -3.166190   -0.360324
 ---------------------------------------------------------------------

 SCF Done:  E(RHF) =  -669.535809677     A.U. after   15 cycles
 E2 =    -0.2095756016D+01 EUMP2 =    -0.67163156569310D+03

 The electronic state is 1-A.
 Alpha  occ. eigenvalues --  -20.61035 -20.61029 -15.86049 -11.31388 -11.27952
 Alpha  occ. eigenvalues --  -11.27945 -11.27683 -11.26957 -11.26943 -11.21724
 Alpha  occ. eigenvalues --  -11.21299 -11.21206 -11.20985 -11.20806 -11.19972
 Alpha  occ. eigenvalues --   -1.60094  -1.39647  -1.19562  -1.08959  -1.08145
 Alpha  occ. eigenvalues --   -1.04951  -1.03146  -0.95799  -0.95600  -0.86629
 Alpha  occ. eigenvalues --   -0.86347  -0.82630  -0.79297  -0.77920  -0.77662
 Alpha  occ. eigenvalues --   -0.72283  -0.71453  -0.70656  -0.65216  -0.64952
 Alpha  occ. eigenvalues --   -0.64780  -0.62286  -0.60531  -0.59064  -0.57191
 Alpha  occ. eigenvalues --   -0.55446  -0.54906  -0.53245  -0.53034  -0.52300
 Alpha  occ. eigenvalues --   -0.52034  -0.49576  -0.49038  -0.49017  -0.47576
 Alpha  occ. eigenvalues --   -0.46344  -0.45495  -0.45319  -0.44923  -0.43419
 Alpha  occ. eigenvalues --   -0.37513  -0.36515
 Alpha virt. eigenvalues --    0.04776   0.11035   0.16190   0.20368   0.23077
 Alpha virt. eigenvalues --    0.24368   0.25529   0.26832   0.27747   0.28375
 Alpha virt. eigenvalues --    0.29499   0.30085   0.31570   0.31715   0.32116

 Mulliken charges:
               1
     1  C   -0.171251
     2  C   -0.217076
     3  C   -0.170038
     4  C    0.157162
     5  C   -0.171204
     6  C   -0.218551
     7  H    0.227235
     8  H    0.225151
     9  H    0.276809
    10  H    0.276446
    11  H    0.224597
    12  N    0.488006
    13  O   -0.457980
    14  O   -0.459136
    15  C   -0.300505
    16  C   -0.296168
    17  C   -0.477204
    18  H    0.149932
    19  H    0.150035
    20  H    0.152798
    21  H    0.142334
    22  H    0.153226
    23  H    0.157027
    24  H    0.156489
    25  C   -0.300459
    26  C   -0.296405
    27  C   -0.476173
    28  H    0.147951
    29  H    0.146893
    30  H    0.147261
    31  H    0.155463
    32  H    0.168815
    33  H    0.146594
    34  H    0.161923
 Sum of Mulliken charges =  -0.00000

 Dipole moment (field-independent basis, Debye):
    X=             -2.3978    Y=              4.4910    Z=              0.3643  Tot=              5.1040
 Quadrupole moment (field-independent basis, Debye-Ang):
   XX=            -86.1495   YY=           -103.6205   ZZ=            -91.4275
   XY=             -5.4224   XZ=              1.1462   YZ=              1.2939

 Normal termination of Gaussian 16 at Thu May  6 03:10:39 2021.
