 Gaussian 16, Revision A.03,
 Gaussian 16:  EM64L-G16RevA.03 25-Dec-2016

 -------------
 #p 6-31g* mp2
 -------------

 ------------------------------------------------------
 Input file generated by CHIRIPA (05-May-2021 14:53:15)
 ------------------------------------------------------
 Symbolic Z-matrix:
 Charge =  0 Multiplicity = 1

                         Standard orientation:
 ---------------------------------------------------------------------
 Center     Atomic      Atomic             Coordinates (Angstroms)
 Number     Number       Type             X           Y           Z
 ---------------------------------------------------------------------
      1          6           0        3.939626    0.954884   -0.078663
      2          6           0        2.839620    1.154342    0.964500
      3          6           0        1.965870    2.375492    0.676147
      4          1           0        4.567259    1.855735   -0.117240
      5          1           0        3.479665    0.851654   -1.071223
      6          1           0        3.301441    1.255781    1.954979
      7          1           0        2.214648    0.252836    1.000734
      8          1           0        1.478508    2.278764   -0.299416
      9          1           0        2.571476    3.287407    0.660250
     10          1           0        1.186130    2.499233    1.434140
     11          6           0        4.821479   -0.261944    0.195919
     12          6           0        5.921484   -0.461402   -0.847245
     13          6           0        6.795234   -1.682552   -0.558891
     14          1           0        5.281439   -0.158714    1.188479
     15          1           0        4.193845   -1.162795    0.234496
     16          1           0        6.546456    0.440104   -0.883479
     17          1           0        5.459663   -0.562841   -1.837723
     18          1           0        6.189628   -2.594467   -0.542994
     19          1           0        7.282596   -1.585824    0.416672
     20          1           0        7.574974   -1.806293   -1.316884
     21          6           0       -0.972804   -0.708046    0.372010
     22          6           0       -1.931719   -1.632599    0.798864
     23          6           0       -3.291721   -1.400624    0.572738
     24          6           0       -3.659115   -0.228397   -0.086196
     25          6           0       -2.727527    0.711893   -0.523561
     26          6           0       -1.373062    0.459191   -0.286678
     27          1           0        0.081529   -0.896300    0.551848
     28          1           0       -1.623777   -2.539949    1.310657
     29          1           0       -4.055085   -2.099497    0.892533
     30          1           0       -3.065095    1.607341   -1.031143
     31          1           0       -0.630556    1.178980   -0.619296
     32          7           0       -5.095958    0.028156   -0.331279
     33          8           0       -5.393802    1.068526   -0.913994
     34          8           0       -5.897101   -0.815985    0.063980
 ---------------------------------------------------------------------

 SCF Done:  E(RHF) =  -669.534996535     A.U. after   15 cycles
 E2 =    -0.2091976987D+01 EUMP2 =    -0.67162697352137D+03

 The electronic state is 1-A.
 Alpha  occ. eigenvalues --  -20.60718 -20.60713 -15.85770 -11.31126 -11.27694
 Alpha  occ. eigenvalues --  -11.27678 -11.27415 -11.26711 -11.26652 -11.22860
 Alpha  occ. eigenvalues --  -11.22381 -11.22324 -11.22300 -11.22222 -11.21660
 Alpha  occ. eigenvalues --   -1.59794  -1.39348  -1.19294  -1.09391  -1.08691
 Alpha  occ. eigenvalues --   -1.04700  -1.04478  -0.96919  -0.95529  -0.87941
 Alpha  occ. eigenvalues --   -0.86091  -0.82367  -0.80564  -0.79162  -0.77412
 Alpha  occ. eigenvalues --   -0.71989  -0.71117  -0.70432  -0.66064  -0.64943
 Alpha  occ. eigenvalues --   -0.64719  -0.62187  -0.61732  -0.60292  -0.58511
 Alpha  occ. eigenvalues --   -0.56214  -0.55234  -0.53622  -0.53337  -0.53017
 Alpha  occ. eigenvalues --   -0.52780  -0.50832  -0.48857  -0.48749  -0.48744
 Alpha  occ. eigenvalues --   -0.47592  -0.46706  -0.46609  -0.44755  -0.44712
 Alpha  occ. eigenvalues --   -0.37273  -0.36296
 Alpha virt. eigenvalues --    0.05117   0.11321   0.16601   0.18652   0.22605
 Alpha virt. eigenvalues --    0.23885   0.24449   0.25493   0.26763   0.28341
 Alpha virt. eigenvalues --    0.28801   0.29731   0.30844   0.31687   0.31897

 Mulliken charges:
               1
     1  C   -0.298696
     2  C   -0.304068
     3  C   -0.481139
     4  H    0.153968
     5  H    0.148848
     6  H    0.158532
     7  H    0.143437
     8  H    0.148392
     9  H    0.163137
    10  H    0.165336
    11  C   -0.298198
    12  C   -0.300364
    13  C   -0.476160
    14  H    0.151766
    15  H    0.146371
    16  H    0.153867
    17  H    0.152681
    18  H    0.155036
    19  H    0.156242
    20  H    0.162628
    21  C   -0.177391
    22  C   -0.219463
    23  C   -0.171117
    24  C    0.158722
    25  C   -0.172535
    26  C   -0.224328
    27  H    0.231867
    28  H    0.223446
    29  H    0.275273
    30  H    0.275831
    31  H    0.231299
    32  N    0.487959
    33  O   -0.460519
    34  O   -0.460661
 Sum of Mulliken charges =  -0.00000

 Dipole moment (field-independent basis, Debye):
    X=              5.3432    Y=             -0.8128    Z=              0.9026  Tot=              5.4796
 Quadrupole moment (field-independent basis, Debye-Ang):
   XX=           -131.2360   YY=            -90.8948   ZZ=            -94.2334
   XY=              4.5369   XZ=             -3.8340   YZ=             -1.8510

 Normal termination of Gaussian 16 at Thu May  6 13:50:18 2021.
