 Gaussian 16, Revision A.03,
 Gaussian 16:  EM64L-G16RevA.03 25-Dec-2016

 -------------
 #p 6-31g* mp2
 -------------

 ------------------------------------------------------
 Input file generated by CHIRIPA (05-May-2021 14:55:25)
 ------------------------------------------------------
 Symbolic Z-matrix:
 Charge =  0 Multiplicity = 1

                         Standard orientation:
 ---------------------------------------------------------------------
 Center     Atomic      Atomic             Coordinates (Angstroms)
 Number     Number       Type             X           Y           Z
 ---------------------------------------------------------------------
      1          6           0        2.537737    2.272415   -0.161091
      2          6           0        1.528923    1.305486   -0.223252
      3          6           0        1.844326   -0.054922   -0.157240
      4          6           0        3.184997   -0.414549   -0.028559
      5          6           0        4.212682    0.525122    0.036036
      6          6           0        3.874041    1.879839   -0.031873
      7          1           0        2.283699    3.327003   -0.213107
      8          1           0        0.490274    1.607452   -0.323599
      9          1           0        1.083259   -0.824402   -0.203015
     10          1           0        5.239016    0.193402    0.136126
     11          1           0        4.659588    2.628576    0.016649
     12          7           0        3.531201   -1.851740    0.042329
     13          8           0        4.719968   -2.142649    0.155646
     14          8           0        2.607232   -2.660088   -0.016769
     15          6           0       -4.120987   -0.500251    0.251922
     16          6           0       -5.372891   -1.109218   -0.380438
     17          6           0       -5.593905   -2.565402    0.030018
     18          1           0       -3.245500   -1.099829   -0.032636
     19          1           0       -4.202396   -0.565537    1.345771
     20          1           0       -5.289767   -1.041549   -1.472742
     21          1           0       -6.245476   -0.508009   -0.094498
     22          1           0       -5.702760   -2.647177    1.116325
     23          1           0       -4.741621   -3.183749   -0.269749
     24          1           0       -6.494161   -2.980921   -0.433387
     25          6           0       -3.886537    0.955119   -0.148902
     26          6           0       -2.634632    1.564086    0.483459
     27          6           0       -2.413619    3.020270    0.073002
     28          1           0       -3.805128    1.020406   -1.242750
     29          1           0       -4.762024    1.554697    0.135656
     30          1           0       -1.762049    0.962877    0.197519
     31          1           0       -2.717757    1.496418    1.575763
     32          1           0       -3.265902    3.638617    0.372769
     33          1           0       -2.304764    3.102045   -1.013306
     34          1           0       -1.513364    3.435789    0.536407
 ---------------------------------------------------------------------

 SCF Done:  E(RHF) =  -669.535443996     A.U. after   15 cycles
 E2 =    -0.2091392494D+01 EUMP2 =    -0.67162683649052D+03

 The electronic state is 1-A.
 Alpha  occ. eigenvalues --  -20.60733 -20.60728 -15.85786 -11.31143 -11.27709
 Alpha  occ. eigenvalues --  -11.27701 -11.27441 -11.26726 -11.26668 -11.22598
 Alpha  occ. eigenvalues --  -11.22145 -11.22060 -11.21931 -11.21835 -11.21256
 Alpha  occ. eigenvalues --   -1.59809  -1.39363  -1.19310  -1.09058  -1.08706
 Alpha  occ. eigenvalues --   -1.04715  -1.04169  -0.96606  -0.95544  -0.87620
 Alpha  occ. eigenvalues --   -0.86110  -0.82381  -0.80263  -0.78811  -0.77427
 Alpha  occ. eigenvalues --   -0.72005  -0.71132  -0.70422  -0.65738  -0.64961
 Alpha  occ. eigenvalues --   -0.64718  -0.62168  -0.61475  -0.60005  -0.58195
 Alpha  occ. eigenvalues --   -0.55884  -0.55204  -0.53331  -0.53045  -0.53024
 Alpha  occ. eigenvalues --   -0.52770  -0.50543  -0.48765  -0.48760  -0.48555
 Alpha  occ. eigenvalues --   -0.47294  -0.46355  -0.46244  -0.44770  -0.44405
 Alpha  occ. eigenvalues --   -0.37291  -0.36312
 Alpha virt. eigenvalues --    0.05104   0.11325   0.16587   0.19246   0.22765
 Alpha virt. eigenvalues --    0.23768   0.25053   0.26412   0.26607   0.28402
 Alpha virt. eigenvalues --    0.29069   0.30447   0.30978   0.31328   0.32013

 Mulliken charges:
               1
     1  C   -0.172453
     2  C   -0.226858
     3  C   -0.173224
     4  C    0.158814
     5  C   -0.171322
     6  C   -0.218381
     7  H    0.225820
     8  H    0.236622
     9  H    0.274714
    10  H    0.275412
    11  H    0.223177
    12  N    0.488112
    13  O   -0.460622
    14  O   -0.460614
    15  C   -0.299027
    16  C   -0.300255
    17  C   -0.476424
    18  H    0.149978
    19  H    0.151448
    20  H    0.152522
    21  H    0.152334
    22  H    0.156038
    23  H    0.157582
    24  H    0.161517
    25  C   -0.298342
    26  C   -0.303208
    27  C   -0.479932
    28  H    0.150408
    29  H    0.152419
    30  H    0.143228
    31  H    0.157735
    32  H    0.162391
    33  H    0.155740
    34  H    0.154652
 Sum of Mulliken charges =  -0.00000

 Dipole moment (field-independent basis, Debye):
    X=             -1.4557    Y=              5.0539    Z=             -0.2214  Tot=              5.2640
 Quadrupole moment (field-independent basis, Debye-Ang):
   XX=            -96.6907   YY=           -100.1464   ZZ=            -94.9855
   XY=             17.6134   XZ=             -0.8126   YZ=              0.5714

 Normal termination of Gaussian 16 at Wed May  5 20:48:57 2021.
