 Gaussian 16, Revision A.03,
 Gaussian 16:  EM64L-G16RevA.03 25-Dec-2016

 -------------
 #p 6-31g* mp2
 -------------

 ------------------------------------------------------
 Input file generated by CHIRIPA (05-May-2021 14:51:07)
 ------------------------------------------------------
 Symbolic Z-matrix:
 Charge =  0 Multiplicity = 1

                         Standard orientation:
 ---------------------------------------------------------------------
 Center     Atomic      Atomic             Coordinates (Angstroms)
 Number     Number       Type             X           Y           Z
 ---------------------------------------------------------------------
      1          6           0       -2.052077    1.340970   -0.250703
      2          6           0       -2.274972    2.457390    0.770036
      3          6           0       -1.374441    3.668928    0.527112
      4          1           0       -0.999122    1.029115   -0.219452
      5          1           0       -2.231334    1.735665   -1.260396
      6          1           0       -2.096695    2.060347    1.777602
      7          1           0       -3.327563    2.766492    0.736486
      8          1           0       -1.557227    4.091833   -0.466036
      9          1           0       -0.319366    3.381675    0.580996
     10          1           0       -1.550332    4.454912    1.268160
     11          6           0       -2.945094    0.122978   -0.021041
     12          6           0       -2.722199   -0.993442   -1.041780
     13          6           0       -3.622731   -2.204980   -0.798856
     14          1           0       -2.765838   -0.271716    0.988652
     15          1           0       -3.998049    0.434834   -0.052292
     16          1           0       -1.669609   -1.302543   -1.008230
     17          1           0       -2.900477   -0.596398   -2.049346
     18          1           0       -4.677806   -1.917727   -0.852740
     19          1           0       -3.439945   -2.627884    0.194292
     20          1           0       -3.446839   -2.990963   -1.539904
     21          6           0        1.869921   -0.956155    0.507297
     22          6           0        1.617956   -2.461717    0.419091
     23          6           0        0.356700   -2.894831    1.167048
     24          1           0        1.950395   -0.665565    1.563718
     25          1           0        0.999999   -0.421455    0.101432
     26          1           0        2.488676   -2.993440    0.823730
     27          1           0        1.538265   -2.748788   -0.637250
     28          1           0       -0.525347   -2.390642    0.759143
     29          1           0        0.430465   -2.636683    2.228424
     30          1           0        0.195712   -3.974716    1.090941
     31          6           0        3.127250   -0.507793   -0.235553
     32          6           0        3.379216    0.997768   -0.147347
     33          6           0        4.640471    1.430883   -0.895304
     34          1           0        3.997172   -1.042493    0.170312
     35          1           0        3.046777   -0.798383   -1.291974
     36          1           0        3.458907    1.284839    0.908995
     37          1           0        2.508496    1.529491   -0.551985
     38          1           0        4.566707    1.172735   -1.956680
     39          1           0        5.522519    0.926692   -0.487399
     40          1           0        4.801458    2.510768   -0.819196
 ---------------------------------------------------------------------

 SCF Done:  E(RHF) =  -470.732956395     A.U. after   11 cycles
 E2 =    -0.1584530639D+01 EUMP2 =    -0.47231748703387D+03

 The electronic state is 1-A.
 Alpha  occ. eigenvalues --  -11.21656 -11.21645 -11.21633 -11.21602 -11.21460
 Alpha  occ. eigenvalues --  -11.21424 -11.21398 -11.21364 -11.21095 -11.21094
 Alpha  occ. eigenvalues --  -11.21083 -11.21067  -1.08507  -1.08434  -1.03599
 Alpha  occ. eigenvalues --   -1.03524  -0.96041  -0.95975  -0.87048  -0.87000
 Alpha  occ. eigenvalues --   -0.79656  -0.79596  -0.78395  -0.78186  -0.65373
 Alpha  occ. eigenvalues --   -0.64871  -0.61219  -0.60734  -0.59394  -0.59350
 Alpha  occ. eigenvalues --   -0.57667  -0.57572  -0.55483  -0.55111  -0.52711
 Alpha  occ. eigenvalues --   -0.52684  -0.52488  -0.52374  -0.50061  -0.49832
 Alpha  occ. eigenvalues --   -0.48045  -0.47845  -0.46796  -0.46584  -0.46285
 Alpha  occ. eigenvalues --   -0.45811  -0.45757  -0.45163  -0.43828  -0.43797
 Alpha virt. eigenvalues --    0.19381   0.22233   0.23489   0.24592   0.25333
 Alpha virt. eigenvalues --    0.26598   0.27098   0.27535   0.28555   0.29923
 Alpha virt. eigenvalues --    0.30983   0.31270   0.31636   0.31794   0.32237

 Mulliken charges:
               1
     1  C   -0.306155
     2  C   -0.299109
     3  C   -0.476512
     4  H    0.156232
     5  H    0.149456
     6  H    0.152385
     7  H    0.151956
     8  H    0.154972
     9  H    0.156010
    10  H    0.160346
    11  C   -0.299143
    12  C   -0.304763
    13  C   -0.476764
    14  H    0.150619
    15  H    0.150209
    16  H    0.154116
    17  H    0.152807
    18  H    0.155489
    19  H    0.156716
    20  H    0.160427
    21  C   -0.307973
    22  C   -0.299030
    23  C   -0.483537
    24  H    0.149673
    25  H    0.157210
    26  H    0.152477
    27  H    0.152010
    28  H    0.162870
    29  H    0.155004
    30  H    0.160842
    31  C   -0.297662
    32  C   -0.300691
    33  C   -0.475717
    34  H    0.149898
    35  H    0.149926
    36  H    0.151943
    37  H    0.152204
    38  H    0.155409
    39  H    0.155298
    40  H    0.160551
 Sum of Mulliken charges =  -0.00000

 Dipole moment (field-independent basis, Debye):
    X=              0.0015    Y=             -0.0048    Z=              0.0027  Tot=              0.0058
 Quadrupole moment (field-independent basis, Debye-Ang):
   XX=            -84.9688   YY=            -85.7043   ZZ=            -83.9418
   XY=             -1.3101   XZ=              1.3354   YZ=             -0.0762

 Normal termination of Gaussian 16 at Wed May  5 15:01:21 2021.
