 Gaussian 16, Revision A.03,
 Gaussian 16:  EM64L-G16RevA.03 25-Dec-2016

 -------------
 #p 6-31g* mp2
 -------------

 ------------------------------------------------------
 Input file generated by CHIRIPA (05-May-2021 14:51:11)
 ------------------------------------------------------
 Symbolic Z-matrix:
 Charge =  0 Multiplicity = 1

                         Standard orientation:
 ---------------------------------------------------------------------
 Center     Atomic      Atomic             Coordinates (Angstroms)
 Number     Number       Type             X           Y           Z
 ---------------------------------------------------------------------
      1          6           0        2.535841   -0.534937   -0.208061
      2          6           0        2.536452   -2.063241   -0.255721
      3          6           0        1.148430   -2.646957   -0.521174
      4          1           0        1.839795   -0.199060    0.572741
      5          1           0        2.149210   -0.145506   -1.160036
      6          1           0        2.924264   -2.449655    0.695543
      7          1           0        3.232721   -2.395522   -1.036371
      8          1           0        0.756949   -2.289516   -1.479078
      9          1           0        0.446739   -2.343956    0.262676
     10          1           0        1.171918   -3.740761   -0.551179
     11          6           0        3.916290    0.063472    0.056504
     12          6           0        3.915679    1.591776    0.104164
     13          6           0        5.303701    2.175492    0.369617
     14          1           0        4.302920   -0.325958    1.008479
     15          1           0        4.612336   -0.272405   -0.724298
     16          1           0        3.219410    1.924058    0.884814
     17          1           0        3.527867    1.978190   -0.847100
     18          1           0        6.005392    1.872492   -0.414233
     19          1           0        5.695182    1.818051    1.327521
     20          1           0        5.280212    3.269297    0.399622
     21          6           0       -3.361161    0.927296    0.370600
     22          6           0       -3.474204    2.025801   -0.686989
     23          6           0       -3.744545    3.403592   -0.081678
     24          1           0       -4.289070    0.895686    0.957907
     25          1           0       -2.555765    1.184992    1.072259
     26          1           0       -4.278230    1.765428   -1.387250
     27          1           0       -2.545991    2.054672   -1.271972
     28          1           0       -2.938499    3.688867    0.602067
     29          1           0       -4.680579    3.397980    0.486133
     30          1           0       -3.821679    4.173879   -0.855351
     31          6           0       -3.090970   -0.455832   -0.219043
     32          6           0       -2.977927   -1.554336    0.838546
     33          6           0       -2.707586   -2.932128    0.233235
     34          1           0       -3.896366   -0.713527   -0.920702
     35          1           0       -2.163060   -0.424222   -0.806350
     36          1           0       -3.906139   -1.583208    1.423528
     37          1           0       -2.173901   -1.293964    1.538807
     38          1           0       -1.771551   -2.926516   -0.334576
     39          1           0       -3.513632   -3.217403   -0.450510
     40          1           0       -2.630453   -3.702414    1.006907
 ---------------------------------------------------------------------

 SCF Done:  E(RHF) =  -470.732894819     A.U. after   11 cycles
 E2 =    -0.1582986846D+01 EUMP2 =    -0.47231588166514D+03

 The electronic state is 1-A.
 Alpha  occ. eigenvalues --  -11.21655 -11.21643 -11.21573 -11.21548 -11.21463
 Alpha  occ. eigenvalues --  -11.21401 -11.21361 -11.21298 -11.21136 -11.21102
 Alpha  occ. eigenvalues --  -11.21050 -11.20888  -1.08486  -1.08381  -1.03597
 Alpha  occ. eigenvalues --   -1.03463  -0.96068  -0.95891  -0.87106  -0.86893
 Alpha  occ. eigenvalues --   -0.79697  -0.79500  -0.78304  -0.78190  -0.65133
 Alpha  occ. eigenvalues --   -0.65004  -0.61075  -0.60811  -0.59403  -0.59287
 Alpha  occ. eigenvalues --   -0.57674  -0.57509  -0.55461  -0.55103  -0.52764
 Alpha  occ. eigenvalues --   -0.52604  -0.52528  -0.52247  -0.50060  -0.49758
 Alpha  occ. eigenvalues --   -0.48063  -0.47752  -0.46688  -0.46544  -0.45892
 Alpha  occ. eigenvalues --   -0.45768  -0.45694  -0.45594  -0.43833  -0.43729
 Alpha virt. eigenvalues --    0.21154   0.23069   0.23734   0.24843   0.26046
 Alpha virt. eigenvalues --    0.26391   0.27267   0.27586   0.28052   0.29162
 Alpha virt. eigenvalues --    0.30383   0.30986   0.31638   0.31819   0.32252

 Mulliken charges:
               1
     1  C   -0.298350
     2  C   -0.300611
     3  C   -0.479673
     4  H    0.149130
     5  H    0.149330
     6  H    0.152282
     7  H    0.152185
     8  H    0.154901
     9  H    0.159195
    10  H    0.161564
    11  C   -0.298296
    12  C   -0.299668
    13  C   -0.475744
    14  H    0.149709
    15  H    0.149885
    16  H    0.151814
    17  H    0.151938
    18  H    0.155285
    19  H    0.155272
    20  H    0.160391
    21  C   -0.298107
    22  C   -0.299639
    23  C   -0.475664
    24  H    0.149507
    25  H    0.149162
    26  H    0.151832
    27  H    0.152034
    28  H    0.155123
    29  H    0.155100
    30  H    0.160136
    31  C   -0.298913
    32  C   -0.299916
    33  C   -0.483743
    34  H    0.149429
    35  H    0.150531
    36  H    0.151800
    37  H    0.150468
    38  H    0.167038
    39  H    0.154233
    40  H    0.159050
 Sum of Mulliken charges =  -0.00000

 Dipole moment (field-independent basis, Debye):
    X=              0.0505    Y=             -0.0182    Z=             -0.0185  Tot=              0.0568
 Quadrupole moment (field-independent basis, Debye-Ang):
   XX=            -84.7585   YY=            -86.1921   ZZ=            -83.8975
   XY=             -0.2306   XZ=             -0.1847   YZ=             -0.3896

 Normal termination of Gaussian 16 at Thu May  6 05:27:44 2021.
