 Gaussian 16, Revision A.03,
 Gaussian 16:  EM64L-G16RevA.03 25-Dec-2016

 -------------
 #p 6-31g* mp2
 -------------

 ------------------------------------------------------
 Input file generated by CHIRIPA (05-May-2021 14:55:22)
 ------------------------------------------------------
 Symbolic Z-matrix:
 Charge =  0 Multiplicity = 1

                         Standard orientation:
 ---------------------------------------------------------------------
 Center     Atomic      Atomic             Coordinates (Angstroms)
 Number     Number       Type             X           Y           Z
 ---------------------------------------------------------------------
      1          6           0        3.911594   -2.156543    0.050700
      2          6           0        4.285881   -1.279497   -0.972638
      3          6           0        3.846566    0.047722   -0.966316
      4          6           0        3.030362    0.466174    0.083446
      5          6           0        2.640285   -0.383604    1.117373
      6          6           0        3.091436   -1.706591    1.090606
      7          1           0        4.257463   -3.185915    0.037847
      8          1           0        4.922740   -1.626176   -1.781508
      9          1           0        4.121179    0.747917   -1.745887
     10          1           0        2.004516   -0.008931    1.910365
     11          1           0        2.799172   -2.385493    1.886671
     12          7           0        2.559013    1.869001    0.100961
     13          8           0        1.840711    2.213101    1.037056
     14          8           0        2.916797    2.597874   -0.821737
     15          6           0       -4.561773    0.133555    0.130035
     16          6           0       -5.919915   -0.352216   -0.377372
     17          6           0       -7.077284    0.526891    0.097452
     18          1           0       -4.576347    0.161425    1.228196
     19          1           0       -4.400590    1.166990   -0.206750
     20          1           0       -6.077880   -1.384905   -0.040895
     21          1           0       -5.902042   -0.379116   -1.474447
     22          1           0       -6.946800    1.556675   -0.250573
     23          1           0       -7.123637    0.545172    1.191124
     24          1           0       -8.038701    0.161549   -0.276800
     25          6           0       -3.394826   -0.735081   -0.336267
     26          6           0       -2.036684   -0.249311    0.171141
     27          6           0       -0.879314   -1.128418   -0.303685
     28          1           0       -3.556009   -1.768517    0.000519
     29          1           0       -3.380252   -0.762952   -1.434427
     30          1           0       -2.054557   -0.222410    1.268215
     31          1           0       -1.878719    0.783378   -0.165337
     32          1           0       -0.832962   -1.146698   -1.397356
     33          1           0       -1.009799   -2.158201    0.044342
     34          1           0        0.082101   -0.763075    0.070569
 ---------------------------------------------------------------------

 SCF Done:  E(RHF) =  -669.534953317     A.U. after   15 cycles
 E2 =    -0.2092277619D+01 EUMP2 =    -0.67162723093665D+03

 The electronic state is 1-A.
 Alpha  occ. eigenvalues --  -20.60810 -20.60802 -15.85859 -11.31224 -11.27794
 Alpha  occ. eigenvalues --  -11.27788 -11.27536 -11.26811 -11.26801 -11.21427
 Alpha  occ. eigenvalues --  -11.21334 -11.21198 -11.21132 -11.20916 -11.20895
 Alpha  occ. eigenvalues --   -1.59882  -1.39435  -1.19411  -1.08796  -1.08225
 Alpha  occ. eigenvalues --   -1.04818  -1.03341  -0.95818  -0.95626  -0.86835
 Alpha  occ. eigenvalues --   -0.86206  -0.82462  -0.79398  -0.78028  -0.77510
 Alpha  occ. eigenvalues --   -0.72077  -0.71209  -0.70516  -0.65058  -0.64857
 Alpha  occ. eigenvalues --   -0.64809  -0.62165  -0.60741  -0.59212  -0.57439
 Alpha  occ. eigenvalues --   -0.55306  -0.55102  -0.53398  -0.52901  -0.52323
 Alpha  occ. eigenvalues --   -0.52143  -0.49753  -0.48837  -0.48832  -0.47717
 Alpha  occ. eigenvalues --   -0.46427  -0.45577  -0.45495  -0.44837  -0.43607
 Alpha  occ. eigenvalues --   -0.37365  -0.36346
 Alpha virt. eigenvalues --    0.05011   0.11166   0.16512   0.21317   0.23056
 Alpha virt. eigenvalues --    0.24415   0.26845   0.27158   0.27678   0.28021
 Alpha virt. eigenvalues --    0.28597   0.30750   0.31562   0.31781   0.32138

 Mulliken charges:
               1
     1  C   -0.170681
     2  C   -0.217959
     3  C   -0.171047
     4  C    0.162998
     5  C   -0.177868
     6  C   -0.214656
     7  H    0.225904
     8  H    0.223664
     9  H    0.275745
    10  H    0.276391
    11  H    0.224062
    12  N    0.488341
    13  O   -0.460703
    14  O   -0.460288
    15  C   -0.298414
    16  C   -0.299461
    17  C   -0.475660
    18  H    0.149431
    19  H    0.152192
    20  H    0.150500
    21  H    0.151687
    22  H    0.156228
    23  H    0.154997
    24  H    0.159423
    25  C   -0.298378
    26  C   -0.298873
    27  C   -0.481642
    28  H    0.146727
    29  H    0.149282
    30  H    0.150196
    31  H    0.159861
    32  H    0.155039
    33  H    0.149485
    34  H    0.163477
 Sum of Mulliken charges =  -0.00000

 Dipole moment (field-independent basis, Debye):
    X=              1.7591    Y=             -4.8806    Z=             -0.0667  Tot=              5.1884
 Quadrupole moment (field-independent basis, Debye-Ang):
   XX=            -84.9718   YY=            -99.8863   ZZ=            -90.7248
   XY=            -13.7133   XZ=             -2.3714   YZ=             -1.9947

 Normal termination of Gaussian 16 at Thu May  6 17:34:00 2021.
