 Gaussian 16, Revision A.03,
 Gaussian 16:  EM64L-G16RevA.03 25-Dec-2016

 -------------
 #p 6-31g* mp2
 -------------

 ------------------------------------------------------
 Input file generated by CHIRIPA (05-May-2021 14:55:24)
 ------------------------------------------------------
 Symbolic Z-matrix:
 Charge =  0 Multiplicity = 1

                         Standard orientation:
 ---------------------------------------------------------------------
 Center     Atomic      Atomic             Coordinates (Angstroms)
 Number     Number       Type             X           Y           Z
 ---------------------------------------------------------------------
      1          6           0        4.871046    0.427946   -0.808554
      2          6           0        4.494239    0.818436    0.480653
      3          6           0        3.266200    0.415916    1.013987
      4          6           0        2.435748   -0.380412    0.226903
      5          6           0        2.782900   -0.785854   -1.060883
      6          6           0        4.015682   -0.371543   -1.573858
      7          1           0        5.826859    0.745213   -1.214953
      8          1           0        5.156513    1.439309    1.077273
      9          1           0        2.949544    0.703760    2.009122
     10          1           0        2.101498   -1.404988   -1.631656
     11          1           0        4.305701   -0.676318   -2.575380
     12          7           0        1.133168   -0.812783    0.780743
     13          8           0        0.419451   -1.514167    0.067087
     14          8           0        0.850587   -0.442105    1.918013
     15          6           0       -3.533847    1.118141   -0.377479
     16          6           0       -2.480773    2.106785    0.124121
     17          6           0       -2.777302    3.547929   -0.291774
     18          1           0       -3.593707    1.180284   -1.472696
     19          1           0       -4.519138    1.416310    0.006828
     20          1           0       -1.497558    1.806047   -0.259885
     21          1           0       -2.423278    2.042144    1.218256
     22          1           0       -3.745370    3.871672    0.103997
     23          1           0       -2.814391    3.634233   -1.382543
     24          1           0       -2.012016    4.237841    0.077307
     25          6           0       -3.251251   -0.326711    0.030283
     26          6           0       -4.304326   -1.315355   -0.471317
     27          6           0       -4.007799   -2.756499   -0.055422
     28          1           0       -2.265961   -0.624881   -0.354024
     29          1           0       -3.191392   -0.388854    1.125500
     30          1           0       -4.361822   -1.250713   -1.565453
     31          1           0       -5.287541   -1.014616   -0.087311
     32          1           0       -3.970708   -2.842803    1.035348
     33          1           0       -3.039729   -3.080242   -0.451193
     34          1           0       -4.773084   -3.446410   -0.424502
 ---------------------------------------------------------------------

 SCF Done:  E(RHF) =  -669.536207352     A.U. after   15 cycles
 E2 =    -0.2091538976D+01 EUMP2 =    -0.67162774632798D+03

 The electronic state is 1-A.
 Alpha  occ. eigenvalues --  -20.60982 -20.60977 -15.86008 -11.31323 -11.27886
 Alpha  occ. eigenvalues --  -11.27878 -11.27618 -11.26888 -11.26878 -11.20678
 Alpha  occ. eigenvalues --  -11.20413 -11.20388 -11.20310 -11.19803 -11.19783
 Alpha  occ. eigenvalues --   -1.60034  -1.39592  -1.19488  -1.08893  -1.07249
 Alpha  occ. eigenvalues --   -1.04883  -1.02463  -0.95737  -0.94902  -0.86284
 Alpha  occ. eigenvalues --   -0.85920  -0.82572  -0.78539  -0.77626  -0.76983
 Alpha  occ. eigenvalues --   -0.72227  -0.71345  -0.70596  -0.65145  -0.64886
 Alpha  occ. eigenvalues --   -0.63890  -0.62231  -0.59875  -0.58294  -0.56502
 Alpha  occ. eigenvalues --   -0.55387  -0.54192  -0.53215  -0.52975  -0.51665
 Alpha  occ. eigenvalues --   -0.51314  -0.49042  -0.48981  -0.48806  -0.46850
 Alpha  occ. eigenvalues --   -0.45587  -0.45121  -0.44538  -0.44240  -0.42670
 Alpha  occ. eigenvalues --   -0.37465  -0.36484
 Alpha virt. eigenvalues --    0.04874   0.11171   0.16357   0.21302   0.23948
 Alpha virt. eigenvalues --    0.25340   0.27227   0.27725   0.28168   0.28696
 Alpha virt. eigenvalues --    0.29040   0.30928   0.32322   0.32468   0.32651

 Mulliken charges:
               1
     1  C   -0.170530
     2  C   -0.218550
     3  C   -0.170562
     4  C    0.158039
     5  C   -0.170888
     6  C   -0.218507
     7  H    0.226124
     8  H    0.223965
     9  H    0.276015
    10  H    0.275461
    11  H    0.223895
    12  N    0.488936
    13  O   -0.460551
    14  O   -0.457917
    15  C   -0.297918
    16  C   -0.296837
    17  C   -0.474986
    18  H    0.144374
    19  H    0.145191
    20  H    0.148567
    21  H    0.156303
    22  H    0.153899
    23  H    0.152054
    24  H    0.156275
    25  C   -0.306674
    26  C   -0.298808
    27  C   -0.475139
    28  H    0.171730
    29  H    0.153002
    30  H    0.146265
    31  H    0.146329
    32  H    0.155902
    33  H    0.162663
    34  H    0.152877
 Sum of Mulliken charges =  -0.00000

 Dipole moment (field-independent basis, Debye):
    X=              4.9291    Y=              1.3987    Z=             -1.8342  Tot=              5.4421
 Quadrupole moment (field-independent basis, Debye-Ang):
   XX=            -73.7789   YY=            -97.1849   ZZ=            -91.5502
   XY=              2.8035   XZ=             -3.7384   YZ=              3.9757

 Normal termination of Gaussian 16 at Wed May  5 19:08:19 2021.
