 Gaussian 16, Revision A.03,
 Gaussian 16:  EM64L-G16RevA.03 25-Dec-2016

 -------------
 #p 6-31g* mp2
 -------------

 ------------------------------------------------------
 Input file generated by CHIRIPA (05-May-2021 14:57:23)
 ------------------------------------------------------
 Symbolic Z-matrix:
 Charge =  0 Multiplicity = 1

                         Standard orientation:
 ---------------------------------------------------------------------
 Center     Atomic      Atomic             Coordinates (Angstroms)
 Number     Number       Type             X           Y           Z
 ---------------------------------------------------------------------
      1          6           0        0.760892   -1.737257   -0.258515
      2          6           0        0.713452   -0.361607   -0.507228
      3          6           0        1.876351    0.411845   -0.444102
      4          6           0        3.074979   -0.225878   -0.128048
      5          6           0        3.154616   -1.594438    0.124918
      6          6           0        1.979175   -2.348205    0.056209
      7          1           0       -0.147348   -2.330447   -0.309721
      8          1           0       -0.231278    0.115547   -0.751877
      9          1           0        1.868189    1.478622   -0.632088
     10          1           0        4.111161   -2.041806    0.366373
     11          1           0        2.019011   -3.416364    0.249841
     12          7           0        4.312728    0.582522   -0.058264
     13          8           0        5.356232   -0.003191    0.222226
     14          8           0        4.215933    1.786551   -0.285379
     15          6           0       -1.874711    2.662891    0.396387
     16          6           0       -2.638537    2.352548   -0.733557
     17          6           0       -3.195388    1.079316   -0.886358
     18          6           0       -2.967299    0.136391    0.114718
     19          6           0       -2.210883    0.415170    1.251999
     20          6           0       -1.663693    1.694918    1.383819
     21          1           0       -1.445888    3.654499    0.506937
     22          1           0       -2.804068    3.102301   -1.502008
     23          1           0       -3.790779    0.812215   -1.750988
     24          1           0       -2.063267   -0.353164    2.001192
     25          1           0       -1.070921    1.933121    2.262412
     26          7           0       -3.551698   -1.214971   -0.035939
     27          8           0       -3.336068   -2.028008    0.860226
     28          8           0       -4.214314   -1.435544   -1.047336
 ---------------------------------------------------------------------

 SCF Done:  E(RHF) =  -868.337642542     A.U. after   16 cycles
 E2 =    -0.2603567614D+01 EUMP2 =    -0.87094121015563D+03

 The electronic state is 1-A.
 Alpha  occ. eigenvalues --  -20.61960 -20.61942 -20.60881 -20.60863 -15.86991
 Alpha  occ. eigenvalues --  -15.85920 -11.32318 -11.31183 -11.28903 -11.28813
 Alpha  occ. eigenvalues --  -11.28551 -11.27879 -11.27765 -11.27711 -11.27683
 Alpha  occ. eigenvalues --  -11.27297 -11.26666 -11.26559  -1.61033  -1.59952
 Alpha  occ. eigenvalues --   -1.40579  -1.39509  -1.20547  -1.19311  -1.09895
 Alpha  occ. eigenvalues --   -1.08712  -1.05875  -1.04689  -0.96724  -0.95571
 Alpha  occ. eigenvalues --   -0.87245  -0.86094  -0.83520  -0.82407  -0.78594
 Alpha  occ. eigenvalues --   -0.77504  -0.73185  -0.72410  -0.72135  -0.71525
 Alpha  occ. eigenvalues --   -0.71275  -0.70354  -0.66111  -0.65791  -0.64945
 Alpha  occ. eigenvalues --   -0.64749  -0.63169  -0.62121  -0.56302  -0.55246
 Alpha  occ. eigenvalues --   -0.54392  -0.53888  -0.53027  -0.52369  -0.49960
 Alpha  occ. eigenvalues --   -0.49946  -0.48906  -0.48873  -0.45971  -0.44938
 Alpha  occ. eigenvalues --   -0.38548  -0.37898  -0.37085  -0.36039
 Alpha virt. eigenvalues --    0.03873   0.05002   0.10019   0.11484   0.15304
 Alpha virt. eigenvalues --    0.16598   0.20527   0.21677   0.26508   0.27214
 Alpha virt. eigenvalues --    0.27512   0.28305   0.30306   0.31182   0.31847

 Mulliken charges:
               1
     1  C   -0.180002
     2  C   -0.220787
     3  C   -0.177518
     4  C    0.158720
     5  C   -0.172853
     6  C   -0.218401
     7  H    0.235278
     8  H    0.232726
     9  H    0.269796
    10  H    0.275077
    11  H    0.225907
    12  N    0.488090
    13  O   -0.459779
    14  O   -0.463640
    15  C   -0.176365
    16  C   -0.219498
    17  C   -0.175940
    18  C    0.148157
    19  C   -0.174306
    20  C   -0.216318
    21  H    0.232968
    22  H    0.229430
    23  H    0.279384
    24  H    0.278686
    25  H    0.231215
    26  N    0.486720
    27  O   -0.461021
    28  O   -0.455729
 Sum of Mulliken charges =  -0.00000

 Dipole moment (field-independent basis, Debye):
    X=             -2.6149    Y=              1.9891    Z=              0.3698  Tot=              3.3062
 Quadrupole moment (field-independent basis, Debye-Ang):
   XX=           -142.7977   YY=            -98.5296   ZZ=           -101.2957
   XY=            -25.3516   XZ=              1.2592   YZ=             -1.2786

 Normal termination of Gaussian 16 at Thu May  6 08:10:11 2021.
