 Gaussian 16, Revision A.03,
 Gaussian 16:  EM64L-G16RevA.03 25-Dec-2016

 -------------
 #p 6-31g* mp2
 -------------

 ------------------------------------------------------
 Input file generated by CHIRIPA (05-May-2021 14:55:20)
 ------------------------------------------------------
 Symbolic Z-matrix:
 Charge =  0 Multiplicity = 1

                         Standard orientation:
 ---------------------------------------------------------------------
 Center     Atomic      Atomic             Coordinates (Angstroms)
 Number     Number       Type             X           Y           Z
 ---------------------------------------------------------------------
      1          6           0       -1.903978   -1.745114    1.920917
      2          6           0       -1.302357   -0.494130    1.748837
      3          6           0       -1.679413    0.335212    0.688379
      4          6           0       -2.665848   -0.120108   -0.185074
      5          6           0       -3.283876   -1.361209   -0.040162
      6          6           0       -2.891077   -2.173905    1.027444
      7          1           0       -1.604957   -2.382901    2.747483
      8          1           0       -0.535489   -0.158526    2.441172
      9          1           0       -1.230086    1.308345    0.531745
     10          1           0       -4.045440   -1.668366   -0.746627
     11          1           0       -3.360026   -3.144946    1.158630
     12          7           0       -3.073353    0.749068   -1.311517
     13          8           0       -3.944842    0.324807   -2.067259
     14          8           0       -2.513551    1.838130   -1.417351
     15          6           0        3.500840   -0.082851   -0.614431
     16          6           0        4.648523   -1.063594   -0.371637
     17          6           0        4.985983   -1.896562   -1.608600
     18          1           0        2.611239   -0.641661   -0.935811
     19          1           0        3.767780    0.584632   -1.445457
     20          1           0        4.380071   -1.728131    0.459590
     21          1           0        5.535441   -0.502403   -0.050613
     22          1           0        5.279260   -1.248739   -2.441016
     23          1           0        4.117325   -2.481433   -1.927914
     24          1           0        5.809054   -2.590868   -1.412756
     25          6           0        3.151797    0.757048    0.612952
     26          6           0        2.004113    1.737792    0.370158
     27          6           0        1.666654    2.570760    1.607122
     28          1           0        2.884856    0.089565    1.443978
     29          1           0        4.041398    1.315858    0.934333
     30          1           0        1.117195    1.176600    0.049135
     31          1           0        2.272566    2.402329   -0.461069
     32          1           0        2.535312    3.155630    1.926436
     33          1           0        1.373376    1.922936    2.439537
     34          1           0        0.843583    3.265065    1.411278
 ---------------------------------------------------------------------

 SCF Done:  E(RHF) =  -669.535167819     A.U. after   15 cycles
 E2 =    -0.2092518080D+01 EUMP2 =    -0.67162768589884D+03

 The electronic state is 1-A.
 Alpha  occ. eigenvalues --  -20.60774 -20.60769 -15.85828 -11.31199 -11.27780
 Alpha  occ. eigenvalues --  -11.27738 -11.27523 -11.26799 -11.26783 -11.22049
 Alpha  occ. eigenvalues --  -11.21859 -11.21818 -11.21765 -11.21635 -11.21254
 Alpha  occ. eigenvalues --   -1.59849  -1.39402  -1.19382  -1.08807  -1.08772
 Alpha  occ. eigenvalues --   -1.04792  -1.03929  -0.96392  -0.95605  -0.87399
 Alpha  occ. eigenvalues --   -0.86183  -0.82438  -0.79987  -0.78596  -0.77483
 Alpha  occ. eigenvalues --   -0.72047  -0.71173  -0.70501  -0.65481  -0.65020
 Alpha  occ. eigenvalues --   -0.64794  -0.62279  -0.61195  -0.59743  -0.57981
 Alpha  occ. eigenvalues --   -0.55706  -0.55256  -0.53125  -0.53083  -0.52913
 Alpha  occ. eigenvalues --   -0.52758  -0.50330  -0.48806  -0.48800  -0.48293
 Alpha  occ. eigenvalues --   -0.47017  -0.46133  -0.46053  -0.44803  -0.44163
 Alpha  occ. eigenvalues --   -0.37365  -0.36361
 Alpha virt. eigenvalues --    0.05008   0.11215   0.16448   0.19226   0.22871
 Alpha virt. eigenvalues --    0.23741   0.25443   0.26269   0.26988   0.28090
 Alpha virt. eigenvalues --    0.28949   0.30224   0.31358   0.31654   0.32568

 Mulliken charges:
               1
     1  C   -0.171041
     2  C   -0.222025
     3  C   -0.174579
     4  C    0.157813
     5  C   -0.170790
     6  C   -0.218479
     7  H    0.225778
     8  H    0.226519
     9  H    0.281709
    10  H    0.275690
    11  H    0.223540
    12  N    0.487994
    13  O   -0.460425
    14  O   -0.460278
    15  C   -0.299112
    16  C   -0.299656
    17  C   -0.475946
    18  H    0.151485
    19  H    0.152702
    20  H    0.149759
    21  H    0.152402
    22  H    0.156889
    23  H    0.155665
    24  H    0.160366
    25  C   -0.296907
    26  C   -0.306422
    27  C   -0.481762
    28  H    0.143470
    29  H    0.151378
    30  H    0.152208
    31  H    0.160007
    32  H    0.161340
    33  H    0.145960
    34  H    0.164746
 Sum of Mulliken charges =  -0.00000

 Dipole moment (field-independent basis, Debye):
    X=              1.5203    Y=             -3.0085    Z=              3.8667  Tot=              5.1297
 Quadrupole moment (field-independent basis, Debye-Ang):
   XX=           -100.0730   YY=            -91.6008   ZZ=            -97.1306
   XY=             11.7152   XZ=             -9.9401   YZ=              0.3872

 Normal termination of Gaussian 16 at Thu May  6 04:32:05 2021.
