 Gaussian 16, Revision A.03,
 Gaussian 16:  EM64L-G16RevA.03 25-Dec-2016

 -------------
 #p 6-31g* mp2
 -------------

 ------------------------------------------------------
 Input file generated by CHIRIPA (05-May-2021 14:51:11)
 ------------------------------------------------------
 Symbolic Z-matrix:
 Charge =  0 Multiplicity = 1

                         Standard orientation:
 ---------------------------------------------------------------------
 Center     Atomic      Atomic             Coordinates (Angstroms)
 Number     Number       Type             X           Y           Z
 ---------------------------------------------------------------------
      1          6           0       -4.468841   -0.130337    0.334766
      2          6           0       -5.159390   -0.899804   -0.791753
      3          6           0       -6.647091   -1.130442   -0.524647
      4          1           0       -4.592483   -0.682231    1.276611
      5          1           0       -4.972146    0.836904    0.470876
      6          1           0       -4.654064   -1.864724   -0.926625
      7          1           0       -5.033925   -0.346110   -1.731060
      8          1           0       -7.170675   -0.175665   -0.411240
      9          1           0       -6.788656   -1.702908    0.397765
     10          1           0       -7.120993   -1.682199   -1.342474
     11          6           0       -2.981172    0.108044    0.082291
     12          6           0       -2.290623    0.877511    1.208810
     13          6           0       -0.802922    1.108149    0.941704
     14          1           0       -2.477867   -0.859197   -0.053818
     15          1           0       -2.857530    0.659938   -0.859553
     16          1           0       -2.416088    0.323817    2.148117
     17          1           0       -2.795949    1.842431    1.343682
     18          1           0       -0.661357    1.680615    0.019292
     19          1           0       -0.279338    0.153372    0.828298
     20          1           0       -0.329019    1.659906    1.759531
     21          6           0        3.732234   -0.737304   -0.360850
     22          6           0        4.808382   -1.502613    0.409988
     23          6           0        4.810260   -2.998716    0.094613
     24          1           0        2.747820   -1.164373   -0.125294
     25          1           0        3.887544   -0.885616   -1.438475
     26          1           0        4.651913   -1.351773    1.485805
     27          1           0        5.790330   -1.073548    0.172718
     28          1           0        4.989130   -3.167303   -0.972245
     29          1           0        3.844245   -3.447109    0.348303
     30          1           0        5.587252   -3.526458    0.656425
     31          6           0        3.717779    0.759597   -0.056208
     32          6           0        2.641630    1.524905   -0.827046
     33          6           0        2.639753    3.021010   -0.511670
     34          1           0        3.562469    0.907910    1.021418
     35          1           0        4.702193    1.186667   -0.291764
     36          1           0        1.659683    1.095841   -0.589775
     37          1           0        2.798099    1.374066   -1.902862
     38          1           0        3.605768    3.469403   -0.765360
     39          1           0        2.460883    3.189596    0.555188
     40          1           0        1.862761    3.548752   -1.073483
 ---------------------------------------------------------------------

 SCF Done:  E(RHF) =  -470.732893698     A.U. after   11 cycles
 E2 =    -0.1583030565D+01 EUMP2 =    -0.47231592426287D+03

 The electronic state is 1-A.
 Alpha  occ. eigenvalues --  -11.21656 -11.21626 -11.21561 -11.21445 -11.21390
 Alpha  occ. eigenvalues --  -11.21384 -11.21334 -11.21256 -11.21162 -11.21090
 Alpha  occ. eigenvalues --  -11.21047 -11.20970  -1.08475  -1.08342  -1.03593
 Alpha  occ. eigenvalues --   -1.03432  -0.96048  -0.95894  -0.87066  -0.86916
 Alpha  occ. eigenvalues --   -0.79710  -0.79460  -0.78301  -0.78136  -0.65102
 Alpha  occ. eigenvalues --   -0.64981  -0.60993  -0.60846  -0.59398  -0.59280
 Alpha  occ. eigenvalues --   -0.57680  -0.57482  -0.55364  -0.55155  -0.52726
 Alpha  occ. eigenvalues --   -0.52612  -0.52477  -0.52323  -0.49977  -0.49840
 Alpha  occ. eigenvalues --   -0.48115  -0.47743  -0.46676  -0.46502  -0.45915
 Alpha  occ. eigenvalues --   -0.45749  -0.45671  -0.45442  -0.43828  -0.43699
 Alpha virt. eigenvalues --    0.21517   0.22948   0.23702   0.24705   0.25695
 Alpha virt. eigenvalues --    0.26538   0.26993   0.27605   0.27693   0.29328
 Alpha virt. eigenvalues --    0.30146   0.31238   0.31685   0.31942   0.32381

 Mulliken charges:
               1
     1  C   -0.298322
     2  C   -0.299681
     3  C   -0.475737
     4  H    0.149698
     5  H    0.149644
     6  H    0.151989
     7  H    0.152039
     8  H    0.155228
     9  H    0.155201
    10  H    0.160362
    11  C   -0.298398
    12  C   -0.300297
    13  C   -0.478281
    14  H    0.149464
    15  H    0.149837
    16  H    0.151962
    17  H    0.152318
    18  H    0.158180
    19  H    0.154892
    20  H    0.160964
    21  C   -0.298462
    22  C   -0.299582
    23  C   -0.475613
    24  H    0.149012
    25  H    0.149438
    26  H    0.151819
    27  H    0.151956
    28  H    0.155139
    29  H    0.154839
    30  H    0.160109
    31  C   -0.297608
    32  C   -0.309070
    33  C   -0.475012
    34  H    0.149184
    35  H    0.148980
    36  H    0.164835
    37  H    0.150416
    38  H    0.154453
    39  H    0.155217
    40  H    0.158889
 Sum of Mulliken charges =  -0.00000

 Dipole moment (field-independent basis, Debye):
    X=             -0.0662    Y=              0.0020    Z=              0.0141  Tot=              0.0677
 Quadrupole moment (field-independent basis, Debye-Ang):
   XX=            -85.6777   YY=            -85.3330   ZZ=            -84.0323
   XY=             -0.2816   XZ=             -0.2868   YZ=             -0.6300

 Normal termination of Gaussian 16 at Thu May  6 03:51:26 2021.
