 Gaussian 16, Revision A.03,
 Gaussian 16:  EM64L-G16RevA.03 25-Dec-2016

 -------------
 #p 6-31g* mp2
 -------------

 ------------------------------------------------------
 Input file generated by CHIRIPA (05-May-2021 14:53:12)
 ------------------------------------------------------
 Symbolic Z-matrix:
 Charge =  0 Multiplicity = 1

                         Standard orientation:
 ---------------------------------------------------------------------
 Center     Atomic      Atomic             Coordinates (Angstroms)
 Number     Number       Type             X           Y           Z
 ---------------------------------------------------------------------
      1          6           0        4.048273   -0.566699    0.172761
      2          6           0        5.221741   -1.247056   -0.532982
      3          6           0        5.497519   -2.653214    0.000367
      4          1           0        4.255467   -0.517511    1.250535
      5          1           0        3.149118   -1.187284    0.055328
      6          1           0        6.118100   -0.624691   -0.415431
      7          1           0        5.011814   -1.294458   -1.609225
      8          1           0        4.619816   -3.294211   -0.131389
      9          1           0        5.732388   -2.620639    1.069187
     10          1           0        6.340231   -3.121110   -0.518063
     11          6           0        3.760273    0.839752   -0.349427
     12          6           0        2.586805    1.520108    0.356316
     13          6           0        2.311027    2.926266   -0.177033
     14          1           0        4.659428    1.460336   -0.231994
     15          1           0        3.553079    0.790564   -1.427200
     16          1           0        2.796732    1.567510    1.432559
     17          1           0        1.690446    0.897743    0.238765
     18          1           0        2.076158    2.893691   -1.245853
     19          1           0        3.188730    3.567264   -0.045277
     20          1           0        1.468315    3.394162    0.341397
     21          6           0       -1.826192    2.086495    0.309342
     22          6           0       -1.307379    0.927384    0.895698
     23          6           0       -1.977085   -0.293268    0.769005
     24          6           0       -3.168548   -0.318687    0.045776
     25          6           0       -3.710905    0.818934   -0.550005
     26          6           0       -3.024187    2.028673   -0.410369
     27          1           0       -1.299341    3.030488    0.412787
     28          1           0       -0.377197    0.969312    1.455207
     29          1           0       -1.597896   -1.205816    1.212727
     30          1           0       -4.640232    0.745767   -1.101743
     31          1           0       -3.429458    2.927261   -0.866813
     32          7           0       -3.886539   -1.605160   -0.095199
     33          8           0       -4.934467   -1.601069   -0.737437
     34          8           0       -3.387780   -2.593230    0.439211
 ---------------------------------------------------------------------

 SCF Done:  E(RHF) =  -669.535321098     A.U. after   15 cycles
 E2 =    -0.2091900972D+01 EUMP2 =    -0.67162722207056D+03

 The electronic state is 1-A.
 Alpha  occ. eigenvalues --  -20.60758 -20.60753 -15.85811 -11.31175 -11.27747
 Alpha  occ. eigenvalues --  -11.27739 -11.27473 -11.26753 -11.26704 -11.22545
 Alpha  occ. eigenvalues --  -11.22134 -11.22060 -11.21989 -11.21895 -11.21346
 Alpha  occ. eigenvalues --   -1.59833  -1.39387  -1.19347  -1.09077  -1.08737
 Alpha  occ. eigenvalues --   -1.04753  -1.04190  -0.96631  -0.95574  -0.87648
 Alpha  occ. eigenvalues --   -0.86148  -0.82411  -0.80295  -0.78859  -0.77452
 Alpha  occ. eigenvalues --   -0.72029  -0.71157  -0.70455  -0.65723  -0.64996
 Alpha  occ. eigenvalues --   -0.64756  -0.62148  -0.61534  -0.60039  -0.58234
 Alpha  occ. eigenvalues --   -0.55889  -0.55264  -0.53355  -0.53071  -0.53056
 Alpha  occ. eigenvalues --   -0.52840  -0.50548  -0.48812  -0.48784  -0.48555
 Alpha  occ. eigenvalues --   -0.47288  -0.46391  -0.46284  -0.44793  -0.44436
 Alpha  occ. eigenvalues --   -0.37314  -0.36339
 Alpha virt. eigenvalues --    0.05072   0.11188   0.16513   0.19593   0.22549
 Alpha virt. eigenvalues --    0.23961   0.25792   0.25962   0.26205   0.28048
 Alpha virt. eigenvalues --    0.28727   0.30035   0.30821   0.31734   0.32325

 Mulliken charges:
               1
     1  C   -0.299330
     2  C   -0.300215
     3  C   -0.476358
     4  H    0.149531
     5  H    0.150054
     6  H    0.152435
     7  H    0.153424
     8  H    0.156942
     9  H    0.155309
    10  H    0.161903
    11  C   -0.298053
    12  C   -0.307366
    13  C   -0.475679
    14  H    0.151473
    15  H    0.152516
    16  H    0.151057
    17  H    0.151847
    18  H    0.159650
    19  H    0.160372
    20  H    0.149243
    21  C   -0.173199
    22  C   -0.220463
    23  C   -0.172978
    24  C    0.158528
    25  C   -0.170744
    26  C   -0.218883
    27  H    0.227830
    28  H    0.229353
    29  H    0.275647
    30  H    0.275540
    31  H    0.223535
    32  N    0.488076
    33  O   -0.460487
    34  O   -0.460511
 Sum of Mulliken charges =  -0.00000

 Dipole moment (field-independent basis, Debye):
    X=              2.6951    Y=              4.4964    Z=              0.4258  Tot=              5.2596
 Quadrupole moment (field-independent basis, Debye-Ang):
   XX=           -107.6638   YY=            -98.0288   ZZ=            -93.4711
   XY=            -16.6502   XZ=              0.9335   YZ=             -0.9303

 Normal termination of Gaussian 16 at Thu May  6 07:18:27 2021.
