 Gaussian 16, Revision A.03,
 Gaussian 16:  EM64L-G16RevA.03 25-Dec-2016

 -------------
 #p 6-31g* mp2
 -------------

 ------------------------------------------------------
 Input file generated by CHIRIPA (05-May-2021 14:55:19)
 ------------------------------------------------------
 Symbolic Z-matrix:
 Charge =  0 Multiplicity = 1

                         Standard orientation:
 ---------------------------------------------------------------------
 Center     Atomic      Atomic             Coordinates (Angstroms)
 Number     Number       Type             X           Y           Z
 ---------------------------------------------------------------------
      1          6           0       -1.968398    1.779505    0.442810
      2          6           0       -1.714594    0.476373    0.883210
      3          6           0       -2.661032   -0.534689    0.692008
      4          6           0       -3.855984   -0.205938    0.053805
      5          6           0       -4.138182    1.082886   -0.396292
      6          6           0       -3.177251    2.078076   -0.194412
      7          1           0       -1.227553    2.558757    0.595488
      8          1           0       -0.776658    0.241606    1.378392
      9          1           0       -2.490423   -1.551929    1.022965
     10          1           0       -5.082380    1.286431   -0.886676
     11          1           0       -3.377070    3.089225   -0.537479
     12          7           0       -4.865607   -1.267903   -0.154265
     13          8           0       -5.910579   -0.952539   -0.719257
     14          8           0       -4.592860   -2.395526    0.251582
     15          6           0        5.286253   -0.362057   -0.436031
     16          6           0        6.530736   -0.477902    0.444781
     17          6           0        7.649444   -1.284196   -0.215654
     18          1           0        4.920664   -1.369518   -0.677512
     19          1           0        5.563342    0.106971   -1.390300
     20          1           0        6.251112   -0.945312    1.397647
     21          1           0        6.893292    0.529954    0.684351
     22          1           0        7.956721   -0.817303   -1.157032
     23          1           0        7.310892   -2.300952   -0.439683
     24          1           0        8.529434   -1.354452    0.431294
     25          6           0        4.159086    0.441196    0.210503
     26          6           0        2.914605    0.557041   -0.670310
     27          6           0        1.795896    1.363334   -0.009875
     28          1           0        3.881997   -0.027832    1.164772
     29          1           0        4.524675    1.448657    0.451984
     30          1           0        2.552047   -0.450815   -0.909879
     31          1           0        3.194227    1.024452   -1.623175
     32          1           0        2.134448    2.380091    0.214155
     33          1           0        1.488619    0.896442    0.931504
     34          1           0        0.915905    1.433591   -0.656822
 ---------------------------------------------------------------------

 SCF Done:  E(RHF) =  -669.534816430     A.U. after   15 cycles
 E2 =    -0.2091855091D+01 EUMP2 =    -0.67162667152047D+03

 The electronic state is 1-A.
 Alpha  occ. eigenvalues --  -20.60721 -20.60716 -15.85773 -11.31126 -11.27691
 Alpha  occ. eigenvalues --  -11.27671 -11.27387 -11.26704 -11.26642 -11.22428
 Alpha  occ. eigenvalues --  -11.22227 -11.22059 -11.22030 -11.21883 -11.21413
 Alpha  occ. eigenvalues --   -1.59797  -1.39350  -1.19292  -1.09064  -1.08687
 Alpha  occ. eigenvalues --   -1.04696  -1.04201  -0.96691  -0.95521  -0.87730
 Alpha  occ. eigenvalues --   -0.86078  -0.82357  -0.80288  -0.78835  -0.77410
 Alpha  occ. eigenvalues --   -0.71992  -0.71120  -0.70391  -0.65712  -0.64941
 Alpha  occ. eigenvalues --   -0.64716  -0.62115  -0.61539  -0.60063  -0.58263
 Alpha  occ. eigenvalues --   -0.56002  -0.55175  -0.53485  -0.53169  -0.52879
 Alpha  occ. eigenvalues --   -0.52744  -0.50600  -0.48752  -0.48748  -0.48579
 Alpha  occ. eigenvalues --   -0.47285  -0.46388  -0.46285  -0.44759  -0.44442
 Alpha  occ. eigenvalues --   -0.37239  -0.36288
 Alpha virt. eigenvalues --    0.05098   0.11309   0.16552   0.20435   0.22409
 Alpha virt. eigenvalues --    0.23833   0.25487   0.26230   0.27036   0.27440
 Alpha virt. eigenvalues --    0.28966   0.29470   0.30902   0.31599   0.32084

 Mulliken charges:
               1
     1  C   -0.174071
     2  C   -0.218239
     3  C   -0.172630
     4  C    0.158680
     5  C   -0.171335
     6  C   -0.219359
     7  H    0.229120
     8  H    0.227862
     9  H    0.275253
    10  H    0.275274
    11  H    0.223150
    12  N    0.488039
    13  O   -0.460639
    14  O   -0.460649
    15  C   -0.298939
    16  C   -0.300047
    17  C   -0.476081
    18  H    0.151058
    19  H    0.150750
    20  H    0.152198
    21  H    0.152198
    22  H    0.155814
    23  H    0.156121
    24  H    0.161445
    25  C   -0.298975
    26  C   -0.299776
    27  C   -0.484190
    28  H    0.148850
    29  H    0.150279
    30  H    0.154916
    31  H    0.155455
    32  H    0.156076
    33  H    0.147525
    34  H    0.164868
 Sum of Mulliken charges =  -0.00000

 Dipole moment (field-independent basis, Debye):
    X=              3.7601    Y=              3.7375    Z=              0.6716  Tot=              5.3440
 Quadrupole moment (field-independent basis, Debye-Ang):
   XX=           -120.9425   YY=            -94.0500   ZZ=            -94.3556
   XY=            -16.8600   XZ=             -1.1135   YZ=             -2.2552

 Normal termination of Gaussian 16 at Thu May  6 15:43:41 2021.
