 Gaussian 16, Revision A.03,
 Gaussian 16:  EM64L-G16RevA.03 25-Dec-2016

 -------------
 #p 6-31g* mp2
 -------------

 ------------------------------------------------------
 Input file generated by CHIRIPA (05-May-2021 14:55:24)
 ------------------------------------------------------
 Symbolic Z-matrix:
 Charge =  0 Multiplicity = 1

                         Standard orientation:
 ---------------------------------------------------------------------
 Center     Atomic      Atomic             Coordinates (Angstroms)
 Number     Number       Type             X           Y           Z
 ---------------------------------------------------------------------
      1          6           0        5.262144    0.117381    0.264979
      2          6           0        4.401170    1.187440    0.529966
      3          6           0        3.020608    1.046777    0.360228
      4          6           0        2.533004   -0.183507   -0.077874
      5          6           0        3.365093   -1.268295   -0.350187
      6          6           0        4.742275   -1.104916   -0.173478
      7          1           0        6.333285    0.235475    0.399544
      8          1           0        4.802100    2.137847    0.870594
      9          1           0        2.331375    1.858714    0.558048
     10          1           0        2.935842   -2.203546   -0.688518
     11          1           0        5.408540   -1.937664   -0.380038
     12          7           0        1.073254   -0.344445   -0.261258
     13          8           0        0.668651   -1.438595   -0.648259
     14          8           0        0.361347    0.626609   -0.014520
     15          6           0       -3.342422    0.871885    0.361147
     16          6           0       -3.268685    1.999947   -0.668428
     17          6           0       -2.851732    3.335929   -0.052722
     18          1           0       -4.053120    1.150900    1.151086
     19          1           0       -2.362578    0.763138    0.846404
     20          1           0       -4.247995    2.105613   -1.152580
     21          1           0       -2.558223    1.718131   -1.456109
     22          1           0       -1.864941    3.253632    0.414258
     23          1           0       -3.564313    3.643316    0.719511
     24          1           0       -2.805415    4.128251   -0.806340
     25          6           0       -3.757965   -0.470010   -0.239163
     26          6           0       -3.831702   -1.598071    0.790412
     27          6           0       -4.248654   -2.934053    0.174706
     28          1           0       -4.737809   -0.361262   -0.724421
     29          1           0       -3.047266   -0.749024   -1.029102
     30          1           0       -4.542163   -1.316255    1.578093
     31          1           0       -2.852391   -1.703738    1.274564
     32          1           0       -3.536073   -3.241440   -0.597527
     33          1           0       -5.235446   -2.851757   -0.292274
     34          1           0       -4.294972   -3.726376    0.928324
 ---------------------------------------------------------------------

 SCF Done:  E(RHF) =  -669.536786804     A.U. after   15 cycles
 E2 =    -0.2091697277D+01 EUMP2 =    -0.67162848408130D+03

 The electronic state is 1-A.
 Alpha  occ. eigenvalues --  -20.61155 -20.61148 -15.86168 -11.31414 -11.27966
 Alpha  occ. eigenvalues --  -11.27962 -11.27690 -11.26956 -11.26946 -11.20171
 Alpha  occ. eigenvalues --  -11.20059 -11.19851 -11.19810 -11.19728 -11.19552
 Alpha  occ. eigenvalues --   -1.60201  -1.39760  -1.19573  -1.08992  -1.06818
 Alpha  occ. eigenvalues --   -1.04957  -1.02089  -0.95846  -0.94550  -0.86362
 Alpha  occ. eigenvalues --   -0.85583  -0.82683  -0.78163  -0.77744  -0.76634
 Alpha  occ. eigenvalues --   -0.72394  -0.71506  -0.70681  -0.65232  -0.64963
 Alpha  occ. eigenvalues --   -0.63395  -0.62305  -0.59460  -0.57942  -0.56184
 Alpha  occ. eigenvalues --   -0.55466  -0.53817  -0.53293  -0.53048  -0.51326
 Alpha  occ. eigenvalues --   -0.51012  -0.49192  -0.49139  -0.48426  -0.46500
 Alpha  occ. eigenvalues --   -0.45281  -0.45076  -0.44191  -0.43974  -0.42297
 Alpha  occ. eigenvalues --   -0.37548  -0.36555
 Alpha virt. eigenvalues --    0.04768   0.11102   0.16276   0.21208   0.24467
 Alpha virt. eigenvalues --    0.25562   0.27155   0.27852   0.28500   0.29092
 Alpha virt. eigenvalues --    0.29382   0.30833   0.32110   0.32845   0.33142

 Mulliken charges:
               1
     1  C   -0.170313
     2  C   -0.218560
     3  C   -0.170566
     4  C    0.157562
     5  C   -0.170417
     6  C   -0.218608
     7  H    0.226476
     8  H    0.224344
     9  H    0.275875
    10  H    0.276057
    11  H    0.224249
    12  N    0.490781
    13  O   -0.459052
    14  O   -0.462221
    15  C   -0.303038
    16  C   -0.296424
    17  C   -0.476580
    18  H    0.138708
    19  H    0.171392
    20  H    0.143750
    21  H    0.158793
    22  H    0.159694
    23  H    0.149379
    24  H    0.153161
    25  C   -0.298518
    26  C   -0.298399
    27  C   -0.475631
    28  H    0.140935
    29  H    0.160538
    30  H    0.145288
    31  H    0.157131
    32  H    0.158912
    33  H    0.150615
    34  H    0.154688
 Sum of Mulliken charges =  -0.00000

 Dipole moment (field-independent basis, Debye):
    X=              5.6743    Y=              0.4694    Z=              0.6039  Tot=              5.7256
 Quadrupole moment (field-independent basis, Debye-Ang):
   XX=            -70.1686   YY=            -92.4644   ZZ=            -95.4626
   XY=             -0.5237   XZ=              0.9970   YZ=              1.3709

 Normal termination of Gaussian 16 at Thu May  6 11:02:57 2021.
