 Gaussian 16, Revision A.03,
 Gaussian 16:  EM64L-G16RevA.03 25-Dec-2016

 -------------
 #p 6-31g* mp2
 -------------

 ------------------------------------------------------
 Input file generated by CHIRIPA (05-May-2021 14:53:17)
 ------------------------------------------------------
 Symbolic Z-matrix:
 Charge =  0 Multiplicity = 1

                         Standard orientation:
 ---------------------------------------------------------------------
 Center     Atomic      Atomic             Coordinates (Angstroms)
 Number     Number       Type             X           Y           Z
 ---------------------------------------------------------------------
      1          6           0        5.407112    0.154843   -0.009236
      2          6           0        6.499834   -0.568387   -0.797195
      3          6           0        7.799884    0.232468   -0.876524
      4          1           0        5.211049    1.129577   -0.476567
      5          1           0        5.773257    0.362803    1.005696
      6          1           0        6.131233   -0.776152   -1.809906
      7          1           0        6.693183   -1.541594   -0.328045
      8          1           0        8.193805    0.427810    0.126107
      9          1           0        7.628662    1.197602   -1.364173
     10          1           0        8.567287   -0.303030   -1.444145
     11          6           0        4.101367   -0.633189    0.078876
     12          6           0        3.008644    0.090041    0.866836
     13          6           0        1.708594   -0.710815    0.946165
     14          1           0        3.735222   -0.841150   -0.936055
     15          1           0        4.297429   -1.607923    0.546208
     16          1           0        2.815296    1.063247    0.397686
     17          1           0        3.377246    0.297805    1.879547
     18          1           0        1.879816   -1.675948    1.433814
     19          1           0        1.314673   -0.906157   -0.056466
     20          1           0        0.941191   -0.175316    1.513786
     21          6           0       -1.845078    1.707335    0.721301
     22          6           0       -2.022003    0.462028    1.333207
     23          6           0       -3.054298   -0.388608    0.926593
     24          6           0       -3.894953    0.039860   -0.099566
     25          6           0       -3.744380    1.274646   -0.728790
     26          6           0       -2.705315    2.108961   -0.305934
     27          1           0       -1.040537    2.361790    1.043478
     28          1           0       -1.355451    0.147502    2.131220
     29          1           0       -3.213945   -1.357928    1.383045
     30          1           0       -4.424833    1.560583   -1.521658
     31          1           0       -2.570290    3.075533   -0.782958
     32          7           0       -4.991382   -0.852032   -0.538628
     33          8           0       -5.718492   -0.451252   -1.444896
     34          8           0       -5.102891   -1.934988    0.031819
 ---------------------------------------------------------------------

 SCF Done:  E(RHF) =  -669.535080748     A.U. after   15 cycles
 E2 =    -0.2091237520D+01 EUMP2 =    -0.67162631826785D+03

 The electronic state is 1-A.
 Alpha  occ. eigenvalues --  -20.60743 -20.60738 -15.85796 -11.31163 -11.27731
 Alpha  occ. eigenvalues --  -11.27718 -11.27475 -11.26752 -11.26727 -11.22313
 Alpha  occ. eigenvalues --  -11.21967 -11.21921 -11.21874 -11.21820 -11.21389
 Alpha  occ. eigenvalues --   -1.59819  -1.39372  -1.19336  -1.08951  -1.08732
 Alpha  occ. eigenvalues --   -1.04741  -1.04072  -0.96526  -0.95565  -0.87553
 Alpha  occ. eigenvalues --   -0.86137  -0.82397  -0.80142  -0.78742  -0.77446
 Alpha  occ. eigenvalues --   -0.72016  -0.71142  -0.70444  -0.65575  -0.64991
 Alpha  occ. eigenvalues --   -0.64788  -0.62128  -0.61459  -0.59905  -0.58131
 Alpha  occ. eigenvalues --   -0.55792  -0.55245  -0.53439  -0.53005  -0.52979
 Alpha  occ. eigenvalues --   -0.52655  -0.50445  -0.48777  -0.48770  -0.48451
 Alpha  occ. eigenvalues --   -0.47162  -0.46289  -0.46197  -0.44778  -0.44328
 Alpha  occ. eigenvalues --   -0.37302  -0.36322
 Alpha virt. eigenvalues --    0.05088   0.11228   0.16571   0.20387   0.22515
 Alpha virt. eigenvalues --    0.23929   0.26072   0.26150   0.26965   0.27883
 Alpha virt. eigenvalues --    0.28553   0.30217   0.30921   0.31543   0.31810

 Mulliken charges:
               1
     1  C   -0.298508
     2  C   -0.300089
     3  C   -0.475943
     4  H    0.149209
     5  H    0.149723
     6  H    0.152832
     7  H    0.152852
     8  H    0.155381
     9  H    0.155162
    10  H    0.161582
    11  C   -0.299092
    12  C   -0.299645
    13  C   -0.476393
    14  H    0.151358
    15  H    0.151361
    16  H    0.149333
    17  H    0.151956
    18  H    0.157870
    19  H    0.161092
    20  H    0.148731
    21  C   -0.170833
    22  C   -0.216118
    23  C   -0.172160
    24  C    0.158444
    25  C   -0.171129
    26  C   -0.218776
    27  H    0.225549
    28  H    0.224617
    29  H    0.275803
    30  H    0.275466
    31  H    0.223228
    32  N    0.488056
    33  O   -0.460566
    34  O   -0.460355
 Sum of Mulliken charges =  -0.00000

 Dipole moment (field-independent basis, Debye):
    X=              3.9906    Y=              3.0964    Z=              1.4956  Tot=              5.2678
 Quadrupole moment (field-independent basis, Debye-Ang):
   XX=           -125.6450   YY=            -92.5479   ZZ=            -92.5865
   XY=            -13.9935   XZ=             -5.0116   YZ=             -3.2813

 Normal termination of Gaussian 16 at Thu May  6 05:57:12 2021.
