 Gaussian 16, Revision A.03,
 Gaussian 16:  EM64L-G16RevA.03 25-Dec-2016

 -------------
 #p 6-31g* mp2
 -------------

 ------------------------------------------------------
 Input file generated by CHIRIPA (05-May-2021 14:57:26)
 ------------------------------------------------------
 Symbolic Z-matrix:
 Charge =  0 Multiplicity = 1

                         Standard orientation:
 ---------------------------------------------------------------------
 Center     Atomic      Atomic             Coordinates (Angstroms)
 Number     Number       Type             X           Y           Z
 ---------------------------------------------------------------------
      1          6           0        4.155318   -2.311021   -0.399948
      2          6           0        5.199905   -1.500087    0.055844
      3          6           0        4.999243   -0.131648    0.259944
      4          6           0        3.735587    0.394992   -0.002951
      5          6           0        2.674895   -0.386877   -0.457817
      6          6           0        2.898363   -1.752812   -0.654874
      7          1           0        4.320056   -3.373085   -0.555763
      8          1           0        6.177120   -1.930870    0.254647
      9          1           0        5.790328    0.519166    0.612143
     10          1           0        1.711791    0.071315   -0.647314
     11          1           0        2.085279   -2.380181   -1.008918
     12          7           0        3.511083    1.842372    0.209393
     13          8           0        2.388487    2.282056   -0.029546
     14          8           0        4.461965    2.509738    0.610746
     15          6           0       -1.362706   -0.879326    0.227251
     16          6           0       -1.799648   -0.190278   -0.908889
     17          6           0       -3.132633    0.215100   -1.024516
     18          6           0       -4.005567   -0.086562    0.019647
     19          6           0       -3.600529   -0.771570    1.164199
     20          6           0       -2.262954   -1.167266    1.258350
     21          1           0       -0.325428   -1.190473    0.308732
     22          1           0       -1.102724    0.034708   -1.711212
     23          1           0       -3.497633    0.749871   -1.892970
     24          1           0       -4.318652   -0.981441    1.947571
     25          1           0       -1.926421   -1.702251    2.141856
     26          7           0       -5.419167    0.337470   -0.091396
     27          8           0       -6.168472    0.059544    0.842379
     28          8           0       -5.751076    0.939722   -1.110104
 ---------------------------------------------------------------------

 SCF Done:  E(RHF) =  -868.336582893     A.U. after   16 cycles
 E2 =    -0.2600504797D+01 EUMP2 =    -0.87093708769016D+03

 The electronic state is 1-A.
 Alpha  occ. eigenvalues --  -20.61527 -20.61515 -20.60824 -20.60818 -15.86584
 Alpha  occ. eigenvalues --  -15.85880 -11.32116 -11.31329 -11.28807 -11.28634
 Alpha  occ. eigenvalues --  -11.28414 -11.27901 -11.27895 -11.27815 -11.27770
 Alpha  occ. eigenvalues --  -11.27656 -11.27011 -11.26964  -1.60596  -1.59896
 Alpha  occ. eigenvalues --   -1.40146  -1.39447  -1.20296  -1.19519  -1.09640
 Alpha  occ. eigenvalues --   -1.08928  -1.05744  -1.04930  -0.96459  -0.95744
 Alpha  occ. eigenvalues --   -0.87112  -0.86347  -0.83306  -0.82565  -0.78341
 Alpha  occ. eigenvalues --   -0.77575  -0.72797  -0.72101  -0.71924  -0.71437
 Alpha  occ. eigenvalues --   -0.71217  -0.70670  -0.65947  -0.65741  -0.65190
 Alpha  occ. eigenvalues --   -0.64967  -0.63088  -0.62270  -0.56195  -0.55522
 Alpha  occ. eigenvalues --   -0.54013  -0.53833  -0.53241  -0.53040  -0.49567
 Alpha  occ. eigenvalues --   -0.49544  -0.48867  -0.48846  -0.45516  -0.44833
 Alpha  occ. eigenvalues --   -0.38241  -0.37536  -0.37342  -0.36510
 Alpha virt. eigenvalues --    0.04180   0.04950   0.10312   0.11088   0.15546
 Alpha virt. eigenvalues --    0.16396   0.18265   0.22040   0.24994   0.26287
 Alpha virt. eigenvalues --    0.27529   0.29194   0.30252   0.31282   0.31940

 Mulliken charges:
               1
     1  C   -0.170181
     2  C   -0.217902
     3  C   -0.169328
     4  C    0.159621
     5  C   -0.177031
     6  C   -0.221715
     7  H    0.228727
     8  H    0.227181
     9  H    0.278863
    10  H    0.271604
    11  H    0.220961
    12  N    0.487735
    13  O   -0.460270
    14  O   -0.456698
    15  C   -0.172909
    16  C   -0.217335
    17  C   -0.169299
    18  C    0.159142
    19  C   -0.170115
    20  C   -0.218298
    21  H    0.218956
    22  H    0.221134
    23  H    0.277555
    24  H    0.276509
    25  H    0.224073
    26  N    0.488014
    27  O   -0.459824
    28  O   -0.459170
 Sum of Mulliken charges =  -0.00000

 Dipole moment (field-independent basis, Debye):
    X=              5.9356    Y=             -6.5178    Z=             -0.2986  Tot=              8.8206
 Quadrupole moment (field-independent basis, Debye-Ang):
   XX=           -132.5428   YY=           -108.8703   ZZ=           -101.2483
   XY=            -12.5575   XZ=             -3.5623   YZ=             -2.2985

 Normal termination of Gaussian 16 at Fri May  7 08:07:45 2021.
