 Gaussian 16, Revision A.03,
 Gaussian 16:  EM64L-G16RevA.03 25-Dec-2016

 -------------
 #p 6-31g* mp2
 -------------

 ------------------------------------------------------
 Input file generated by CHIRIPA (05-May-2021 14:53:14)
 ------------------------------------------------------
 Symbolic Z-matrix:
 Charge =  0 Multiplicity = 1

                         Standard orientation:
 ---------------------------------------------------------------------
 Center     Atomic      Atomic             Coordinates (Angstroms)
 Number     Number       Type             X           Y           Z
 ---------------------------------------------------------------------
      1          6           0       -2.929142   -0.567895   -0.393513
      2          6           0       -3.085039   -1.869127    0.394190
      3          6           0       -2.773714   -3.108918   -0.444732
      4          1           0       -3.591552   -0.595416   -1.269527
      5          1           0       -1.902587   -0.502042   -0.779833
      6          1           0       -4.110599   -1.931846    0.780077
      7          1           0       -2.422322   -1.838425    1.268536
      8          1           0       -1.745111   -3.073171   -0.817960
      9          1           0       -3.442981   -3.167123   -1.309194
     10          1           0       -2.891447   -4.027874    0.137951
     11          6           0       -3.236946    0.680357    0.431625
     12          6           0       -3.081049    1.981589   -0.356079
     13          6           0       -3.392374    3.221379    0.482844
     14          1           0       -4.263501    0.614503    0.817945
     15          1           0       -2.574536    0.707878    1.307638
     16          1           0       -3.743766    1.950886   -1.230424
     17          1           0       -2.055489    2.044308   -0.741965
     18          1           0       -2.723107    3.279585    1.347306
     19          1           0       -4.420977    3.185632    0.856072
     20          1           0       -3.274641    4.140335   -0.099839
     21          6           0        3.049009    2.387923   -0.219638
     22          6           0        4.024065    1.429867    0.076864
     23          6           0        3.680663    0.079606    0.192689
     24          6           0        2.346718   -0.279032    0.004907
     25          6           0        1.352371    0.651952   -0.291455
     26          6           0        1.718619    1.996599   -0.402529
     27          1           0        3.324645    3.434658   -0.307769
     28          1           0        5.058044    1.730886    0.219413
     29          1           0        4.415335   -0.682870    0.421393
     30          1           0        0.329878    0.321428   -0.428134
     31          1           0        0.959261    2.738459   -0.632884
     32          7           0        1.971081   -1.705522    0.125011
     33          8           0        0.788926   -1.995772   -0.045002
     34          8           0        2.865923   -2.506344    0.386887
 ---------------------------------------------------------------------

 SCF Done:  E(RHF) =  -669.535832317     A.U. after   15 cycles
 E2 =    -0.2093159931D+01 EUMP2 =    -0.67162899224707D+03

 The electronic state is 1-A.
 Alpha  occ. eigenvalues --  -20.60966 -20.60950 -15.85999 -11.31283 -11.27844
 Alpha  occ. eigenvalues --  -11.27827 -11.27575 -11.26847 -11.26831 -11.22028
 Alpha  occ. eigenvalues --  -11.21470 -11.21423 -11.21107 -11.20849 -11.19882
 Alpha  occ. eigenvalues --   -1.60022  -1.39581  -1.19450  -1.08861  -1.08315
 Alpha  occ. eigenvalues --   -1.04843  -1.03263  -0.95724  -0.95690  -0.86730
 Alpha  occ. eigenvalues --   -0.86245  -0.82548  -0.79449  -0.78047  -0.77570
 Alpha  occ. eigenvalues --   -0.72239  -0.71334  -0.70570  -0.65125  -0.65053
 Alpha  occ. eigenvalues --   -0.64770  -0.62171  -0.60629  -0.59202  -0.57292
 Alpha  occ. eigenvalues --   -0.55358  -0.54969  -0.53175  -0.52938  -0.52413
 Alpha  occ. eigenvalues --   -0.52111  -0.49709  -0.48976  -0.48924  -0.47707
 Alpha  occ. eigenvalues --   -0.46516  -0.45530  -0.45403  -0.44963  -0.43545
 Alpha  occ. eigenvalues --   -0.37428  -0.36441
 Alpha virt. eigenvalues --    0.04915   0.11207   0.16416   0.18677   0.23179
 Alpha virt. eigenvalues --    0.23962   0.25233   0.27180   0.27595   0.28274
 Alpha virt. eigenvalues --    0.29374   0.31139   0.31761   0.31918   0.32651

 Mulliken charges:
               1
     1  C   -0.305971
     2  C   -0.296006
     3  C   -0.483787
     4  H    0.149056
     5  H    0.153013
     6  H    0.146626
     7  H    0.157718
     8  H    0.180894
     9  H    0.146664
    10  H    0.158576
    11  C   -0.300126
    12  C   -0.298257
    13  C   -0.476043
    14  H    0.151927
    15  H    0.149260
    16  H    0.155417
    17  H    0.137531
    18  H    0.154117
    19  H    0.158967
    20  H    0.158092
    21  C   -0.170012
    22  C   -0.219269
    23  C   -0.169011
    24  C    0.154284
    25  C   -0.177981
    26  C   -0.225109
    27  H    0.226201
    28  H    0.223814
    29  H    0.275846
    30  H    0.291687
    31  H    0.226245
    32  N    0.493562
    33  O   -0.469571
    34  O   -0.458355
 Sum of Mulliken charges =  -0.00000

 Dipole moment (field-independent basis, Debye):
    X=              1.4453    Y=              4.8790    Z=             -0.3795  Tot=              5.1027
 Quadrupole moment (field-independent basis, Debye-Ang):
   XX=            -83.1733   YY=            -98.7423   ZZ=            -95.6412
   XY=             10.4547   XZ=              0.3376   YZ=             -0.5713

 Normal termination of Gaussian 16 at Thu May  6 12:07:45 2021.
