 Gaussian 16, Revision A.03,
 Gaussian 16:  EM64L-G16RevA.03 25-Dec-2016

 -------------
 #p 6-31g* mp2
 -------------

 ------------------------------------------------------
 Input file generated by CHIRIPA (05-May-2021 14:57:24)
 ------------------------------------------------------
 Symbolic Z-matrix:
 Charge =  0 Multiplicity = 1

                         Standard orientation:
 ---------------------------------------------------------------------
 Center     Atomic      Atomic             Coordinates (Angstroms)
 Number     Number       Type             X           Y           Z
 ---------------------------------------------------------------------
      1          6           0        0.950786    0.643446    0.077425
      2          6           0        1.890799    1.627256   -0.246635
      3          6           0        3.251071    1.312874   -0.319922
      4          6           0        3.638010   -0.001289   -0.061964
      5          6           0        2.725525   -1.003687    0.263397
      6          6           0        1.370409   -0.666576    0.330961
      7          1           0       -0.103904    0.896494    0.132133
      8          1           0        1.567794    2.645464   -0.444029
      9          1           0        4.000039    2.054915   -0.568601
     10          1           0        3.077863   -2.009959    0.454950
     11          1           0        0.642609   -1.432669    0.582861
     12          7           0        5.075340   -0.346142   -0.136520
     13          8           0        5.390610   -1.511291    0.095148
     14          8           0        5.859434    0.555241   -0.425213
     15          6           0       -3.236435    2.448500    0.311496
     16          6           0       -3.987483    1.901923   -0.734306
     17          6           0       -4.085722    0.515936   -0.889019
     18          6           0       -3.417042   -0.297629    0.024364
     19          6           0       -2.661028    0.216715    1.076593
     20          6           0       -2.576768    1.605638    1.212020
     21          1           0       -3.165551    3.526309    0.424191
     22          1           0       -4.500848    2.554078   -1.435159
     23          1           0       -4.660341    0.066123   -1.689582
     24          1           0       -2.160428   -0.458920    1.759480
     25          1           0       -1.992780    2.027322    2.025154
     26          7           0       -3.513645   -1.766466   -0.129215
     27          8           0       -2.915126   -2.461659    0.688780
     28          8           0       -4.186051   -2.194734   -1.064680
 ---------------------------------------------------------------------

 SCF Done:  E(RHF) =  -868.337201156     A.U. after   16 cycles
 E2 =    -0.2601907296D+01 EUMP2 =    -0.87093910845196D+03

 The electronic state is 1-A.
 Alpha  occ. eigenvalues --  -20.61902 -20.61864 -20.60724 -20.60714 -15.86937
 Alpha  occ. eigenvalues --  -15.85775 -11.32466 -11.31144 -11.29074 -11.28967
 Alpha  occ. eigenvalues --  -11.28757 -11.28082 -11.27991 -11.27749 -11.27680
 Alpha  occ. eigenvalues --  -11.27311 -11.26773 -11.26643  -1.60951  -1.59797
 Alpha  occ. eigenvalues --   -1.40502  -1.39350  -1.20661  -1.19314  -1.09998
 Alpha  occ. eigenvalues --   -1.08709  -1.06079  -1.04718  -0.96807  -0.95542
 Alpha  occ. eigenvalues --   -0.87435  -0.86116  -0.83634  -0.82372  -0.78663
 Alpha  occ. eigenvalues --   -0.77423  -0.73142  -0.72285  -0.71992  -0.71704
 Alpha  occ. eigenvalues --   -0.71122  -0.70451  -0.66276  -0.66016  -0.64959
 Alpha  occ. eigenvalues --   -0.64734  -0.63370  -0.62060  -0.56501  -0.55665
 Alpha  occ. eigenvalues --   -0.54109  -0.53952  -0.53057  -0.52795  -0.49914
 Alpha  occ. eigenvalues --   -0.49894  -0.48752  -0.48746  -0.45868  -0.44755
 Alpha  occ. eigenvalues --   -0.38632  -0.37675  -0.37272  -0.36335
 Alpha virt. eigenvalues --    0.03827   0.05106   0.09851   0.11298   0.15256
 Alpha virt. eigenvalues --    0.16601   0.19990   0.21862   0.25692   0.26552
 Alpha virt. eigenvalues --    0.27849   0.29079   0.29903   0.30925   0.31996

 Mulliken charges:
               1
     1  C   -0.181850
     2  C   -0.222773
     3  C   -0.170831
     4  C    0.157933
     5  C   -0.170085
     6  C   -0.228270
     7  H    0.237052
     8  H    0.218830
     9  H    0.274465
    10  H    0.277658
    11  H    0.231626
    12  N    0.487957
    13  O   -0.459331
    14  O   -0.461421
    15  C   -0.171250
    16  C   -0.217492
    17  C   -0.169266
    18  C    0.163092
    19  C   -0.184841
    20  C   -0.229487
    21  H    0.229946
    22  H    0.228716
    23  H    0.280202
    24  H    0.277870
    25  H    0.229562
    26  N    0.488333
    27  O   -0.462195
    28  O   -0.454151
 Sum of Mulliken charges =  -0.00000

 Dipole moment (field-independent basis, Debye):
    X=             -5.1582    Y=              6.3270    Z=              0.7194  Tot=              8.1949
 Quadrupole moment (field-independent basis, Debye-Ang):
   XX=           -141.8950   YY=           -103.6666   ZZ=           -102.2569
   XY=            -13.1974   XZ=              2.2051   YZ=             -1.9536

 Normal termination of Gaussian 16 at Thu May  6 21:15:30 2021.
