 Gaussian 16, Revision A.03,
 Gaussian 16:  EM64L-G16RevA.03 25-Dec-2016

 -------------
 #p 6-31g* mp2
 -------------

 ------------------------------------------------------
 Input file generated by CHIRIPA (05-May-2021 14:57:22)
 ------------------------------------------------------
 Symbolic Z-matrix:
 Charge =  0 Multiplicity = 1

                         Standard orientation:
 ---------------------------------------------------------------------
 Center     Atomic      Atomic             Coordinates (Angstroms)
 Number     Number       Type             X           Y           Z
 ---------------------------------------------------------------------
      1          6           0        5.573780    1.271965   -0.108072
      2          6           0        5.597524   -0.032425    0.396434
      3          6           0        4.459970   -0.842028    0.325283
      4          6           0        3.310575   -0.312727   -0.259542
      5          6           0        3.255566    0.982861   -0.771123
      6          6           0        4.404938    1.774559   -0.689215
      7          1           0        6.462049    1.893929   -0.048622
      8          1           0        6.503861   -0.425387    0.848296
      9          1           0        4.450688   -1.855378    0.707975
     10          1           0        2.337319    1.346757   -1.215892
     11          1           0        4.383598    2.787194   -1.081847
     12          7           0        2.100042   -1.160339   -0.340560
     13          8           0        1.099890   -0.670531   -0.860579
     14          8           0        2.174301   -2.298457    0.117491
     15          6           0       -1.284022    0.384233    1.414934
     16          6           0       -1.750142   -0.873706    1.018899
     17          6           0       -2.982070   -1.002615    0.370604
     18          6           0       -3.725293    0.152612    0.133199
     19          6           0       -3.288024    1.419841    0.515585
     20          6           0       -2.053095    1.524980    1.162457
     21          1           0       -0.325866    0.475141    1.917991
     22          1           0       -1.155000   -1.761353    1.213667
     23          1           0       -3.366870   -1.964193    0.053249
     24          1           0       -3.903730    2.286493    0.307648
     25          1           0       -1.693610    2.503199    1.468894
     26          7           0       -5.031067    0.028723   -0.552368
     27          8           0       -5.666905    1.061842   -0.749885
     28          8           0       -5.393973   -1.099154   -0.879217
 ---------------------------------------------------------------------

 SCF Done:  E(RHF) =  -868.338678870     A.U. after   16 cycles
 E2 =    -0.2600244411D+01 EUMP2 =    -0.87093892328121D+03

 The electronic state is 1-A.
 Alpha  occ. eigenvalues --  -20.61815 -20.61765 -20.59923 -20.59906 -15.86787
 Alpha  occ. eigenvalues --  -15.84961 -11.31989 -11.30119 -11.28526 -11.28522
 Alpha  occ. eigenvalues --  -11.28218 -11.27489 -11.27478 -11.26717 -11.26547
 Alpha  occ. eigenvalues --  -11.26371 -11.25758 -11.25466  -1.60868  -1.58996
 Alpha  occ. eigenvalues --   -1.40416  -1.38556  -1.20141  -1.18253  -1.09569
 Alpha  occ. eigenvalues --   -1.07695  -1.05507  -1.03621  -0.96430  -0.94576
 Alpha  occ. eigenvalues --   -0.86912  -0.85039  -0.83256  -0.81414  -0.78335
 Alpha  occ. eigenvalues --   -0.76483  -0.73009  -0.72210  -0.71228  -0.71189
 Alpha  occ. eigenvalues --   -0.70314  -0.69408  -0.65785  -0.65497  -0.63917
 Alpha  occ. eigenvalues --   -0.63629  -0.62849  -0.60984  -0.56002  -0.54187
 Alpha  occ. eigenvalues --   -0.53860  -0.53586  -0.51973  -0.51728  -0.49793
 Alpha  occ. eigenvalues --   -0.49750  -0.47953  -0.47924  -0.45850  -0.44009
 Alpha  occ. eigenvalues --   -0.38117  -0.37107  -0.36163  -0.35160
 Alpha virt. eigenvalues --    0.04132   0.06048   0.10546   0.12480   0.15706
 Alpha virt. eigenvalues --    0.17610   0.20757   0.22391   0.26684   0.27633
 Alpha virt. eigenvalues --    0.28419   0.29034   0.30421   0.31775   0.32030

 Mulliken charges:
               1
     1  C   -0.170047
     2  C   -0.218504
     3  C   -0.171169
     4  C    0.155900
     5  C   -0.173015
     6  C   -0.218665
     7  H    0.228274
     8  H    0.225841
     9  H    0.276369
    10  H    0.277037
    11  H    0.225762
    12  N    0.484875
    13  O   -0.456437
    14  O   -0.463170
    15  C   -0.163537
    16  C   -0.202015
    17  C   -0.173583
    18  C    0.158080
    19  C   -0.173512
    20  C   -0.220909
    21  H    0.216901
    22  H    0.233288
    23  H    0.274223
    24  H    0.270584
    25  H    0.215602
    26  N    0.488132
    27  O   -0.464692
    28  O   -0.461613
 Sum of Mulliken charges =  -0.00000

 Dipole moment (field-independent basis, Debye):
    X=              9.3364    Y=              3.2473    Z=              2.6205  Tot=             10.2265
 Quadrupole moment (field-independent basis, Debye-Ang):
   XX=           -111.0497   YY=            -99.2825   ZZ=           -104.9416
   XY=              5.7442   XZ=             -7.3152   YZ=             -2.2964

 Normal termination of Gaussian 16 at Wed May  5 17:48:14 2021.
