 Gaussian 16, Revision A.03,
 Gaussian 16:  EM64L-G16RevA.03 25-Dec-2016

 -------------
 #p 6-31g* mp2
 -------------

 ------------------------------------------------------
 Input file generated by CHIRIPA (05-May-2021 14:51:13)
 ------------------------------------------------------
 Symbolic Z-matrix:
 Charge =  0 Multiplicity = 1

                         Standard orientation:
 ---------------------------------------------------------------------
 Center     Atomic      Atomic             Coordinates (Angstroms)
 Number     Number       Type             X           Y           Z
 ---------------------------------------------------------------------
      1          6           0        3.841869   -0.215562    0.168760
      2          6           0        4.826162   -1.316933   -0.226375
      3          6           0        5.633021   -1.842624    0.961236
      4          1           0        4.394893    0.612243    0.633356
      5          1           0        3.157064   -0.603293    0.935638
      6          1           0        5.508028   -0.927664   -0.993281
      7          1           0        4.270753   -2.142130   -0.690258
      8          1           0        4.967814   -2.256678    1.725867
      9          1           0        6.212119   -1.035312    1.421122
     10          1           0        6.330323   -2.629129    0.656214
     11          6           0        3.027896    0.320144   -1.007758
     12          6           0        2.043602    1.421516   -0.612623
     13          6           0        1.236743    1.947206   -1.800235
     14          1           0        3.712700    0.707876   -1.774636
     15          1           0        2.474872   -0.507660   -1.472354
     16          1           0        2.599012    2.246712   -0.148740
     17          1           0        1.361736    1.032247    0.154283
     18          1           0        0.657645    1.139895   -2.260120
     19          1           0        1.901950    2.361261   -2.564865
     20          1           0        0.539441    2.733712   -1.495212
     21          6           0       -3.162406    0.373811    0.991885
     22          6           0       -1.678358    0.710886    0.843665
     23          6           0       -1.147871    1.563797    1.996453
     24          1           0       -3.739205    1.306668    1.055333
     25          1           0       -3.317968   -0.155129    1.942367
     26          1           0       -1.525429    1.237812   -0.106901
     27          1           0       -1.105045   -0.222882    0.780371
     28          1           0       -1.271441    1.041522    2.950685
     29          1           0       -1.694214    2.510516    2.058374
     30          1           0       -0.085137    1.793017    1.870292
     31          6           0       -3.707358   -0.478394   -0.152886
     32          6           0       -5.191406   -0.815467   -0.004668
     33          6           0       -5.721894   -1.668380   -1.157455
     34          1           0       -3.551796    0.050546   -1.103369
     35          1           0       -3.130560   -1.411251   -0.216335
     36          1           0       -5.764720    0.118299    0.058628
     37          1           0       -5.344335   -1.342395    0.945899
     38          1           0       -5.175551   -2.615099   -1.219375
     39          1           0       -5.598324   -1.146105   -2.111687
     40          1           0       -6.784628   -1.897599   -1.031294
 ---------------------------------------------------------------------

 SCF Done:  E(RHF) =  -470.732881531     A.U. after   11 cycles
 E2 =    -0.1583523725D+01 EUMP2 =    -0.47231640525552D+03

 The electronic state is 1-A.
 Alpha  occ. eigenvalues --  -11.21612 -11.21603 -11.21599 -11.21546 -11.21417
 Alpha  occ. eigenvalues --  -11.21394 -11.21358 -11.21333 -11.21080 -11.21070
 Alpha  occ. eigenvalues --  -11.21060 -11.21047  -1.08461  -1.08401  -1.03598
 Alpha  occ. eigenvalues --   -1.03465  -0.96025  -0.95937  -0.87026  -0.86966
 Alpha  occ. eigenvalues --   -0.79606  -0.79589  -0.78293  -0.78204  -0.65080
 Alpha  occ. eigenvalues --   -0.65056  -0.61016  -0.60919  -0.59547  -0.59158
 Alpha  occ. eigenvalues --   -0.57765  -0.57381  -0.55292  -0.55223  -0.52723
 Alpha  occ. eigenvalues --   -0.52637  -0.52445  -0.52376  -0.49961  -0.49876
 Alpha  occ. eigenvalues --   -0.47981  -0.47828  -0.46683  -0.46541  -0.45825
 Alpha  occ. eigenvalues --   -0.45757  -0.45720  -0.45642  -0.43811  -0.43747
 Alpha virt. eigenvalues --    0.21073   0.23124   0.23456   0.24968   0.26039
 Alpha virt. eigenvalues --    0.26566   0.26819   0.27470   0.28181   0.29113
 Alpha virt. eigenvalues --    0.30783   0.31167   0.31433   0.31761   0.32082

 Mulliken charges:
               1
     1  C   -0.298364
     2  C   -0.299616
     3  C   -0.475702
     4  H    0.149626
     5  H    0.149175
     6  H    0.151989
     7  H    0.151881
     8  H    0.155121
     9  H    0.155205
    10  H    0.160234
    11  C   -0.297593
    12  C   -0.308809
    13  C   -0.475828
    14  H    0.149349
    15  H    0.149591
    16  H    0.151137
    17  H    0.162575
    18  H    0.155596
    19  H    0.154952
    20  H    0.160060
    21  C   -0.298161
    22  C   -0.303264
    23  C   -0.481162
    24  H    0.149775
    25  H    0.149485
    26  H    0.157017
    27  H    0.150448
    28  H    0.155050
    29  H    0.155251
    30  H    0.165102
    31  C   -0.298357
    32  C   -0.299653
    33  C   -0.475720
    34  H    0.149673
    35  H    0.149321
    36  H    0.152028
    37  H    0.151935
    38  H    0.155092
    39  H    0.155253
    40  H    0.160309
 Sum of Mulliken charges =  -0.00000

 Dipole moment (field-independent basis, Debye):
    X=             -0.0096    Y=              0.0070    Z=             -0.0040  Tot=              0.0125
 Quadrupole moment (field-independent basis, Debye-Ang):
   XX=            -84.9914   YY=            -84.1805   ZZ=            -85.6910
   XY=              0.2676   XZ=             -0.8545   YZ=             -0.6671

 Normal termination of Gaussian 16 at Thu May  6 03:58:53 2021.
