 Gaussian 16, Revision A.03,
 Gaussian 16:  EM64L-G16RevA.03 25-Dec-2016

 -------------
 #p 6-31g* mp2
 -------------

 ------------------------------------------------------
 Input file generated by CHIRIPA (05-May-2021 14:51:13)
 ------------------------------------------------------
 Symbolic Z-matrix:
 Charge =  0 Multiplicity = 1

                         Standard orientation:
 ---------------------------------------------------------------------
 Center     Atomic      Atomic             Coordinates (Angstroms)
 Number     Number       Type             X           Y           Z
 ---------------------------------------------------------------------
      1          6           0        5.627494   -0.483945   -0.047390
      2          6           0        6.874075    0.395766    0.053254
      3          6           0        8.172291   -0.410129   -0.001191
      4          1           0        5.638667   -1.219432    0.768624
      5          1           0        5.665828   -1.056288   -0.984592
      6          1           0        6.832725    0.967311    0.989331
      7          1           0        6.859836    1.129368   -0.762982
      8          1           0        8.240175   -0.968197   -0.940634
      9          1           0        8.212910   -1.131174    0.821636
     10          1           0        9.050817    0.238438    0.072382
     11          6           0        4.321774    0.307269    0.005581
     12          6           0        3.075193   -0.572441   -0.095063
     13          6           0        1.776977    0.233453   -0.040618
     14          1           0        4.283440    0.879612    0.942783
     15          1           0        4.310601    1.042756   -0.810433
     16          1           0        3.089432   -1.306043    0.721173
     17          1           0        3.116543   -1.143987   -1.031141
     18          1           0        1.736358    0.954499   -0.863446
     19          1           0        1.709093    0.791522    0.898824
     20          1           0        0.898451   -0.415114   -0.114191
     21          6           0       -5.614290   -0.151132    0.362851
     22          6           0       -6.828992   -0.166533   -0.565721
     23          6           0       -8.101030   -0.647915    0.132838
     24          1           0       -5.454293   -1.161432    0.763652
     25          1           0       -5.828200    0.496623    1.224275
     26          1           0       -6.612335   -0.812971   -1.425834
     27          1           0       -6.986000    0.843880   -0.964507
     28          1           0       -8.344552    0.001374    0.980022
     29          1           0       -7.968764   -1.664890    0.516075
     30          1           0       -8.956973   -0.651043   -0.549227
     31          6           0       -4.334979    0.327807   -0.321041
     32          6           0       -3.120276    0.343208    0.607530
     33          6           0       -1.848238    0.824591   -0.091029
     34          1           0       -4.121069   -0.319947   -1.182466
     35          1           0       -4.494974    1.338107   -0.721842
     36          1           0       -2.963269   -0.667204    1.006317
     37          1           0       -3.336933    0.989646    1.467643
     38          1           0       -1.980504    1.841565   -0.474265
     39          1           0       -1.604716    0.175302   -0.938213
     40          1           0       -0.992296    0.827718    0.591036
 ---------------------------------------------------------------------

 SCF Done:  E(RHF) =  -470.732215869     A.U. after   11 cycles
 E2 =    -0.1582639072D+01 EUMP2 =    -0.47231485494107D+03

 The electronic state is 1-A.
 Alpha  occ. eigenvalues --  -11.21582 -11.21576 -11.21539 -11.21527 -11.21373
 Alpha  occ. eigenvalues --  -11.21363 -11.21313 -11.21302 -11.21057 -11.21052
 Alpha  occ. eigenvalues --  -11.20961 -11.20898  -1.08401  -1.08380  -1.03527
 Alpha  occ. eigenvalues --   -1.03445  -0.96040  -0.95837  -0.87132  -0.86785
 Alpha  occ. eigenvalues --   -0.79682  -0.79425  -0.78220  -0.78189  -0.65029
 Alpha  occ. eigenvalues --   -0.65018  -0.60903  -0.60887  -0.59600  -0.59063
 Alpha  occ. eigenvalues --   -0.57588  -0.57504  -0.55249  -0.55206  -0.53120
 Alpha  occ. eigenvalues --   -0.52378  -0.52351  -0.52084  -0.49899  -0.49839
 Alpha  occ. eigenvalues --   -0.47884  -0.47845  -0.46601  -0.46566  -0.45755
 Alpha  occ. eigenvalues --   -0.45739  -0.45679  -0.45667  -0.43997  -0.43397
 Alpha virt. eigenvalues --    0.22504   0.23006   0.23692   0.24888   0.26624
 Alpha virt. eigenvalues --    0.26654   0.26997   0.27465   0.27597   0.29023
 Alpha virt. eigenvalues --    0.30196   0.31265   0.31459   0.31938   0.32358

 Mulliken charges:
               1
     1  C   -0.298196
     2  C   -0.299571
     3  C   -0.475673
     4  H    0.149506
     5  H    0.149423
     6  H    0.151853
     7  H    0.151905
     8  H    0.155140
     9  H    0.155122
    10  H    0.160181
    11  C   -0.298481
    12  C   -0.300574
    13  C   -0.477368
    14  H    0.149308
    15  H    0.149556
    16  H    0.151405
    17  H    0.151530
    18  H    0.155911
    19  H    0.153318
    20  H    0.165364
    21  C   -0.298160
    22  C   -0.299573
    23  C   -0.475664
    24  H    0.149462
    25  H    0.149423
    26  H    0.151827
    27  H    0.151887
    28  H    0.155137
    29  H    0.155108
    30  H    0.160152
    31  C   -0.298422
    32  C   -0.299923
    33  C   -0.479939
    34  H    0.149272
    35  H    0.149545
    36  H    0.151179
    37  H    0.151482
    38  H    0.154203
    39  H    0.154207
    40  H    0.169141
 Sum of Mulliken charges =  -0.00000

 Dipole moment (field-independent basis, Debye):
    X=              0.0094    Y=              0.0098    Z=             -0.0016  Tot=              0.0137
 Quadrupole moment (field-independent basis, Debye-Ang):
   XX=            -87.2013   YY=            -84.1580   ZZ=            -83.8114
   XY=             -0.0755   XZ=              0.2950   YZ=              0.2756

 Normal termination of Gaussian 16 at Wed May  5 16:50:20 2021.
