 Gaussian 16, Revision A.03,
 Gaussian 16:  EM64L-G16RevA.03 25-Dec-2016

 -------------
 #p 6-31g* mp2
 -------------

 ------------------------------------------------------
 Input file generated by CHIRIPA (05-May-2021 14:55:19)
 ------------------------------------------------------
 Symbolic Z-matrix:
 Charge =  0 Multiplicity = 1

                         Standard orientation:
 ---------------------------------------------------------------------
 Center     Atomic      Atomic             Coordinates (Angstroms)
 Number     Number       Type             X           Y           Z
 ---------------------------------------------------------------------
      1          6           0       -2.268099   -2.569140   -0.066787
      2          6           0       -1.292351   -1.930394    0.705508
      3          6           0       -1.271792   -0.536611    0.812718
      4          6           0       -2.246438    0.190679    0.131246
      5          6           0       -3.231559   -0.416558   -0.645986
      6          6           0       -3.232888   -1.811519   -0.738884
      7          1           0       -2.276601   -3.652322   -0.144511
      8          1           0       -0.541843   -2.516224    1.228562
      9          1           0       -0.527834   -0.016384    1.403741
     10          1           0       -3.966639    0.194272   -1.155849
     11          1           0       -3.991866   -2.304881   -1.339377
     12          7           0       -2.234852    1.666839    0.237169
     13          8           0       -3.104544    2.284917   -0.372955
     14          8           0       -1.356298    2.177822    0.928309
     15          6           0        2.465161    0.703881   -0.234572
     16          6           0        3.298235    1.983328   -0.150988
     17          6           0        2.458468    3.248340   -0.330791
     18          1           0        1.952560    0.670465   -1.205689
     19          1           0        1.679292    0.735550    0.532762
     20          1           0        4.083163    1.948634   -0.917344
     21          1           0        3.809065    2.013609    0.819967
     22          1           0        1.684839    3.310152    0.441399
     23          1           0        1.960495    3.244808   -1.305783
     24          1           0        3.073925    4.151148   -0.267454
     25          6           0        3.290609   -0.569201   -0.056727
     26          6           0        2.457534   -1.848647   -0.140310
     27          6           0        3.297301   -3.113660    0.039492
     28          1           0        4.076478   -0.600869   -0.824061
     29          1           0        3.803210   -0.535784    0.914390
     30          1           0        1.946705   -1.878928   -1.111265
     31          1           0        1.672607   -1.813953    0.626046
     32          1           0        3.795275   -3.110128    1.014484
     33          1           0        4.070931   -3.175472   -0.732699
     34          1           0        2.681845   -4.016468   -0.023845
 ---------------------------------------------------------------------

 SCF Done:  E(RHF) =  -669.534649382     A.U. after   15 cycles
 E2 =    -0.2093899594D+01 EUMP2 =    -0.67162854897573D+03

 The electronic state is 1-A.
 Alpha  occ. eigenvalues --  -20.60827 -20.60821 -15.85865 -11.31189 -11.27749
 Alpha  occ. eigenvalues --  -11.27740 -11.27481 -11.26765 -11.26732 -11.22099
 Alpha  occ. eigenvalues --  -11.21599 -11.21576 -11.21338 -11.21260 -11.20304
 Alpha  occ. eigenvalues --   -1.59887  -1.39443  -1.19358  -1.08761  -1.08523
 Alpha  occ. eigenvalues --   -1.04762  -1.03538  -0.95958  -0.95603  -0.86975
 Alpha  occ. eigenvalues --   -0.86157  -0.82454  -0.79677  -0.78322  -0.77443
 Alpha  occ. eigenvalues --   -0.72087  -0.71199  -0.70476  -0.65205  -0.65004
 Alpha  occ. eigenvalues --   -0.64793  -0.62120  -0.60926  -0.59421  -0.57556
 Alpha  occ. eigenvalues --   -0.55283  -0.55214  -0.53110  -0.52904  -0.52652
 Alpha  occ. eigenvalues --   -0.52322  -0.49886  -0.48847  -0.48843  -0.47925
 Alpha  occ. eigenvalues --   -0.46719  -0.45821  -0.45700  -0.44785  -0.43800
 Alpha  occ. eigenvalues --   -0.37332  -0.36292
 Alpha virt. eigenvalues --    0.04999   0.11226   0.16417   0.20027   0.23130
 Alpha virt. eigenvalues --    0.23924   0.25102   0.26990   0.27211   0.28433
 Alpha virt. eigenvalues --    0.29398   0.30776   0.31445   0.31712   0.32253

 Mulliken charges:
               1
     1  C   -0.172153
     2  C   -0.216990
     3  C   -0.168305
     4  C    0.156696
     5  C   -0.171188
     6  C   -0.218606
     7  H    0.225587
     8  H    0.224824
     9  H    0.277070
    10  H    0.275407
    11  H    0.223327
    12  N    0.489212
    13  O   -0.459615
    14  O   -0.462512
    15  C   -0.301351
    16  C   -0.299733
    17  C   -0.479869
    18  H    0.150536
    19  H    0.150593
    20  H    0.149687
    21  H    0.150260
    22  H    0.172891
    23  H    0.154857
    24  H    0.157486
    25  C   -0.298473
    26  C   -0.299794
    27  C   -0.475794
    28  H    0.151208
    29  H    0.149398
    30  H    0.154927
    31  H    0.140327
    32  H    0.156057
    33  H    0.158816
    34  H    0.155219
 Sum of Mulliken charges =  -0.00000

 Dipole moment (field-independent basis, Debye):
    X=             -0.0843    Y=             -5.0731    Z=             -0.4142  Tot=              5.0907
 Quadrupole moment (field-independent basis, Debye-Ang):
   XX=            -91.9972   YY=            -98.2658   ZZ=            -92.6614
   XY=             12.0975   XZ=              3.3885   YZ=             -0.5909

 Normal termination of Gaussian 16 at Wed May  5 15:51:30 2021.
