 Gaussian 16, Revision A.03,
 Gaussian 16:  EM64L-G16RevA.03 25-Dec-2016

 -------------
 #p 6-31g* mp2
 -------------

 ------------------------------------------------------
 Input file generated by CHIRIPA (05-May-2021 14:53:13)
 ------------------------------------------------------
 Symbolic Z-matrix:
 Charge =  0 Multiplicity = 1

                         Standard orientation:
 ---------------------------------------------------------------------
 Center     Atomic      Atomic             Coordinates (Angstroms)
 Number     Number       Type             X           Y           Z
 ---------------------------------------------------------------------
      1          6           0       -5.413340    0.224844   -0.266442
      2          6           0       -6.814446   -0.385408   -0.216675
      3          6           0       -7.811016    0.348240   -1.114674
      4          1           0       -5.469413    1.280738    0.031702
      5          1           0       -5.051944    0.211801   -1.304044
      6          1           0       -7.172533   -0.372482    0.820736
      7          1           0       -6.755002   -1.440023   -0.514788
      8          1           0       -7.479961    0.323824   -2.157942
      9          1           0       -7.899864    1.397431   -0.814830
     10          1           0       -8.806124   -0.104568   -1.063830
     11          6           0       -4.405815   -0.497669    0.626081
     12          6           0       -3.004708    0.112584    0.576314
     13          6           0       -2.008139   -0.621065    1.474313
     14          1           0       -4.767211   -0.484626    1.663683
     15          1           0       -4.349742   -1.553562    0.327937
     16          1           0       -3.064152    1.167198    0.874426
     17          1           0       -2.646621    0.099657   -0.461097
     18          1           0       -1.919291   -1.670255    1.174468
     19          1           0       -2.339194   -0.596649    2.517580
     20          1           0       -1.013031   -0.168257    1.423469
     21          6           0        6.241819   -0.641541   -0.268531
     22          6           0        5.210044   -1.567387   -0.454999
     23          6           0        3.873189   -1.164100   -0.386250
     24          6           0        3.602983    0.178897   -0.128105
     25          6           0        4.608804    1.125166    0.062136
     26          6           0        5.938441    0.699417   -0.011013
     27          1           0        7.277516   -0.963549   -0.323646
     28          1           0        5.442687   -2.609436   -0.655136
     29          1           0        3.054868   -1.859836   -0.526673
     30          1           0        4.345651    2.157142    0.260110
     31          1           0        6.737680    1.420645    0.134213
     32          7           0        2.191536    0.617728   -0.052995
     33          8           0        1.979861    1.806643    0.175726
     34          8           0        1.323643   -0.235539   -0.224265
 ---------------------------------------------------------------------

 SCF Done:  E(RHF) =  -669.536242993     A.U. after   15 cycles
 E2 =    -0.2090815738D+01 EUMP2 =    -0.67162705873148D+03

 The electronic state is 1-A.
 Alpha  occ. eigenvalues --  -20.60987 -20.60970 -15.86002 -11.31312 -11.27872
 Alpha  occ. eigenvalues --  -11.27868 -11.27608 -11.26876 -11.26866 -11.20917
 Alpha  occ. eigenvalues --  -11.20519 -11.20497 -11.20317 -11.20161 -11.19352
 Alpha  occ. eigenvalues --   -1.60039  -1.39594  -1.19478  -1.08886  -1.07436
 Alpha  occ. eigenvalues --   -1.04871  -1.02446  -0.95731  -0.94895  -0.86273
 Alpha  occ. eigenvalues --   -0.85925  -0.82561  -0.78561  -0.77617  -0.77200
 Alpha  occ. eigenvalues --   -0.72221  -0.71351  -0.70586  -0.65133  -0.64875
 Alpha  occ. eigenvalues --   -0.64081  -0.62218  -0.59859  -0.58313  -0.56465
 Alpha  occ. eigenvalues --   -0.55376  -0.54216  -0.53205  -0.52963  -0.51569
 Alpha  occ. eigenvalues --   -0.51340  -0.48980  -0.48969  -0.48861  -0.46842
 Alpha  occ. eigenvalues --   -0.45628  -0.45006  -0.44746  -0.44652  -0.42667
 Alpha  occ. eigenvalues --   -0.37456  -0.36472
 Alpha virt. eigenvalues --    0.04893   0.11184   0.16390   0.21321   0.23780
 Alpha virt. eigenvalues --    0.25457   0.27240   0.27585   0.28196   0.28453
 Alpha virt. eigenvalues --    0.29145   0.30885   0.32392   0.32444   0.32674

 Mulliken charges:
               1
     1  C   -0.297442
     2  C   -0.298769
     3  C   -0.475138
     4  H    0.148868
     5  H    0.149068
     6  H    0.150543
     7  H    0.150451
     8  H    0.154504
     9  H    0.154583
    10  H    0.157895
    11  C   -0.297471
    12  C   -0.297867
    13  C   -0.480946
    14  H    0.146150
    15  H    0.146667
    16  H    0.150356
    17  H    0.156513
    18  H    0.148508
    19  H    0.144227
    20  H    0.184555
    21  C   -0.170520
    22  C   -0.218572
    23  C   -0.170712
    24  C    0.158060
    25  C   -0.170683
    26  C   -0.218600
    27  H    0.226062
    28  H    0.223914
    29  H    0.276038
    30  H    0.275895
    31  H    0.223874
    32  N    0.488372
    33  O   -0.459182
    34  O   -0.459200
 Sum of Mulliken charges =  -0.00000

 Dipole moment (field-independent basis, Debye):
    X=              5.3866    Y=             -1.4815    Z=             -0.3311  Tot=              5.5964
 Quadrupole moment (field-independent basis, Debye-Ang):
   XX=            -61.0388   YY=            -90.8784   ZZ=            -95.4501
   XY=             -3.1842   XZ=             -1.7830   YZ=              2.0585

 Normal termination of Gaussian 16 at Thu May  6 20:17:35 2021.
