 Gaussian 16, Revision A.03,
 Gaussian 16:  EM64L-G16RevA.03 25-Dec-2016

 -------------
 #p 6-31g* mp2
 -------------

 ------------------------------------------------------
 Input file generated by CHIRIPA (05-May-2021 14:55:25)
 ------------------------------------------------------
 Symbolic Z-matrix:
 Charge =  0 Multiplicity = 1

                         Standard orientation:
 ---------------------------------------------------------------------
 Center     Atomic      Atomic             Coordinates (Angstroms)
 Number     Number       Type             X           Y           Z
 ---------------------------------------------------------------------
      1          6           0        3.601642   -2.265850    0.022411
      2          6           0        4.144676   -1.436527   -0.964433
      3          6           0        3.893602   -0.061251   -0.953211
      4          6           0        3.091521    0.453400    0.064183
      5          6           0        2.536112   -0.346859    1.061377
      6          6           0        2.800506   -1.719332    1.030389
      7          1           0        3.801857   -3.333109    0.006016
      8          1           0        4.767209   -1.858198   -1.748455
      9          1           0        4.301320    0.603739   -1.704858
     10          1           0        1.919331    0.102582    1.830144
     11          1           0        2.377450   -2.360989    1.798077
     12          7           0        2.818669    1.907860    0.086526
     13          8           0        2.108835    2.336701    0.993646
     14          8           0        3.319808    2.591483   -0.803505
     15          6           0       -3.404907   -0.596023   -0.405416
     16          6           0       -2.153363   -0.558194    0.472189
     17          6           0       -0.941797   -1.207179   -0.197678
     18          1           0       -3.638024   -1.640018   -0.655769
     19          1           0       -3.193448   -0.086443   -1.355685
     20          1           0       -2.367547   -1.066485    1.421073
     21          1           0       -1.923309    0.485818    0.720640
     22          1           0       -0.700091   -0.695936   -1.135127
     23          1           0       -1.146853   -2.257059   -0.430714
     24          1           0       -0.058250   -1.169089    0.447111
     25          6           0       -4.624506    0.048982    0.250536
     26          6           0       -5.876051    0.011154   -0.627070
     27          6           0       -7.087616    0.660138    0.042798
     28          1           0       -4.835966   -0.460598    1.200803
     29          1           0       -4.391390    1.092977    0.500889
     30          1           0       -6.106105   -1.032859   -0.875521
     31          1           0       -5.661867    0.519445   -1.575955
     32          1           0       -6.882561    1.710019    0.275833
     33          1           0       -7.329323    0.148895    0.980246
     34          1           0       -7.971164    0.622049   -0.601992
 ---------------------------------------------------------------------

 SCF Done:  E(RHF) =  -669.534590709     A.U. after   15 cycles
 E2 =    -0.2092344378D+01 EUMP2 =    -0.67162693508728D+03

 The electronic state is 1-A.
 Alpha  occ. eigenvalues --  -20.60791 -20.60786 -15.85846 -11.31208 -11.27788
 Alpha  occ. eigenvalues --  -11.27784 -11.27527 -11.26798 -11.26788 -11.21553
 Alpha  occ. eigenvalues --  -11.21510 -11.21329 -11.21258 -11.21064 -11.20971
 Alpha  occ. eigenvalues --   -1.59867  -1.39420  -1.19397  -1.08782  -1.08359
 Alpha  occ. eigenvalues --   -1.04817  -1.03476  -0.95941  -0.95616  -0.86956
 Alpha  occ. eigenvalues --   -0.86196  -0.82459  -0.79541  -0.78168  -0.77503
 Alpha  occ. eigenvalues --   -0.72065  -0.71190  -0.70506  -0.65053  -0.64985
 Alpha  occ. eigenvalues --   -0.64803  -0.62170  -0.60870  -0.59351  -0.57572
 Alpha  occ. eigenvalues --   -0.55297  -0.55217  -0.53437  -0.52895  -0.52428
 Alpha  occ. eigenvalues --   -0.52249  -0.49868  -0.48823  -0.48819  -0.47862
 Alpha  occ. eigenvalues --   -0.46565  -0.45712  -0.45630  -0.44827  -0.43749
 Alpha  occ. eigenvalues --   -0.37367  -0.36296
 Alpha virt. eigenvalues --    0.05012   0.11216   0.16432   0.21161   0.22972
 Alpha virt. eigenvalues --    0.24325   0.26706   0.26870   0.27585   0.28052
 Alpha virt. eigenvalues --    0.28712   0.30867   0.31442   0.31889   0.32260

 Mulliken charges:
               1
     1  C   -0.170314
     2  C   -0.218336
     3  C   -0.171224
     4  C    0.160256
     5  C   -0.172516
     6  C   -0.216271
     7  H    0.225894
     8  H    0.223593
     9  H    0.275697
    10  H    0.276329
    11  H    0.224176
    12  N    0.488070
    13  O   -0.460678
    14  O   -0.460447
    15  C   -0.298299
    16  C   -0.301152
    17  C   -0.478786
    18  H    0.147672
    19  H    0.151080
    20  H    0.148216
    21  H    0.158649
    22  H    0.157279
    23  H    0.151005
    24  H    0.159152
    25  C   -0.298646
    26  C   -0.299656
    27  C   -0.475772
    28  H    0.148363
    29  H    0.152347
    30  H    0.150776
    31  H    0.152643
    32  H    0.156361
    33  H    0.154579
    34  H    0.159960
 Sum of Mulliken charges =  -0.00000

 Dipole moment (field-independent basis, Debye):
    X=              1.0339    Y=             -5.0743    Z=             -0.0991  Tot=              5.1795
 Quadrupole moment (field-independent basis, Debye-Ang):
   XX=            -88.6588   YY=            -99.4368   ZZ=            -91.6303
   XY=            -14.9033   XZ=             -2.6365   YZ=             -1.4454

 Normal termination of Gaussian 16 at Wed May  5 20:50:53 2021.
