 Gaussian 16, Revision A.03,
 Gaussian 16:  EM64L-G16RevA.03 25-Dec-2016

 -------------
 #p 6-31g* mp2
 -------------

 ------------------------------------------------------
 Input file generated by CHIRIPA (05-May-2021 14:57:21)
 ------------------------------------------------------
 Symbolic Z-matrix:
 Charge =  0 Multiplicity = 1

                         Standard orientation:
 ---------------------------------------------------------------------
 Center     Atomic      Atomic             Coordinates (Angstroms)
 Number     Number       Type             X           Y           Z
 ---------------------------------------------------------------------
      1          6           0        3.493515    1.999274    1.328846
      2          6           0        4.296349    1.521620    0.287777
      3          6           0        3.976348    0.327496   -0.365074
      4          6           0        2.841167   -0.366575    0.050764
      5          6           0        2.021433    0.083375    1.084626
      6          6           0        2.360616    1.279895    1.723252
      7          1           0        3.749550    2.927828    1.830471
      8          1           0        5.176770    2.078203   -0.020640
      9          1           0        4.580361   -0.065183   -1.174017
     10          1           0        1.150069   -0.493542    1.369773
     11          1           0        1.735288    1.648447    2.531447
     12          7           0        2.492243   -1.632009   -0.632851
     13          8           0        1.486844   -2.224838   -0.247671
     14          8           0        3.230762   -2.007066   -1.540903
     15          6           0       -2.348609    2.221006   -1.507837
     16          6           0       -1.598409    1.052992   -1.679500
     17          6           0       -1.894246   -0.095981   -0.939983
     18          6           0       -2.951853   -0.041426   -0.033459
     19          6           0       -3.717756    1.107142    0.160119
     20          6           0       -3.404027    2.244312   -0.590193
     21          1           0       -2.111846    3.108972   -2.086504
     22          1           0       -0.778197    1.031995   -2.391438
     23          1           0       -1.329758   -1.013587   -1.052984
     24          1           0       -4.529472    1.097535    0.877365
     25          1           0       -3.988348    3.150004   -0.454791
     26          7           0       -3.274513   -1.251545    0.755148
     27          8           0       -4.211257   -1.177700    1.547420
     28          8           0       -2.584561   -2.250969    0.566054
 ---------------------------------------------------------------------

 SCF Done:  E(RHF) =  -868.338178052     A.U. after   16 cycles
 E2 =    -0.2599980213D+01 EUMP2 =    -0.87093815826540D+03

 The electronic state is 1-A.
 Alpha  occ. eigenvalues --  -20.61090 -20.61085 -20.60484 -20.60433 -15.86117
 Alpha  occ. eigenvalues --  -15.85513 -11.31461 -11.30979 -11.28043 -11.27986
 Alpha  occ. eigenvalues --  -11.27768 -11.27617 -11.27433 -11.27372 -11.27046
 Alpha  occ. eigenvalues --  -11.27003 -11.26655 -11.26571  -1.60163  -1.59547
 Alpha  occ. eigenvalues --   -1.39711  -1.39088  -1.19636  -1.19179  -1.09038
 Alpha  occ. eigenvalues --   -1.08566  -1.05022  -1.04579  -0.95868  -0.95368
 Alpha  occ. eigenvalues --   -0.86423  -0.85971  -0.82687  -0.82184  -0.77744
 Alpha  occ. eigenvalues --   -0.77199  -0.72316  -0.71718  -0.71499  -0.70891
 Alpha  occ. eigenvalues --   -0.70729  -0.70260  -0.65279  -0.65015  -0.64817
 Alpha  occ. eigenvalues --   -0.64571  -0.62359  -0.61884  -0.55528  -0.55097
 Alpha  occ. eigenvalues --   -0.53380  -0.53112  -0.52924  -0.52650  -0.49098
 Alpha  occ. eigenvalues --   -0.49078  -0.48509  -0.48460  -0.45110  -0.44469
 Alpha  occ. eigenvalues --   -0.37634  -0.37202  -0.36661  -0.36165
 Alpha virt. eigenvalues --    0.04718   0.05307   0.10992   0.11443   0.16204
 Alpha virt. eigenvalues --    0.16757   0.21158   0.21659   0.27062   0.27446
 Alpha virt. eigenvalues --    0.27975   0.28648   0.30635   0.31208   0.32002

 Mulliken charges:
               1
     1  C   -0.171242
     2  C   -0.219162
     3  C   -0.172144
     4  C    0.155093
     5  C   -0.172611
     6  C   -0.218709
     7  H    0.226006
     8  H    0.223637
     9  H    0.275537
    10  H    0.280827
    11  H    0.225584
    12  N    0.486103
    13  O   -0.456951
    14  O   -0.459665
    15  C   -0.171726
    16  C   -0.220768
    17  C   -0.179910
    18  C    0.154513
    19  C   -0.172272
    20  C   -0.219832
    21  H    0.223825
    22  H    0.224671
    23  H    0.293209
    24  H    0.274424
    25  H    0.221614
    26  N    0.486039
    27  O   -0.464156
    28  O   -0.451934
 Sum of Mulliken charges =  -0.00000

 Dipole moment (field-independent basis, Debye):
    X=              2.4989    Y=              8.5504    Z=             -0.3520  Tot=              8.9150
 Quadrupole moment (field-independent basis, Debye-Ang):
   XX=            -99.7461   YY=           -108.2286   ZZ=           -102.6890
   XY=             -1.6936   XZ=             10.7560   YZ=              0.3762

 Normal termination of Gaussian 16 at Thu May  6 06:29:55 2021.
