 Gaussian 16, Revision A.03,
 Gaussian 16:  EM64L-G16RevA.03 25-Dec-2016

 -------------
 #p 6-31g* mp2
 -------------

 ------------------------------------------------------
 Input file generated by CHIRIPA (05-May-2021 14:57:21)
 ------------------------------------------------------
 Symbolic Z-matrix:
 Charge =  0 Multiplicity = 1

                         Standard orientation:
 ---------------------------------------------------------------------
 Center     Atomic      Atomic             Coordinates (Angstroms)
 Number     Number       Type             X           Y           Z
 ---------------------------------------------------------------------
      1          6           0        4.975746    2.231748    0.251144
      2          6           0        3.586378    2.194987    0.093576
      3          6           0        2.918829    0.973693   -0.038202
      4          6           0        3.675291   -0.196835   -0.007872
      5          6           0        5.060596   -0.193006    0.147706
      6          6           0        5.707131    1.039736    0.277660
      7          1           0        5.486152    3.184926    0.352804
      8          1           0        3.015807    3.119138    0.072622
      9          1           0        1.844148    0.916294   -0.161431
     10          1           0        5.602311   -1.130914    0.164782
     11          1           0        6.786228    1.065252    0.399899
     12          7           0        2.979710   -1.495824   -0.146414
     13          8           0        3.668999   -2.512987   -0.116475
     14          8           0        1.758395   -1.472212   -0.282318
     15          6           0       -5.951189    1.277519    0.120861
     16          6           0       -4.786073    1.905714   -0.331240
     17          6           0       -3.582948    1.198083   -0.410603
     18          6           0       -3.580989   -0.142428   -0.028092
     19          6           0       -4.725155   -0.796316    0.426447
     20          6           0       -5.917072   -0.069117    0.497597
     21          1           0       -6.881453    1.834823    0.179322
     22          1           0       -4.809606    2.951420   -0.624481
     23          1           0       -2.666246    1.659703   -0.756988
     24          1           0       -4.670477   -1.839872    0.711786
     25          1           0       -6.820376   -0.559570    0.849084
     26          7           0       -2.313227   -0.901923   -0.107763
     27          8           0       -2.337856   -2.081949    0.235121
     28          8           0       -1.318930   -0.302808   -0.511585
 ---------------------------------------------------------------------

 SCF Done:  E(RHF) =  -868.335249268     A.U. after   16 cycles
 E2 =    -0.2600600437D+01 EUMP2 =    -0.87093584970494D+03

 The electronic state is 1-A.
 Alpha  occ. eigenvalues --  -20.60180 -20.60159 -20.59467 -20.59339 -15.85248
 Alpha  occ. eigenvalues --  -15.84453 -11.30900 -11.30223 -11.27538 -11.27473
 Alpha  occ. eigenvalues --  -11.27287 -11.26893 -11.26772 -11.26722 -11.26598
 Alpha  occ. eigenvalues --  -11.26554 -11.25991 -11.25964  -1.59225  -1.58499
 Alpha  occ. eigenvalues --   -1.38783  -1.38027  -1.19095  -1.18454  -1.08429
 Alpha  occ. eigenvalues --   -1.07788  -1.04545  -1.03913  -0.95216  -0.94540
 Alpha  occ. eigenvalues --   -0.85929  -0.85291  -0.82058  -0.81357  -0.77062
 Alpha  occ. eigenvalues --   -0.76324  -0.71465  -0.70626  -0.70564  -0.70204
 Alpha  occ. eigenvalues --   -0.69854  -0.69556  -0.64744  -0.64549  -0.64088
 Alpha  occ. eigenvalues --   -0.63929  -0.61895  -0.61237  -0.55027  -0.54427
 Alpha  occ. eigenvalues --   -0.52854  -0.52643  -0.52234  -0.52007  -0.48203
 Alpha  occ. eigenvalues --   -0.48175  -0.47479  -0.47338  -0.44134  -0.43349
 Alpha  occ. eigenvalues --   -0.37088  -0.36481  -0.36162  -0.35539
 Alpha virt. eigenvalues --    0.05480   0.06194   0.11488   0.12109   0.16916
 Alpha virt. eigenvalues --    0.17599   0.21551   0.22183   0.27451   0.27958
 Alpha virt. eigenvalues --    0.28424   0.29179   0.31041   0.31681   0.32634

 Mulliken charges:
               1
     1  C   -0.171973
     2  C   -0.219569
     3  C   -0.174948
     4  C    0.157180
     5  C   -0.171713
     6  C   -0.219153
     7  H    0.221439
     8  H    0.218897
     9  H    0.288478
    10  H    0.273927
    11  H    0.219999
    12  N    0.485544
    13  O   -0.468848
    14  O   -0.440990
    15  C   -0.171728
    16  C   -0.218232
    17  C   -0.171447
    18  C    0.159336
    19  C   -0.171035
    20  C   -0.218311
    21  H    0.224288
    22  H    0.221080
    23  H    0.270986
    24  H    0.276826
    25  H    0.222960
    26  N    0.488967
    27  O   -0.453261
    28  O   -0.458699
 Sum of Mulliken charges =  -0.00000

 Dipole moment (field-independent basis, Debye):
    X=             -2.3217    Y=              7.0044    Z=              0.7403  Tot=              7.4162
 Quadrupole moment (field-independent basis, Debye-Ang):
   XX=            -53.0359   YY=           -104.0710   ZZ=           -105.9718
   XY=              7.3823   XZ=              0.1914   YZ=             -2.0906

 Normal termination of Gaussian 16 at Thu May  6 06:29:44 2021.
