 Gaussian 16, Revision A.03,
 Gaussian 16:  EM64L-G16RevA.03 25-Dec-2016

 -------------
 #p 6-31g* mp2
 -------------

 ------------------------------------------------------
 Input file generated by CHIRIPA (05-May-2021 14:53:14)
 ------------------------------------------------------
 Symbolic Z-matrix:
 Charge =  0 Multiplicity = 1

                         Standard orientation:
 ---------------------------------------------------------------------
 Center     Atomic      Atomic             Coordinates (Angstroms)
 Number     Number       Type             X           Y           Z
 ---------------------------------------------------------------------
      1          6           0        3.444182   -0.440109   -0.348052
      2          6           0        2.997487   -1.862599   -0.008980
      3          6           0        3.939418   -2.927797   -0.571043
      4          1           0        3.510617   -0.333810   -1.439487
      5          1           0        4.457828   -0.278289    0.044032
      6          1           0        1.984444   -2.021230   -0.400382
      7          1           0        2.931922   -1.965467    1.081770
      8          1           0        4.950292   -2.797832   -0.171238
      9          1           0        3.997430   -2.853911   -1.661811
     10          1           0        3.601246   -3.937205   -0.316887
     11          6           0        2.512609    0.635920    0.206982
     12          6           0        2.959303    2.058410   -0.132090
     13          6           0        2.017372    3.123608    0.429973
     14          1           0        1.498962    0.474100   -0.185102
     15          1           0        2.446173    0.529621    1.298418
     16          1           0        3.024868    2.161278   -1.222840
     17          1           0        3.972347    2.217041    0.259312
     18          1           0        1.959361    3.049722    1.520742
     19          1           0        1.006498    2.993643    0.030168
     20          1           0        2.355544    4.133016    0.175817
     21          6           0       -1.926822   -0.394236    2.525920
     22          6           0       -2.946105   -1.105810    1.884635
     23          6           0       -3.176767   -0.937676    0.516033
     24          6           0       -2.365546   -0.045770   -0.183764
     25          6           0       -1.342179    0.677634    0.426724
     26          6           0       -1.129518    0.493651    1.796203
     27          1           0       -1.754631   -0.531003    3.589424
     28          1           0       -3.566861   -1.796028    2.448824
     29          1           0       -3.958951   -1.475809   -0.005522
     30          1           0       -0.739797    1.358578   -0.162231
     31          1           0       -0.337205    1.047605    2.291602
     32          7           0       -2.600209    0.140615   -1.633106
     33          8           0       -1.871662    0.932379   -2.227217
     34          8           0       -3.508241   -0.508588   -2.147547
 ---------------------------------------------------------------------

 SCF Done:  E(RHF) =  -669.534519572     A.U. after   15 cycles
 E2 =    -0.2093540003D+01 EUMP2 =    -0.67162805957539D+03

 The electronic state is 1-A.
 Alpha  occ. eigenvalues --  -20.60778 -20.60772 -15.85827 -11.31155 -11.27719
 Alpha  occ. eigenvalues --  -11.27679 -11.27448 -11.26738 -11.26690 -11.22052
 Alpha  occ. eigenvalues --  -11.21852 -11.21808 -11.21803 -11.21638 -11.21199
 Alpha  occ. eigenvalues --   -1.59852  -1.39407  -1.19326  -1.08814  -1.08725
 Alpha  occ. eigenvalues --   -1.04726  -1.03908  -0.96381  -0.95571  -0.87399
 Alpha  occ. eigenvalues --   -0.86125  -0.82411  -0.79985  -0.78664  -0.77416
 Alpha  occ. eigenvalues --   -0.72047  -0.71175  -0.70459  -0.65506  -0.64970
 Alpha  occ. eigenvalues --   -0.64678  -0.62147  -0.61247  -0.59729  -0.57997
 Alpha  occ. eigenvalues --   -0.55698  -0.55228  -0.53152  -0.53023  -0.52844
 Alpha  occ. eigenvalues --   -0.52752  -0.50334  -0.48810  -0.48802  -0.48279
 Alpha  occ. eigenvalues --   -0.46974  -0.46150  -0.46040  -0.44816  -0.44149
 Alpha  occ. eigenvalues --   -0.37307  -0.36266
 Alpha virt. eigenvalues --    0.05040   0.11251   0.16524   0.19540   0.22932
 Alpha virt. eigenvalues --    0.23777   0.24825   0.26229   0.27522   0.28131
 Alpha virt. eigenvalues --    0.29145   0.30572   0.31333   0.31549   0.32301

 Mulliken charges:
               1
     1  C   -0.298380
     2  C   -0.300041
     3  C   -0.476115
     4  H    0.154553
     5  H    0.149618
     6  H    0.155030
     7  H    0.148781
     8  H    0.154703
     9  H    0.157795
    10  H    0.160534
    11  C   -0.304613
    12  C   -0.300023
    13  C   -0.481790
    14  H    0.153253
    15  H    0.142927
    16  H    0.159263
    17  H    0.153671
    18  H    0.149809
    19  H    0.153122
    20  H    0.167602
    21  C   -0.171350
    22  C   -0.218440
    23  C   -0.170846
    24  C    0.158887
    25  C   -0.179158
    26  C   -0.219284
    27  H    0.225433
    28  H    0.223285
    29  H    0.275352
    30  H    0.283646
    31  H    0.226722
    32  N    0.487599
    33  O   -0.461338
    34  O   -0.460207
 Sum of Mulliken charges =  -0.00000

 Dipole moment (field-independent basis, Debye):
    X=              0.9460    Y=             -0.6603    Z=              5.0083  Tot=              5.1395
 Quadrupole moment (field-independent basis, Debye-Ang):
   XX=            -95.9520   YY=            -93.5463   ZZ=            -96.6401
   XY=              5.1370   XZ=            -12.2167   YZ=             -0.6482

 Normal termination of Gaussian 16 at Thu May  6 05:50:57 2021.
