 Gaussian 16, Revision A.03,
 Gaussian 16:  EM64L-G16RevA.03 25-Dec-2016

 -------------
 #p 6-31g* mp2
 -------------

 ------------------------------------------------------
 Input file generated by CHIRIPA (05-May-2021 14:55:23)
 ------------------------------------------------------
 Symbolic Z-matrix:
 Charge =  0 Multiplicity = 1

                         Standard orientation:
 ---------------------------------------------------------------------
 Center     Atomic      Atomic             Coordinates (Angstroms)
 Number     Number       Type             X           Y           Z
 ---------------------------------------------------------------------
      1          6           0       -0.457511   -2.508120    1.060936
      2          6           0       -0.801489   -2.480402   -0.294583
      3          6           0       -1.520293   -1.403913   -0.822825
      4          6           0       -1.880523   -0.367394    0.036914
      5          6           0       -1.552646   -0.366036    1.391826
      6          6           0       -0.833525   -1.452709    1.898338
      7          1           0        0.100997   -3.348318    1.462846
      8          1           0       -0.510804   -3.298660   -0.947272
      9          1           0       -1.799681   -1.356890   -1.868363
     10          1           0       -1.856452    0.464275    2.017689
     11          1           0       -0.567759   -1.471555    2.951456
     12          7           0       -2.641657    0.777628   -0.510809
     13          8           0       -2.947170    1.678450    0.267534
     14          8           0       -2.918308    0.752592   -1.708087
     15          6           0        2.218635    0.087822   -0.602441
     16          6           0        2.980672   -1.101280   -0.016508
     17          6           0        2.915676   -2.342126   -0.907504
     18          1           0        1.169572   -0.198314   -0.759081
     19          1           0        2.629248    0.325105   -1.593648
     20          1           0        2.569659   -1.335372    0.973889
     21          1           0        4.028001   -0.812220    0.138934
     22          1           0        3.344187   -2.131793   -1.892764
     23          1           0        1.877558   -2.657918   -1.053066
     24          1           0        3.466976   -3.180103   -0.469641
     25          6           0        2.274366    1.335812    0.276845
     26          6           0        1.512329    2.524915   -0.309088
     27          6           0        1.577326    3.765760    0.581907
     28          1           0        1.863755    1.098529    1.268052
     29          1           0        3.323430    1.621948    0.433486
     30          1           0        0.465000    2.235854   -0.464530
     31          1           0        1.923343    2.759007   -1.299484
     32          1           0        2.615443    4.081553    0.727470
     33          1           0        1.148815    3.555427    1.567168
     34          1           0        1.026026    4.603737    0.144046
 ---------------------------------------------------------------------

 SCF Done:  E(RHF) =  -669.533912780     A.U. after   15 cycles
 E2 =    -0.2097236713D+01 EUMP2 =    -0.67163114949255D+03

 The electronic state is 1-A.
 Alpha  occ. eigenvalues --  -20.60932 -20.60925 -15.85986 -11.31397 -11.27981
 Alpha  occ. eigenvalues --  -11.27942 -11.27701 -11.26998 -11.26954 -11.21874
 Alpha  occ. eigenvalues --  -11.21523 -11.21412 -11.21357 -11.21302 -11.20814
 Alpha  occ. eigenvalues --   -1.60006  -1.39556  -1.19595  -1.08977  -1.08446
 Alpha  occ. eigenvalues --   -1.04999  -1.03585  -0.96062  -0.95772  -0.87089
 Alpha  occ. eigenvalues --   -0.86372  -0.82615  -0.79669  -0.78253  -0.77660
 Alpha  occ. eigenvalues --   -0.72198  -0.71339  -0.70664  -0.65246  -0.65192
 Alpha  occ. eigenvalues --   -0.64952  -0.62352  -0.61020  -0.59438  -0.57642
 Alpha  occ. eigenvalues --   -0.55470  -0.55364  -0.53314  -0.53092  -0.52740
 Alpha  occ. eigenvalues --   -0.52461  -0.50011  -0.48962  -0.48950  -0.47966
 Alpha  occ. eigenvalues --   -0.46706  -0.45766  -0.45682  -0.44939  -0.43811
 Alpha  occ. eigenvalues --   -0.37498  -0.36494
 Alpha virt. eigenvalues --    0.04846   0.10897   0.16264   0.20617   0.22873
 Alpha virt. eigenvalues --    0.24189   0.26068   0.26531   0.27381   0.28080
 Alpha virt. eigenvalues --    0.28648   0.30060   0.31375   0.31857   0.32201

 Mulliken charges:
               1
     1  C   -0.166978
     2  C   -0.217453
     3  C   -0.176264
     4  C    0.160793
     5  C   -0.171359
     6  C   -0.218231
     7  H    0.228139
     8  H    0.225854
     9  H    0.277051
    10  H    0.276707
    11  H    0.224876
    12  N    0.488526
    13  O   -0.459892
    14  O   -0.459286
    15  C   -0.304411
    16  C   -0.296826
    17  C   -0.479586
    18  H    0.158156
    19  H    0.149122
    20  H    0.145956
    21  H    0.152520
    22  H    0.157880
    23  H    0.149494
    24  H    0.156666
    25  C   -0.297347
    26  C   -0.300225
    27  C   -0.474545
    28  H    0.145118
    29  H    0.148231
    30  H    0.153297
    31  H    0.152872
    32  H    0.152814
    33  H    0.153144
    34  H    0.165188
 Sum of Mulliken charges =  -0.00000

 Dipole moment (field-independent basis, Debye):
    X=              2.4637    Y=             -3.9944    Z=              1.9212  Tot=              5.0711
 Quadrupole moment (field-independent basis, Debye-Ang):
   XX=           -105.3870   YY=            -92.1717   ZZ=            -90.6327
   XY=              7.1465   XZ=             -4.0670   YZ=              0.4696

 Normal termination of Gaussian 16 at Wed May  5 23:56:22 2021.
