 Gaussian 16, Revision A.03,
 Gaussian 16:  EM64L-G16RevA.03 25-Dec-2016

 -------------
 #p 6-31g* mp2
 -------------

 ------------------------------------------------------
 Input file generated by CHIRIPA (05-May-2021 14:53:17)
 ------------------------------------------------------
 Symbolic Z-matrix:
 Charge =  0 Multiplicity = 1

                         Standard orientation:
 ---------------------------------------------------------------------
 Center     Atomic      Atomic             Coordinates (Angstroms)
 Number     Number       Type             X           Y           Z
 ---------------------------------------------------------------------
      1          6           0       -3.378093    1.289770   -0.110783
      2          6           0       -2.291150    2.012922    0.685202
      3          6           0       -2.233166    3.510269    0.381256
      4          1           0       -3.199412    1.440827   -1.184188
      5          1           0       -4.351766    1.747958    0.111525
      6          1           0       -1.319997    1.552609    0.462516
      7          1           0       -2.472331    1.859965    1.756833
      8          1           0       -3.188050    3.989246    0.620793
      9          1           0       -2.029168    3.680143   -0.680878
     10          1           0       -1.449313    4.007551    0.961035
     11          6           0       -3.448474   -0.207874    0.182197
     12          6           0       -4.535417   -0.931026   -0.613787
     13          6           0       -4.593401   -2.428373   -0.309842
     14          1           0       -2.474802   -0.666063   -0.040111
     15          1           0       -3.627156   -0.358931    1.255603
     16          1           0       -4.354236   -0.778070   -1.685419
     17          1           0       -5.506570   -0.470713   -0.391102
     18          1           0       -4.797399   -2.598247    0.752292
     19          1           0       -3.638517   -2.907350   -0.549379
     20          1           0       -5.377255   -2.925655   -0.889621
     21          6           0        0.421838   -1.505961    0.363522
     22          6           0        0.680512   -0.847688   -0.843244
     23          6           0        1.920708   -0.243877   -1.071005
     24          6           0        2.883646   -0.317882   -0.065738
     25          6           0        2.656162   -0.966389    1.147102
     26          6           0        1.408749   -1.563110    1.353099
     27          1           0       -0.544378   -1.972261    0.531999
     28          1           0       -0.084055   -0.801726   -1.613550
     29          1           0        2.147645    0.272219   -1.995972
     30          1           0        3.438147   -0.995574    1.896145
     31          1           0        1.210657   -2.073654    2.291262
     32          7           0        4.200406    0.317592   -0.295337
     33          8           0        5.032015    0.238354    0.606208
     34          8           0        4.375940    0.882884   -1.372496
 ---------------------------------------------------------------------

 SCF Done:  E(RHF) =  -669.535292136     A.U. after   15 cycles
 E2 =    -0.2092685631D+01 EUMP2 =    -0.67162797776658D+03

 The electronic state is 1-A.
 Alpha  occ. eigenvalues --  -20.60789 -20.60784 -15.85844 -11.31224 -11.27814
 Alpha  occ. eigenvalues --  -11.27796 -11.27524 -11.26835 -11.26792 -11.22497
 Alpha  occ. eigenvalues --  -11.22382 -11.22120 -11.22058 -11.22023 -11.21443
 Alpha  occ. eigenvalues --   -1.59865  -1.39418  -1.19407  -1.09238  -1.08791
 Alpha  occ. eigenvalues --   -1.04813  -1.04237  -0.96709  -0.95627  -0.87717
 Alpha  occ. eigenvalues --   -0.86210  -0.82461  -0.80318  -0.79050  -0.77502
 Alpha  occ. eigenvalues --   -0.72062  -0.71188  -0.70527  -0.65914  -0.65052
 Alpha  occ. eigenvalues --   -0.64786  -0.62157  -0.61635  -0.60080  -0.58310
 Alpha  occ. eigenvalues --   -0.56032  -0.55308  -0.53368  -0.53132  -0.53118
 Alpha  occ. eigenvalues --   -0.52900  -0.50656  -0.48823  -0.48816  -0.48620
 Alpha  occ. eigenvalues --   -0.47366  -0.46558  -0.46487  -0.44820  -0.44515
 Alpha  occ. eigenvalues --   -0.37341  -0.36407
 Alpha virt. eigenvalues --    0.05021   0.11124   0.16477   0.19314   0.22693
 Alpha virt. eigenvalues --    0.23540   0.25363   0.26126   0.26829   0.27978
 Alpha virt. eigenvalues --    0.29341   0.30507   0.31143   0.31279   0.31821

 Mulliken charges:
               1
     1  C   -0.297987
     2  C   -0.304543
     3  C   -0.475949
     4  H    0.148486
     5  H    0.152723
     6  H    0.155761
     7  H    0.151735
     8  H    0.155741
     9  H    0.155359
    10  H    0.163605
    11  C   -0.302681
    12  C   -0.299899
    13  C   -0.476011
    14  H    0.140859
    15  H    0.151341
    16  H    0.152128
    17  H    0.156446
    18  H    0.156672
    19  H    0.148085
    20  H    0.164943
    21  C   -0.170900
    22  C   -0.219501
    23  C   -0.171393
    24  C    0.158277
    25  C   -0.170531
    26  C   -0.219298
    27  H    0.229536
    28  H    0.223753
    29  H    0.275849
    30  H    0.275843
    31  H    0.224045
    32  N    0.488126
    33  O   -0.460263
    34  O   -0.460360
 Sum of Mulliken charges =  -0.00000

 Dipole moment (field-independent basis, Debye):
    X=             -4.7239    Y=             -2.1789    Z=              0.8476  Tot=              5.2708
 Quadrupole moment (field-independent basis, Debye-Ang):
   XX=           -120.6707   YY=            -94.6034   ZZ=            -90.2834
   XY=             -5.8846   XZ=              3.7426   YZ=             -1.4280

 Normal termination of Gaussian 16 at Thu May  6 15:37:13 2021.
