 Gaussian 16, Revision A.03,
 Gaussian 16:  EM64L-G16RevA.03 25-Dec-2016

 -------------
 #p 6-31g* mp2
 -------------

 ------------------------------------------------------
 Input file generated by CHIRIPA (05-May-2021 14:57:27)
 ------------------------------------------------------
 Symbolic Z-matrix:
 Charge =  0 Multiplicity = 1

                         Standard orientation:
 ---------------------------------------------------------------------
 Center     Atomic      Atomic             Coordinates (Angstroms)
 Number     Number       Type             X           Y           Z
 ---------------------------------------------------------------------
      1          6           0       -2.389159   -1.872058    1.544205
      2          6           0       -2.215348   -0.592789    2.082519
      3          6           0       -2.457609    0.543610    1.305052
      4          6           0       -2.874471    0.363168   -0.012884
      5          6           0       -3.056658   -0.898132   -0.577880
      6          6           0       -2.808520   -2.020385    0.218061
      7          1           0       -2.198682   -2.749346    2.155335
      8          1           0       -1.889756   -0.474576    3.112111
      9          1           0       -2.331005    1.545684    1.696507
     10          1           0       -3.382158   -0.984143   -1.607478
     11          1           0       -2.944337   -3.012655   -0.202651
     12          7           0       -3.134053    1.558735   -0.845732
     13          8           0       -3.500522    1.372892   -2.004093
     14          8           0       -2.966129    2.659025   -0.324388
     15          6           0        4.541505    1.525466    0.637839
     16          6           0        3.290251    1.465697    1.260184
     17          6           0        2.335169    0.532470    0.846113
     18          6           0        2.666390   -0.329660   -0.198068
     19          6           0        3.904334   -0.294733   -0.838041
     20          6           0        4.844019    0.646610   -0.407444
     21          1           0        5.277454    2.253572    0.965918
     22          1           0        3.052556    2.146981    2.072217
     23          1           0        1.358805    0.464473    1.310339
     24          1           0        4.112221   -0.987023   -1.644847
     25          1           0        5.814954    0.690750   -0.892607
     26          7           0        1.663438   -1.321922   -0.645174
     27          8           0        1.979778   -2.070357   -1.567352
     28          8           0        0.579975   -1.332434   -0.064971
 ---------------------------------------------------------------------

 SCF Done:  E(RHF) =  -868.337991732     A.U. after   16 cycles
 E2 =    -0.2600996606D+01 EUMP2 =    -0.87093898833708D+03

 The electronic state is 1-A.
 Alpha  occ. eigenvalues --  -20.61023 -20.61010 -20.60082 -20.60057 -15.86054
 Alpha  occ. eigenvalues --  -15.85116 -11.31345 -11.30200 -11.27917 -11.27899
 Alpha  occ. eigenvalues --  -11.27630 -11.26908 -11.26892 -11.26863 -11.26687
 Alpha  occ. eigenvalues --  -11.26434 -11.25835 -11.25618  -1.60099  -1.59153
 Alpha  occ. eigenvalues --   -1.39654  -1.38716  -1.19511  -1.18331  -1.08922
 Alpha  occ. eigenvalues --   -1.07785  -1.04905  -1.03737  -0.95773  -0.94682
 Alpha  occ. eigenvalues --   -0.86306  -0.85168  -0.82610  -0.81553  -0.77668
 Alpha  occ. eigenvalues --   -0.76635  -0.72308  -0.71415  -0.71352  -0.70621
 Alpha  occ. eigenvalues --   -0.70463  -0.69510  -0.65170  -0.64910  -0.64035
 Alpha  occ. eigenvalues --   -0.63802  -0.62259  -0.61145  -0.55407  -0.54270
 Alpha  occ. eigenvalues --   -0.53233  -0.53001  -0.51965  -0.51887  -0.49063
 Alpha  occ. eigenvalues --   -0.49019  -0.48118  -0.48080  -0.45082  -0.44186
 Alpha  occ. eigenvalues --   -0.37484  -0.36502  -0.36198  -0.35258
 Alpha virt. eigenvalues --    0.04832   0.05933   0.11151   0.12367   0.16368
 Alpha virt. eigenvalues --    0.17448   0.21235   0.22279   0.27041   0.27819
 Alpha virt. eigenvalues --    0.28469   0.29182   0.30818   0.31760   0.32293

 Mulliken charges:
               1
     1  C   -0.158285
     2  C   -0.217038
     3  C   -0.175610
     4  C    0.160896
     5  C   -0.165226
     6  C   -0.203259
     7  H    0.222301
     8  H    0.214812
     9  H    0.267266
    10  H    0.273396
    11  H    0.222706
    12  N    0.487733
    13  O   -0.461354
    14  O   -0.467053
    15  C   -0.170112
    16  C   -0.217844
    17  C   -0.170558
    18  C    0.157829
    19  C   -0.170333
    20  C   -0.218380
    21  H    0.226528
    22  H    0.223454
    23  H    0.272604
    24  H    0.275755
    25  H    0.224198
    26  N    0.491394
    27  O   -0.461084
    28  O   -0.464737
 Sum of Mulliken charges =  -0.00000

 Dipole moment (field-independent basis, Debye):
    X=              4.5979    Y=             -1.0086    Z=              4.3784  Tot=              6.4288
 Quadrupole moment (field-independent basis, Debye-Ang):
   XX=            -90.1362   YY=           -108.8911   ZZ=           -101.2843
   XY=             21.3856   XZ=             -6.1783   YZ=              3.8510

 Normal termination of Gaussian 16 at Thu May  6 00:28:14 2021.
