 Gaussian 16, Revision A.03,
 Gaussian 16:  EM64L-G16RevA.03 25-Dec-2016

 -------------
 #p 6-31g* mp2
 -------------

 ------------------------------------------------------
 Input file generated by CHIRIPA (05-May-2021 14:51:07)
 ------------------------------------------------------
 Symbolic Z-matrix:
 Charge =  0 Multiplicity = 1

                         Standard orientation:
 ---------------------------------------------------------------------
 Center     Atomic      Atomic             Coordinates (Angstroms)
 Number     Number       Type             X           Y           Z
 ---------------------------------------------------------------------
      1          6           0       -3.812904   -0.702095   -0.303928
      2          6           0       -5.152341   -1.130075    0.296677
      3          6           0       -5.340418   -2.647442    0.300973
      4          1           0       -3.739799   -1.084972   -1.331063
      5          1           0       -2.997673   -1.171941    0.263555
      6          1           0       -5.964769   -0.658460   -0.270911
      7          1           0       -5.222348   -0.745972    1.322435
      8          1           0       -4.550346   -3.131906    0.883795
      9          1           0       -5.296985   -3.043898   -0.718604
     10          1           0       -6.304422   -2.931266    0.734563
     11          6           0       -3.610188    0.812007   -0.315225
     12          6           0       -2.270751    1.239987   -0.915831
     13          6           0       -2.082674    2.757354   -0.920127
     14          1           0       -4.425419    1.281853   -0.882709
     15          1           0       -3.683294    1.194884    0.711910
     16          1           0       -2.200744    0.855884   -1.941589
     17          1           0       -1.458323    0.768372   -0.348243
     18          1           0       -2.126107    3.153810    0.099451
     19          1           0       -2.872746    3.241818   -1.502949
     20          1           0       -1.118670    3.041178   -1.353716
     21          6           0        3.055544   -0.083370    0.699814
     22          6           0        2.399653    1.285552    0.883778
     23          6           0        1.088171    1.212314    1.666367
     24          1           0        2.354584   -0.752071    0.181703
     25          1           0        3.240921   -0.529008    1.686950
     26          1           0        2.216830    1.729073   -0.103379
     27          1           0        3.102328    1.951129    1.401341
     28          1           0        1.257526    0.793555    2.663644
     29          1           0        0.366997    0.570239    1.150373
     30          1           0        0.636368    2.201946    1.786202
     31          6           0        4.367549   -0.026542   -0.080661
     32          6           0        5.023439   -1.395464   -0.264624
     33          6           0        6.334921   -1.322226   -1.047213
     34          1           0        4.182172    0.419096   -1.067797
     35          1           0        5.068509    0.642159    0.437450
     36          1           0        4.320764   -2.061041   -0.782188
     37          1           0        5.206262   -1.838986    0.722533
     38          1           0        7.056095   -0.680151   -0.531220
     39          1           0        6.165566   -0.903467   -2.044490
     40          1           0        6.786725   -2.311859   -1.167048
 ---------------------------------------------------------------------

 SCF Done:  E(RHF) =  -470.733256769     A.U. after   11 cycles
 E2 =    -0.1582697969D+01 EUMP2 =    -0.47231595473714D+03

 The electronic state is 1-A.
 Alpha  occ. eigenvalues --  -11.21623 -11.21609 -11.21592 -11.21560 -11.21419
 Alpha  occ. eigenvalues --  -11.21392 -11.21359 -11.21330 -11.21094 -11.21076
 Alpha  occ. eigenvalues --  -11.21063 -11.21054  -1.08448  -1.08412  -1.03562
 Alpha  occ. eigenvalues --   -1.03497  -0.96013  -0.95948  -0.87018  -0.86979
 Alpha  occ. eigenvalues --   -0.79644  -0.79547  -0.78268  -0.78220  -0.65140
 Alpha  occ. eigenvalues --   -0.64994  -0.61110  -0.60768  -0.59371  -0.59320
 Alpha  occ. eigenvalues --   -0.57609  -0.57576  -0.55378  -0.55159  -0.52694
 Alpha  occ. eigenvalues --   -0.52648  -0.52443  -0.52378  -0.50038  -0.49839
 Alpha  occ. eigenvalues --   -0.47994  -0.47846  -0.46793  -0.46459  -0.45851
 Alpha  occ. eigenvalues --   -0.45758  -0.45737  -0.45551  -0.43799  -0.43768
 Alpha virt. eigenvalues --    0.20936   0.23112   0.23614   0.25191   0.25735
 Alpha virt. eigenvalues --    0.26728   0.26934   0.27529   0.27966   0.29066
 Alpha virt. eigenvalues --    0.30536   0.30911   0.31428   0.32104   0.32376

 Mulliken charges:
               1
     1  C   -0.298290
     2  C   -0.299645
     3  C   -0.475729
     4  H    0.149490
     5  H    0.149062
     6  H    0.151927
     7  H    0.152116
     8  H    0.155228
     9  H    0.155080
    10  H    0.160249
    11  C   -0.297890
    12  C   -0.306492
    13  C   -0.475180
    14  H    0.149394
    15  H    0.149993
    16  H    0.151352
    17  H    0.158678
    18  H    0.155501
    19  H    0.154957
    20  H    0.159840
    21  C   -0.298454
    22  C   -0.299722
    23  C   -0.480803
    24  H    0.149701
    25  H    0.149508
    26  H    0.152241
    27  H    0.152160
    28  H    0.155119
    29  H    0.159187
    30  H    0.161233
    31  C   -0.298327
    32  C   -0.299693
    33  C   -0.475720
    34  H    0.149619
    35  H    0.149680
    36  H    0.152032
    37  H    0.151910
    38  H    0.155182
    39  H    0.155220
    40  H    0.160287
 Sum of Mulliken charges =  -0.00000

 Dipole moment (field-independent basis, Debye):
    X=              0.0132    Y=              0.0046    Z=              0.0111  Tot=              0.0179
 Quadrupole moment (field-independent basis, Debye-Ang):
   XX=            -85.3571   YY=            -85.9579   ZZ=            -83.4711
   XY=             -0.1521   XZ=              1.3801   YZ=              0.1085

 Normal termination of Gaussian 16 at Wed May  5 18:05:12 2021.
