 Gaussian 16, Revision A.03,
 Gaussian 16:  EM64L-G16RevA.03 25-Dec-2016

 -------------
 #p 6-31g* mp2
 -------------

 ------------------------------------------------------
 Input file generated by CHIRIPA (05-May-2021 14:57:25)
 ------------------------------------------------------
 Symbolic Z-matrix:
 Charge =  0 Multiplicity = 1

                         Standard orientation:
 ---------------------------------------------------------------------
 Center     Atomic      Atomic             Coordinates (Angstroms)
 Number     Number       Type             X           Y           Z
 ---------------------------------------------------------------------
      1          6           0        4.619763   -1.325611    0.314299
      2          6           0        3.600738   -1.525272   -0.622848
      3          6           0        2.650592   -0.527964   -0.861907
      4          6           0        2.749889    0.662094   -0.142746
      5          6           0        3.753376    0.890985    0.797421
      6          6           0        4.692701   -0.120245    1.020198
      7          1           0        5.353657   -2.105751    0.493681
      8          1           0        3.541631   -2.460369   -1.172525
      9          1           0        1.851291   -0.656095   -1.581710
     10          1           0        3.786346    1.833738    1.329914
     11          1           0        5.482999    0.037586    1.748596
     12          7           0        1.749740    1.725268   -0.387208
     13          8           0        1.859130    2.764761    0.259418
     14          8           0        0.875371    1.498960   -1.220816
     15          6           0       -4.962302    0.980707    0.242365
     16          6           0       -4.426022    0.644391   -1.004959
     17          6           0       -3.291806   -0.168070   -1.094456
     18          6           0       -2.716774   -0.628750    0.088930
     19          6           0       -3.227582   -0.311167    1.346510
     20          6           0       -4.362428    0.502698    1.412056
     21          1           0       -5.843634    1.612391    0.302585
     22          1           0       -4.889799    1.014179   -1.915022
     23          1           0       -2.855899   -0.443874   -2.046998
     24          1           0       -2.743204   -0.694967    2.236169
     25          1           0       -4.776736    0.762267    2.382116
     26          7           0       -1.515696   -1.489609    0.006862
     27          8           0       -1.027719   -1.882655    1.064231
     28          8           0       -1.085012   -1.755003   -1.113278
 ---------------------------------------------------------------------

 SCF Done:  E(RHF) =  -868.340216954     A.U. after   16 cycles
 E2 =    -0.2598943741D+01 EUMP2 =    -0.87093916069557D+03

 The electronic state is 1-A.
 Alpha  occ. eigenvalues --  -20.60587 -20.60580 -20.60132 -20.60125 -15.85611
 Alpha  occ. eigenvalues --  -15.85174 -11.30698 -11.30251 -11.27284 -11.27232
 Alpha  occ. eigenvalues --  -11.26998 -11.26902 -11.26681 -11.26592 -11.26257
 Alpha  occ. eigenvalues --  -11.26215 -11.25875 -11.25719  -1.59640  -1.59213
 Alpha  occ. eigenvalues --   -1.39203  -1.38771  -1.18858  -1.18427  -1.08315
 Alpha  occ. eigenvalues --   -1.07897  -1.04237  -1.03784  -0.95198  -0.94765
 Alpha  occ. eigenvalues --   -0.85655  -0.85212  -0.82050  -0.81605  -0.77114
 Alpha  occ. eigenvalues --   -0.76663  -0.71866  -0.71419  -0.70932  -0.70501
 Alpha  occ. eigenvalues --   -0.70004  -0.69561  -0.64537  -0.64268  -0.64096
 Alpha  occ. eigenvalues --   -0.63808  -0.61601  -0.61124  -0.54785  -0.54358
 Alpha  occ. eigenvalues --   -0.52557  -0.52350  -0.52135  -0.51885  -0.48614
 Alpha  occ. eigenvalues --   -0.48596  -0.48164  -0.48140  -0.44684  -0.44223
 Alpha  occ. eigenvalues --   -0.36826  -0.36431  -0.35810  -0.35354
 Alpha virt. eigenvalues --    0.05402   0.05845   0.11846   0.12283   0.16925
 Alpha virt. eigenvalues --    0.17369   0.21886   0.22382   0.27811   0.28286
 Alpha virt. eigenvalues --    0.28744   0.29317   0.31412   0.31881   0.32946

 Mulliken charges:
               1
     1  C   -0.169981
     2  C   -0.217635
     3  C   -0.165299
     4  C    0.155324
     5  C   -0.171372
     6  C   -0.219407
     7  H    0.222898
     8  H    0.225311
     9  H    0.287367
    10  H    0.271457
    11  H    0.219491
    12  N    0.487833
    13  O   -0.465096
    14  O   -0.463066
    15  C   -0.169393
    16  C   -0.217943
    17  C   -0.163496
    18  C    0.161347
    19  C   -0.169937
    20  C   -0.218215
    21  H    0.224613
    22  H    0.223060
    23  H    0.275911
    24  H    0.273281
    25  H    0.221895
    26  N    0.490454
    27  O   -0.463668
    28  O   -0.465735
 Sum of Mulliken charges =  -0.00000

 Dipole moment (field-independent basis, Debye):
    X=             -0.8859    Y=             -0.8146    Z=              1.0098  Tot=              1.5711
 Quadrupole moment (field-independent basis, Debye-Ang):
   XX=            -63.2042   YY=           -113.5138   ZZ=            -98.1914
   XY=            -13.0724   XZ=              2.5585   YZ=              3.2002

 Normal termination of Gaussian 16 at Thu May  6 06:45:49 2021.
