 Gaussian 16, Revision A.03,
 Gaussian 16:  EM64L-G16RevA.03 25-Dec-2016

 -------------
 #p 6-31g* mp2
 -------------

 ------------------------------------------------------
 Input file generated by CHIRIPA (05-May-2021 14:55:21)
 ------------------------------------------------------
 Symbolic Z-matrix:
 Charge =  0 Multiplicity = 1

                         Standard orientation:
 ---------------------------------------------------------------------
 Center     Atomic      Atomic             Coordinates (Angstroms)
 Number     Number       Type             X           Y           Z
 ---------------------------------------------------------------------
      1          6           0        2.738457   -2.742252   -0.126862
      2          6           0        3.891159   -1.991412    0.126196
      3          6           0        3.832108   -0.595575    0.178160
      4          6           0        2.598277    0.019444   -0.028487
      5          6           0        1.432230   -0.700973   -0.282705
      6          6           0        1.514829   -2.095776   -0.330147
      7          1           0        2.793475   -3.826170   -0.165473
      8          1           0        4.842804   -2.490784    0.284450
      9          1           0        4.708978    0.010111    0.372227
     10          1           0        0.497910   -0.174832   -0.436454
     11          1           0        0.618000   -2.676329   -0.526869
     12          7           0        2.523298    1.496606    0.024131
     13          8           0        1.424196    2.014510   -0.161308
     14          8           0        3.565051    2.108533    0.249816
     15          6           0       -3.410304   -0.400278    0.374257
     16          6           0       -4.403525   -1.315818   -0.342183
     17          6           0       -4.529983   -2.686605    0.323208
     18          1           0       -2.426285   -0.887988    0.402354
     19          1           0       -3.726514   -0.274000    1.418986
     20          1           0       -4.086296   -1.439218   -1.385617
     21          1           0       -5.385248   -0.825790   -0.368746
     22          1           0       -4.869001   -2.582262    1.358959
     23          1           0       -3.562668   -3.199177    0.336310
     24          1           0       -5.245028   -3.324901   -0.205139
     25          6           0       -3.272918    0.973745   -0.279128
     26          6           0       -2.279699    1.889285    0.437311
     27          6           0       -2.153239    3.260072   -0.228080
     28          1           0       -2.956709    0.847467   -1.323858
     29          1           0       -4.256938    1.461455   -0.307225
     30          1           0       -1.297975    1.399256    0.463874
     31          1           0       -2.596927    2.012686    1.480746
     32          1           0       -3.120555    3.772645   -0.241183
     33          1           0       -1.814222    3.155730   -1.263831
     34          1           0       -1.438194    3.898367    0.300267
 ---------------------------------------------------------------------

 SCF Done:  E(RHF) =  -669.535694348     A.U. after   15 cycles
 E2 =    -0.2092315866D+01 EUMP2 =    -0.67162801021401D+03

 The electronic state is 1-A.
 Alpha  occ. eigenvalues --  -20.60902 -20.60895 -15.85937 -11.31271 -11.27836
 Alpha  occ. eigenvalues --  -11.27832 -11.27572 -11.26848 -11.26838 -11.21810
 Alpha  occ. eigenvalues --  -11.21550 -11.21381 -11.21189 -11.20971 -11.20141
 Alpha  occ. eigenvalues --   -1.59966  -1.39522  -1.19441  -1.08842  -1.08355
 Alpha  occ. eigenvalues --   -1.04841  -1.03301  -0.95773  -0.95671  -0.86781
 Alpha  occ. eigenvalues --   -0.86241  -0.82518  -0.79437  -0.78127  -0.77546
 Alpha  occ. eigenvalues --   -0.72167  -0.71280  -0.70554  -0.65118  -0.65040
 Alpha  occ. eigenvalues --   -0.64808  -0.62198  -0.60683  -0.59191  -0.57327
 Alpha  occ. eigenvalues --   -0.55344  -0.55071  -0.53168  -0.52941  -0.52401
 Alpha  occ. eigenvalues --   -0.52184  -0.49743  -0.48951  -0.48909  -0.47706
 Alpha  occ. eigenvalues --   -0.46511  -0.45638  -0.45547  -0.44865  -0.43576
 Alpha  occ. eigenvalues --   -0.37418  -0.36439
 Alpha virt. eigenvalues --    0.04937   0.11190   0.16437   0.19374   0.22994
 Alpha virt. eigenvalues --    0.23986   0.25343   0.27221   0.27864   0.28077
 Alpha virt. eigenvalues --    0.29635   0.30550   0.31658   0.31790   0.32677

 Mulliken charges:
               1
     1  C   -0.170319
     2  C   -0.218770
     3  C   -0.170183
     4  C    0.156190
     5  C   -0.173663
     6  C   -0.220888
     7  H    0.226051
     8  H    0.223801
     9  H    0.275808
    10  H    0.283516
    11  H    0.224112
    12  N    0.490591
    13  O   -0.464187
    14  O   -0.459292
    15  C   -0.295865
    16  C   -0.299621
    17  C   -0.474344
    18  H    0.137116
    19  H    0.152026
    20  H    0.150160
    21  H    0.154657
    22  H    0.156919
    23  H    0.148933
    24  H    0.160883
    25  C   -0.299344
    26  C   -0.308468
    27  C   -0.471363
    28  H    0.146809
    29  H    0.150293
    30  H    0.163285
    31  H    0.149397
    32  H    0.147828
    33  H    0.156482
    34  H    0.171447
 Sum of Mulliken charges =  -0.00000

 Dipole moment (field-independent basis, Debye):
    X=              0.4008    Y=             -5.0542    Z=             -0.1613  Tot=              5.0727
 Quadrupole moment (field-independent basis, Debye-Ang):
   XX=            -88.0528   YY=            -96.1954   ZZ=            -95.2869
   XY=            -13.9976   XZ=              0.1429   YZ=              0.8278

 Normal termination of Gaussian 16 at Wed May  5 15:54:14 2021.
