 Gaussian 16, Revision A.03,
 Gaussian 16:  EM64L-G16RevA.03 25-Dec-2016

 -------------
 #p 6-31g* mp2
 -------------

 ------------------------------------------------------
 Input file generated by CHIRIPA (05-May-2021 14:57:26)
 ------------------------------------------------------
 Symbolic Z-matrix:
 Charge =  0 Multiplicity = 1

                         Standard orientation:
 ---------------------------------------------------------------------
 Center     Atomic      Atomic             Coordinates (Angstroms)
 Number     Number       Type             X           Y           Z
 ---------------------------------------------------------------------
      1          6           0        1.757194   -0.226165    0.605778
      2          6           0        2.439374    0.991964    0.691284
      3          6           0        3.805759    1.062225    0.403875
      4          6           0        4.461658   -0.110418    0.032398
      5          6           0        3.809797   -1.339031   -0.061817
      6          6           0        2.443373   -1.385731    0.230162
      7          1           0        0.695738   -0.271594    0.830819
      8          1           0        1.909046    1.894102    0.982737
      9          1           0        4.358420    1.992060    0.462110
     10          1           0        4.365507   -2.221428   -0.355040
     11          1           0        1.916155   -2.333130    0.162922
     12          7           0        5.908210   -0.048507   -0.274288
     13          8           0        6.463219   -1.095873   -0.599289
     14          8           0        6.459616    1.046212   -0.183860
     15          6           0       -3.032258    2.341352   -0.208729
     16          6           0       -4.430185    2.295016   -0.221935
     17          6           0       -5.100673    1.070189   -0.152716
     18          6           0       -4.338389   -0.094071   -0.070783
     19          6           0       -2.944518   -0.080667   -0.055556
     20          6           0       -2.295186    1.155452   -0.125728
     21          1           0       -2.519624    3.297212   -0.262871
     22          1           0       -5.005187    3.214403   -0.286323
     23          1           0       -6.181947    1.005410   -0.161112
     24          1           0       -2.398537   -1.013998    0.009375
     25          1           0       -1.209437    1.188406   -0.115281
     26          7           0       -5.037007   -1.396718    0.003000
     27          8           0       -4.342462   -2.408214    0.074554
     28          8           0       -6.265901   -1.381571   -0.012119
 ---------------------------------------------------------------------

 SCF Done:  E(RHF) =  -868.336626667     A.U. after   16 cycles
 E2 =    -0.2599850059D+01 EUMP2 =    -0.87093647672667D+03

 The electronic state is 1-A.
 Alpha  occ. eigenvalues --  -20.61443 -20.61428 -20.61204 -20.61195 -15.86498
 Alpha  occ. eigenvalues --  -15.86260 -11.31978 -11.31768 -11.28654 -11.28516
 Alpha  occ. eigenvalues --  -11.28362 -11.28327 -11.28304 -11.28229 -11.27708
 Alpha  occ. eigenvalues --  -11.27532 -11.27494 -11.27377  -1.60510  -1.60274
 Alpha  occ. eigenvalues --   -1.40062  -1.39823  -1.20167  -1.19961  -1.09535
 Alpha  occ. eigenvalues --   -1.09357  -1.05608  -1.05375  -0.96351  -0.96165
 Alpha  occ. eigenvalues --   -0.86997  -0.86782  -0.83208  -0.82974  -0.78234
 Alpha  occ. eigenvalues --   -0.77981  -0.72714  -0.72477  -0.71835  -0.71597
 Alpha  occ. eigenvalues --   -0.71288  -0.71136  -0.65827  -0.65690  -0.65594
 Alpha  occ. eigenvalues --   -0.65367  -0.62969  -0.62708  -0.56140  -0.55915
 Alpha  occ. eigenvalues --   -0.53900  -0.53761  -0.53638  -0.53476  -0.49481
 Alpha  occ. eigenvalues --   -0.49462  -0.49248  -0.49221  -0.45443  -0.45196
 Alpha  occ. eigenvalues --   -0.38132  -0.37987  -0.37206  -0.36963
 Alpha virt. eigenvalues --    0.04331   0.04520   0.10446   0.10640   0.15743
 Alpha virt. eigenvalues --    0.15866   0.17960   0.22041   0.24858   0.25624
 Alpha virt. eigenvalues --    0.27701   0.29150   0.30121   0.30719   0.32387

 Mulliken charges:
               1
     1  C   -0.175186
     2  C   -0.219326
     3  C   -0.170041
     4  C    0.159513
     5  C   -0.169926
     6  C   -0.217706
     7  H    0.220578
     8  H    0.219399
     9  H    0.276881
    10  H    0.278562
    11  H    0.227720
    12  N    0.487925
    13  O   -0.458027
    14  O   -0.459398
    15  C   -0.170194
    16  C   -0.217973
    17  C   -0.169552
    18  C    0.159447
    19  C   -0.171187
    20  C   -0.221205
    21  H    0.227033
    22  H    0.226540
    23  H    0.278343
    24  H    0.270751
    25  H    0.217228
    26  N    0.488261
    27  O   -0.461010
    28  O   -0.457451
 Sum of Mulliken charges =  -0.00000

 Dipole moment (field-independent basis, Debye):
    X=             -2.6579    Y=              4.3485    Z=              0.7710  Tot=              5.1544
 Quadrupole moment (field-independent basis, Debye-Ang):
   XX=           -166.2498   YY=            -99.7962   ZZ=           -106.2938
   XY=            -23.6105   XZ=              5.8722   YZ=              0.5127

 Normal termination of Gaussian 16 at Thu May  6 00:26:53 2021.
