 Gaussian 16, Revision A.03,
 Gaussian 16:  EM64L-G16RevA.03 25-Dec-2016

 -------------
 #p 6-31g* mp2
 -------------

 ------------------------------------------------------
 Input file generated by CHIRIPA (05-May-2021 14:53:13)
 ------------------------------------------------------
 Symbolic Z-matrix:
 Charge =  0 Multiplicity = 1

                         Standard orientation:
 ---------------------------------------------------------------------
 Center     Atomic      Atomic             Coordinates (Angstroms)
 Number     Number       Type             X           Y           Z
 ---------------------------------------------------------------------
      1          6           0       -3.331190   -0.937967   -0.098141
      2          6           0       -1.905660   -0.440779   -0.340327
      3          6           0       -0.866428   -1.558692   -0.250541
      4          1           0       -3.384393   -1.411357    0.891817
      5          1           0       -3.568774   -1.720528   -0.831998
      6          1           0       -1.671325    0.341584    0.392892
      7          1           0       -1.855891    0.031653   -1.329745
      8          1           0       -1.072496   -2.336753   -0.992672
      9          1           0       -0.886880   -2.025061    0.739753
     10          1           0        0.145606   -1.181140   -0.426900
     11          6           0       -4.381430    0.168039   -0.184605
     12          6           0       -5.806960   -0.329149    0.057582
     13          6           0       -6.846192    0.788764   -0.032204
     14          1           0       -4.143846    0.950600    0.549253
     15          1           0       -4.328228    0.641429   -1.174562
     16          1           0       -5.856729   -0.801581    1.046999
     17          1           0       -6.041296   -1.111512   -0.675638
     18          1           0       -6.825740    1.255133   -1.022498
     19          1           0       -6.640125    1.566825    0.709927
     20          1           0       -7.858226    0.411212    0.144155
     21          6           0        3.985181   -2.024338   -0.008872
     22          6           0        4.451897   -1.025366   -0.869541
     23          6           0        3.920381    0.266439   -0.812285
     24          6           0        2.918731    0.525535    0.121983
     25          6           0        2.432769   -0.448377    0.992975
     26          6           0        2.978880   -1.733169    0.918005
     27          1           0        4.403745   -3.025120   -0.060230
     28          1           0        5.233315   -1.248624   -1.590365
     29          1           0        4.263201    1.058683   -1.466687
     30          1           0        1.652885   -0.195607    1.701005
     31          1           0        2.614485   -2.507005    1.587660
     32          7           0        2.348312    1.889398    0.191973
     33          8           0        1.466640    2.092151    1.023948
     34          8           0        2.793692    2.729817   -0.586467
 ---------------------------------------------------------------------

 SCF Done:  E(RHF) =  -669.534901389     A.U. after   15 cycles
 E2 =    -0.2092429762D+01 EUMP2 =    -0.67162733115193D+03

 The electronic state is 1-A.
 Alpha  occ. eigenvalues --  -20.60816 -20.60810 -15.85864 -11.31215 -11.27794
 Alpha  occ. eigenvalues --  -11.27773 -11.27530 -11.26793 -11.26774 -11.21396
 Alpha  occ. eigenvalues --  -11.21332 -11.21193 -11.21098 -11.21036 -11.20852
 Alpha  occ. eigenvalues --   -1.59886  -1.39440  -1.19406  -1.08791  -1.08215
 Alpha  occ. eigenvalues --   -1.04807  -1.03349  -0.95842  -0.95617  -0.86855
 Alpha  occ. eigenvalues --   -0.86191  -0.82457  -0.79403  -0.78012  -0.77506
 Alpha  occ. eigenvalues --   -0.72082  -0.71211  -0.70506  -0.65048  -0.64857
 Alpha  occ. eigenvalues --   -0.64783  -0.62155  -0.60746  -0.59227  -0.57451
 Alpha  occ. eigenvalues --   -0.55305  -0.55122  -0.53402  -0.52883  -0.52345
 Alpha  occ. eigenvalues --   -0.52143  -0.49773  -0.48839  -0.48838  -0.47720
 Alpha  occ. eigenvalues --   -0.46426  -0.45567  -0.45476  -0.44835  -0.43611
 Alpha  occ. eigenvalues --   -0.37379  -0.36311
 Alpha virt. eigenvalues --    0.05013   0.11202   0.16493   0.21099   0.23057
 Alpha virt. eigenvalues --    0.24312   0.26590   0.27235   0.27658   0.28092
 Alpha virt. eigenvalues --    0.28783   0.30688   0.31575   0.31840   0.32139

 Mulliken charges:
               1
     1  C   -0.298046
     2  C   -0.302223
     3  C   -0.482112
     4  H    0.147317
     5  H    0.147521
     6  H    0.162025
     7  H    0.153739
     8  H    0.153576
     9  H    0.146300
    10  H    0.165897
    11  C   -0.298720
    12  C   -0.299459
    13  C   -0.475694
    14  H    0.152790
    15  H    0.150574
    16  H    0.150912
    17  H    0.150665
    18  H    0.155513
    19  H    0.156295
    20  H    0.159208
    21  C   -0.170785
    22  C   -0.218614
    23  C   -0.171169
    24  C    0.159691
    25  C   -0.174139
    26  C   -0.215457
    27  H    0.225941
    28  H    0.223569
    29  H    0.275726
    30  H    0.277251
    31  H    0.224396
    32  N    0.488568
    33  O   -0.460992
    34  O   -0.460065
 Sum of Mulliken charges =  -0.00000

 Dipole moment (field-independent basis, Debye):
    X=              2.0877    Y=             -4.7144    Z=             -0.2425  Tot=              5.1616
 Quadrupole moment (field-independent basis, Debye-Ang):
   XX=            -82.4627   YY=           -100.6275   ZZ=            -91.4718
   XY=            -11.9112   XZ=             -3.0255   YZ=             -1.7770

 Normal termination of Gaussian 16 at Thu May  6 15:23:09 2021.
