 Gaussian 16, Revision A.03,
 Gaussian 16:  EM64L-G16RevA.03 25-Dec-2016

 -------------
 #p 6-31g* mp2
 -------------

 ------------------------------------------------------
 Input file generated by CHIRIPA (05-May-2021 14:51:12)
 ------------------------------------------------------
 Symbolic Z-matrix:
 Charge =  0 Multiplicity = 1

                         Standard orientation:
 ---------------------------------------------------------------------
 Center     Atomic      Atomic             Coordinates (Angstroms)
 Number     Number       Type             X           Y           Z
 ---------------------------------------------------------------------
      1          6           0       -3.294672    1.166430   -0.143621
      2          6           0       -1.987456    1.944348    0.011354
      3          6           0       -2.213509    3.430491    0.290767
      4          1           0       -3.882833    1.609002   -0.959182
      5          1           0       -3.892482    1.281705    0.771109
      6          1           0       -1.391679    1.826504   -0.902855
      7          1           0       -1.402252    1.499753    0.826515
      8          1           0       -2.786785    3.566135    1.213566
      9          1           0       -2.776151    3.894744   -0.525630
     10          1           0       -1.265894    3.967503    0.398025
     11          6           0       -3.085139   -0.320712   -0.423324
     12          6           0       -4.392354   -1.098629   -0.578298
     13          6           0       -4.166301   -2.584773   -0.857711
     14          1           0       -2.487328   -0.435987   -1.338053
     15          1           0       -2.496977   -0.763284    0.392238
     16          1           0       -4.977558   -0.654034   -1.393459
     17          1           0       -4.988131   -0.980786    0.335911
     18          1           0       -3.603659   -3.049025   -0.041314
     19          1           0       -3.593026   -2.720417   -1.780510
     20          1           0       -5.113916   -3.121784   -0.964970
     21          6           0        3.721975   -0.576795   -0.242492
     22          6           0        4.756798    0.537463   -0.402357
     23          6           0        5.814600    0.214802   -1.458170
     24          1           0        4.235961   -1.510271    0.024686
     25          1           0        3.232997   -0.755149   -1.210214
     26          1           0        5.242703    0.714613    0.565697
     27          1           0        4.240270    1.468439   -0.668997
     28          1           0        5.347744    0.058574   -2.436044
     29          1           0        6.355874   -0.699536   -1.194334
     30          1           0        6.544220    1.024698   -1.556067
     31          6           0        2.657835   -0.268924    0.809436
     32          6           0        1.623012   -1.383181    0.969301
     33          6           0        0.565211   -1.060521    2.025114
     34          1           0        3.146813   -0.090570    1.777158
     35          1           0        2.143849    0.664552    0.542259
     36          1           0        2.139540   -2.314158    1.235942
     37          1           0        1.137107   -1.560330    0.001246
     38          1           0        0.023937   -0.146182    1.761278
     39          1           0        1.032066   -0.904293    3.002988
     40          1           0       -0.164409   -1.870416    2.123012
 ---------------------------------------------------------------------

 SCF Done:  E(RHF) =  -470.733261200     A.U. after   11 cycles
 E2 =    -0.1583155928D+01 EUMP2 =    -0.47231641712809D+03

 The electronic state is 1-A.
 Alpha  occ. eigenvalues --  -11.21643 -11.21600 -11.21595 -11.21587 -11.21410
 Alpha  occ. eigenvalues --  -11.21392 -11.21342 -11.21333 -11.21103 -11.21073
 Alpha  occ. eigenvalues --  -11.21070 -11.21067  -1.08451  -1.08413  -1.03554
 Alpha  occ. eigenvalues --   -1.03519  -0.95996  -0.95975  -0.87013  -0.86995
 Alpha  occ. eigenvalues --   -0.79648  -0.79562  -0.78281  -0.78206  -0.65144
 Alpha  occ. eigenvalues --   -0.64990  -0.61025  -0.60857  -0.59393  -0.59317
 Alpha  occ. eigenvalues --   -0.57631  -0.57560  -0.55296  -0.55261  -0.52701
 Alpha  occ. eigenvalues --   -0.52673  -0.52454  -0.52368  -0.50001  -0.49895
 Alpha  occ. eigenvalues --   -0.48045  -0.47821  -0.46784  -0.46529  -0.45885
 Alpha  occ. eigenvalues --   -0.45748  -0.45721  -0.45463  -0.43797  -0.43776
 Alpha virt. eigenvalues --    0.20880   0.23201   0.23783   0.24094   0.25963
 Alpha virt. eigenvalues --    0.26431   0.27348   0.27513   0.27954   0.29416
 Alpha virt. eigenvalues --    0.30078   0.31567   0.31782   0.31922   0.32002

 Mulliken charges:
               1
     1  C   -0.297671
     2  C   -0.307708
     3  C   -0.475048
     4  H    0.149719
     5  H    0.149639
     6  H    0.151329
     7  H    0.158889
     8  H    0.155472
     9  H    0.155364
    10  H    0.160106
    11  C   -0.302138
    12  C   -0.299615
    13  C   -0.475603
    14  H    0.148778
    15  H    0.154485
    16  H    0.151874
    17  H    0.152002
    18  H    0.155072
    19  H    0.155065
    20  H    0.160274
    21  C   -0.298303
    22  C   -0.299660
    23  C   -0.475693
    24  H    0.149622
    25  H    0.149540
    26  H    0.151895
    27  H    0.151946
    28  H    0.155140
    29  H    0.155177
    30  H    0.160221
    31  C   -0.298841
    32  C   -0.299269
    33  C   -0.483801
    34  H    0.149325
    35  H    0.150257
    36  H    0.151826
    37  H    0.152909
    38  H    0.162655
    39  H    0.154993
    40  H    0.159774
 Sum of Mulliken charges =  -0.00000

 Dipole moment (field-independent basis, Debye):
    X=             -0.0078    Y=              0.0052    Z=              0.0047  Tot=              0.0105
 Quadrupole moment (field-independent basis, Debye-Ang):
   XX=            -85.1598   YY=            -85.7906   ZZ=            -83.8500
   XY=             -0.1976   XZ=              0.9924   YZ=             -0.7827

 Normal termination of Gaussian 16 at Thu May  6 00:45:59 2021.
