 Gaussian 16, Revision A.03,
 Gaussian 16:  EM64L-G16RevA.03 25-Dec-2016

 -------------
 #p 6-31g* mp2
 -------------

 ------------------------------------------------------
 Input file generated by CHIRIPA (05-May-2021 14:57:25)
 ------------------------------------------------------
 Symbolic Z-matrix:
 Charge =  0 Multiplicity = 1

                         Standard orientation:
 ---------------------------------------------------------------------
 Center     Atomic      Atomic             Coordinates (Angstroms)
 Number     Number       Type             X           Y           Z
 ---------------------------------------------------------------------
      1          6           0       -1.846270   -1.862899    0.969429
      2          6           0       -2.625231   -2.064639   -0.174705
      3          6           0       -3.486707   -1.063344   -0.632760
      4          6           0       -3.544501    0.132779    0.080851
      5          6           0       -2.781105    0.363879    1.224140
      6          6           0       -1.926552   -0.651420    1.663975
      7          1           0       -1.179744   -2.646169    1.318181
      8          1           0       -2.564936   -3.004481   -0.716098
      9          1           0       -4.100960   -1.192963   -1.515546
     10          1           0       -2.862838    1.311387    1.742759
     11          1           0       -1.322775   -0.491963    2.552835
     12          7           0       -4.452843    1.200218   -0.394427
     13          8           0       -4.485499    2.245031    0.252052
     14          8           0       -5.114945    0.971851   -1.404430
     15          6           0        4.775373    2.140004    0.092059
     16          6           0        3.381410    2.224925    0.013451
     17          6           0        2.606436    1.069695   -0.125847
     18          6           0        3.261326   -0.159568   -0.183472
     19          6           0        4.648343   -0.276858   -0.107862
     20          6           0        5.403283    0.891584    0.031259
     21          1           0        5.369610    3.042548    0.200200
     22          1           0        2.891058    3.193118    0.060395
     23          1           0        1.525670    1.106601   -0.189094
     24          1           0        5.108608   -1.256199   -0.157536
     25          1           0        6.485684    0.822611    0.092057
     26          7           0        2.451501   -1.389553   -0.330846
     27          8           0        3.052557   -2.460548   -0.379185
     28          8           0        1.231036   -1.259330   -0.395230
 ---------------------------------------------------------------------

 SCF Done:  E(RHF) =  -868.339293090     A.U. after   16 cycles
 E2 =    -0.2599230959D+01 EUMP2 =    -0.87093852404947D+03

 The electronic state is 1-A.
 Alpha  occ. eigenvalues --  -20.61466 -20.61457 -20.60208 -20.60194 -15.86488
 Alpha  occ. eigenvalues --  -15.85253 -11.31665 -11.30341 -11.28213 -11.28192
 Alpha  occ. eigenvalues --  -11.27907 -11.27180 -11.27157 -11.26976 -11.26895
 Alpha  occ. eigenvalues --  -11.26478 -11.25850 -11.25735  -1.60544  -1.59289
 Alpha  occ. eigenvalues --   -1.40098  -1.38850  -1.19820  -1.18491  -1.09252
 Alpha  occ. eigenvalues --   -1.07891  -1.05188  -1.03880  -0.96119  -0.94781
 Alpha  occ. eigenvalues --   -0.86594  -0.85270  -0.82951  -0.81649  -0.78021
 Alpha  occ. eigenvalues --   -0.76764  -0.72729  -0.71860  -0.71477  -0.70916
 Alpha  occ. eigenvalues --   -0.70614  -0.69527  -0.65469  -0.65181  -0.64138
 Alpha  occ. eigenvalues --   -0.63878  -0.62532  -0.61262  -0.55691  -0.54274
 Alpha  occ. eigenvalues --   -0.53535  -0.53270  -0.52176  -0.51975  -0.49488
 Alpha  occ. eigenvalues --   -0.49469  -0.48247  -0.48206  -0.45548  -0.44320
 Alpha  occ. eigenvalues --   -0.37792  -0.36786  -0.36298  -0.35498
 Alpha virt. eigenvalues --    0.04460   0.05821   0.10870   0.12188   0.16004
 Alpha virt. eigenvalues --    0.17425   0.21059   0.22350   0.26982   0.27898
 Alpha virt. eigenvalues --    0.28158   0.29305   0.30645   0.31932   0.32134

 Mulliken charges:
               1
     1  C   -0.149095
     2  C   -0.217107
     3  C   -0.171789
     4  C    0.156203
     5  C   -0.175430
     6  C   -0.220738
     7  H    0.231901
     8  H    0.224468
     9  H    0.272746
    10  H    0.269593
    11  H    0.218240
    12  N    0.488219
    13  O   -0.465426
    14  O   -0.462374
    15  C   -0.170136
    16  C   -0.218819
    17  C   -0.172484
    18  C    0.156849
    19  C   -0.170933
    20  C   -0.218630
    21  H    0.227628
    22  H    0.226377
    23  H    0.277350
    24  H    0.275619
    25  H    0.224773
    26  N    0.489597
    27  O   -0.460940
    28  O   -0.465662
 Sum of Mulliken charges =  -0.00000

 Dipole moment (field-independent basis, Debye):
    X=              6.4261    Y=              0.3752    Z=              2.1606  Tot=              6.7900
 Quadrupole moment (field-independent basis, Debye-Ang):
   XX=           -106.6235   YY=           -104.3913   ZZ=           -103.2629
   XY=             26.9579   XZ=             -3.1045   YZ=              1.4256

 Normal termination of Gaussian 16 at Thu May  6 18:03:28 2021.
