 Gaussian 16, Revision A.03,
 Gaussian 16:  EM64L-G16RevA.03 25-Dec-2016

 -------------
 #p 6-31g* mp2
 -------------

 ------------------------------------------------------
 Input file generated by CHIRIPA (05-May-2021 14:57:24)
 ------------------------------------------------------
 Symbolic Z-matrix:
 Charge =  0 Multiplicity = 1

                         Standard orientation:
 ---------------------------------------------------------------------
 Center     Atomic      Atomic             Coordinates (Angstroms)
 Number     Number       Type             X           Y           Z
 ---------------------------------------------------------------------
      1          6           0        4.216452    2.248686    0.034537
      2          6           0        4.525182    1.214879   -0.855659
      3          6           0        3.873709   -0.018749   -0.764588
      4          6           0        2.914506   -0.184777    0.233236
      5          6           0        2.584866    0.825910    1.134978
      6          6           0        3.248985    2.051250    1.025268
      7          1           0        4.727444    3.203778   -0.043448
      8          1           0        5.276094    1.365372   -1.626067
      9          1           0        4.093267   -0.836135   -1.440674
     10          1           0        1.831732    0.645990    1.892497
     11          1           0        3.007183    2.852331    1.717977
     12          7           0        2.218126   -1.486377    0.339515
     13          8           0        1.376940   -1.607404    1.227432
     14          8           0        2.526677   -2.360897   -0.467112
     15          6           0       -4.912161    1.584649    0.247325
     16          6           0       -3.975839    1.869335   -0.752063
     17          6           0       -2.928459    0.982084   -1.017259
     18          6           0       -2.847246   -0.185815   -0.260486
     19          6           0       -3.764536   -0.497596    0.741843
     20          6           0       -4.803714    0.404174    0.989779
     21          1           0       -5.722605    2.279526    0.446633
     22          1           0       -4.057580    2.785346   -1.330239
     23          1           0       -2.189832    1.177647   -1.785115
     24          1           0       -3.656899   -1.418749    1.301583
     25          1           0       -5.529431    0.180480    1.766529
     26          7           0       -1.742775   -1.132794   -0.532101
     27          8           0       -1.693308   -2.154936    0.148644
     28          8           0       -0.947470   -0.834960   -1.420596
 ---------------------------------------------------------------------

 SCF Done:  E(RHF) =  -868.335656124     A.U. after   16 cycles
 E2 =    -0.2601352628D+01 EUMP2 =    -0.87093700875230D+03

 The electronic state is 1-A.
 Alpha  occ. eigenvalues --  -20.60003 -20.59855 -20.59439 -20.59430 -15.84988
 Alpha  occ. eigenvalues --  -15.84517 -11.30717 -11.30320 -11.27352 -11.27297
 Alpha  occ. eigenvalues --  -11.27142 -11.26974 -11.26919 -11.26795 -11.26442
 Alpha  occ. eigenvalues --  -11.26405 -11.26104 -11.26061  -1.58980  -1.58471
 Alpha  occ. eigenvalues --   -1.38534  -1.38036  -1.18924  -1.18535  -1.08250
 Alpha  occ. eigenvalues --   -1.07848  -1.04380  -1.04019  -0.95024  -0.94611
 Alpha  occ. eigenvalues --   -0.85760  -0.85397  -0.81860  -0.81462  -0.76844
 Alpha  occ. eigenvalues --   -0.76425  -0.71218  -0.70792  -0.70387  -0.70030
 Alpha  occ. eigenvalues --   -0.69669  -0.69643  -0.64568  -0.64385  -0.64191
 Alpha  occ. eigenvalues --   -0.64041  -0.61722  -0.61371  -0.54871  -0.54521
 Alpha  occ. eigenvalues --   -0.52695  -0.52476  -0.52309  -0.52129  -0.48042
 Alpha  occ. eigenvalues --   -0.47946  -0.47470  -0.47398  -0.43896  -0.43297
 Alpha  occ. eigenvalues --   -0.36926  -0.36534  -0.36004  -0.35643
 Alpha virt. eigenvalues --    0.05700   0.06158   0.11646   0.12007   0.17125
 Alpha virt. eigenvalues --    0.17559   0.21743   0.22033   0.27628   0.27903
 Alpha virt. eigenvalues --    0.28671   0.28967   0.31258   0.31536   0.32937

 Mulliken charges:
               1
     1  C   -0.172795
     2  C   -0.218714
     3  C   -0.169748
     4  C    0.164592
     5  C   -0.172292
     6  C   -0.218977
     7  H    0.221539
     8  H    0.220648
     9  H    0.276089
    10  H    0.272289
    11  H    0.218835
    12  N    0.493242
    13  O   -0.458348
    14  O   -0.456725
    15  C   -0.172265
    16  C   -0.218882
    17  C   -0.172764
    18  C    0.159454
    19  C   -0.170997
    20  C   -0.218841
    21  H    0.223329
    22  H    0.220676
    23  H    0.273650
    24  H    0.277864
    25  H    0.222262
    26  N    0.488650
    27  O   -0.443169
    28  O   -0.468601
 Sum of Mulliken charges =  -0.00000

 Dipole moment (field-independent basis, Debye):
    X=             -1.5087    Y=              7.4700    Z=              0.6070  Tot=              7.6450
 Quadrupole moment (field-independent basis, Debye-Ang):
   XX=            -68.9521   YY=           -106.3548   ZZ=           -100.8827
   XY=              4.1756   XZ=             -6.5286   YZ=             -0.9905

 Normal termination of Gaussian 16 at Fri May  7 00:18:49 2021.
