 Gaussian 16, Revision A.03,
 Gaussian 16:  EM64L-G16RevA.03 25-Dec-2016

 -------------
 #p 6-31g* mp2
 -------------

 ------------------------------------------------------
 Input file generated by CHIRIPA (05-May-2021 14:55:20)
 ------------------------------------------------------
 Symbolic Z-matrix:
 Charge =  0 Multiplicity = 1

                         Standard orientation:
 ---------------------------------------------------------------------
 Center     Atomic      Atomic             Coordinates (Angstroms)
 Number     Number       Type             X           Y           Z
 ---------------------------------------------------------------------
      1          6           0        0.976487   -1.274228    1.698422
      2          6           0        0.910355    0.074568    1.333873
      3          6           0        1.877842    0.630696    0.491711
      4          6           0        2.902244   -0.194604    0.030442
      5          6           0        2.995434   -1.541964    0.375735
      6          6           0        2.016981   -2.076775    1.219035
      7          1           0        0.220660   -1.697962    2.353076
      8          1           0        0.103428    0.700213    1.704658
      9          1           0        1.850735    1.671783    0.193680
     10          1           0        3.811775   -2.140588   -0.009823
     11          1           0        2.070865   -3.124593    1.500492
     12          7           0        3.932285    0.382860   -0.861720
     13          8           0        4.824690   -0.365380   -1.254640
     14          8           0        3.827721    1.572782   -1.151182
     15          6           0       -3.493788   -0.272528   -0.638756
     16          6           0       -4.641169   -1.221520   -0.291028
     17          6           0       -4.620057   -2.504300   -1.122789
     18          1           0       -3.546303   -0.019735   -1.706596
     19          1           0       -2.538002   -0.793071   -0.487416
     20          1           0       -5.594474   -0.698895   -0.441656
     21          1           0       -4.586027   -1.471931    0.776151
     22          1           0       -3.684247   -3.050229   -0.965241
     23          1           0       -4.698422   -2.272801   -2.189967
     24          1           0       -5.448862   -3.168211   -0.857905
     25          6           0       -3.501365    1.014358    0.184405
     26          6           0       -2.353983    1.963351   -0.163323
     27          6           0       -2.375095    3.246130    0.668438
     28          1           0       -4.457150    1.534901    0.033064
     29          1           0       -3.448849    0.761566    1.252245
     30          1           0       -2.409125    2.213762   -1.230502
     31          1           0       -1.400679    1.440726   -0.012695
     32          1           0       -2.296729    3.014631    1.735616
     33          1           0       -3.310905    3.792059    0.510890
     34          1           0       -1.546290    3.910041    0.403553
 ---------------------------------------------------------------------

 SCF Done:  E(RHF) =  -669.535359333     A.U. after   15 cycles
 E2 =    -0.2092016262D+01 EUMP2 =    -0.67162737559490D+03

 The electronic state is 1-A.
 Alpha  occ. eigenvalues --  -20.60792 -20.60787 -15.85847 -11.31236 -11.27814
 Alpha  occ. eigenvalues --  -11.27810 -11.27564 -11.26831 -11.26811 -11.22285
 Alpha  occ. eigenvalues --  -11.22132 -11.22063 -11.21927 -11.21795 -11.21529
 Alpha  occ. eigenvalues --   -1.59867  -1.39420  -1.19417  -1.09060  -1.08805
 Alpha  occ. eigenvalues --   -1.04827  -1.04148  -0.96589  -0.95636  -0.87599
 Alpha  occ. eigenvalues --   -0.86220  -0.82473  -0.80207  -0.78857  -0.77508
 Alpha  occ. eigenvalues --   -0.72065  -0.71190  -0.70521  -0.65782  -0.65069
 Alpha  occ. eigenvalues --   -0.64792  -0.62251  -0.61471  -0.59950  -0.58189
 Alpha  occ. eigenvalues --   -0.55891  -0.55319  -0.53280  -0.53150  -0.53015
 Alpha  occ. eigenvalues --   -0.52896  -0.50531  -0.48829  -0.48818  -0.48505
 Alpha  occ. eigenvalues --   -0.47250  -0.46388  -0.46325  -0.44820  -0.44391
 Alpha  occ. eigenvalues --   -0.37394  -0.36394
 Alpha virt. eigenvalues --    0.05001   0.11157   0.16356   0.19555   0.22827
 Alpha virt. eigenvalues --    0.23532   0.25877   0.26621   0.27165   0.28295
 Alpha virt. eigenvalues --    0.28860   0.29788   0.31075   0.31317   0.32107

 Mulliken charges:
               1
     1  C   -0.172683
     2  C   -0.219366
     3  C   -0.171146
     4  C    0.158503
     5  C   -0.170567
     6  C   -0.218570
     7  H    0.225844
     8  H    0.227467
     9  H    0.276447
    10  H    0.275932
    11  H    0.223706
    12  N    0.488126
    13  O   -0.460322
    14  O   -0.460089
    15  C   -0.299333
    16  C   -0.299754
    17  C   -0.475735
    18  H    0.153139
    19  H    0.148653
    20  H    0.153768
    21  H    0.149152
    22  H    0.153968
    23  H    0.157491
    24  H    0.161273
    25  C   -0.297929
    26  C   -0.306981
    27  C   -0.477750
    28  H    0.152932
    29  H    0.144144
    30  H    0.158112
    31  H    0.148525
    32  H    0.150426
    33  H    0.160144
    34  H    0.162472
 Sum of Mulliken charges =  -0.00000

 Dipole moment (field-independent basis, Debye):
    X=             -3.6932    Y=             -2.0296    Z=              3.0496  Tot=              5.2019
 Quadrupole moment (field-independent basis, Debye-Ang):
   XX=           -114.6129   YY=            -90.6713   ZZ=            -95.0982
   XY=             -8.1124   XZ=              9.6158   YZ=             -1.4321

 Normal termination of Gaussian 16 at Thu May  6 20:40:11 2021.
