 Gaussian 16, Revision A.03,
 Gaussian 16:  EM64L-G16RevA.03 25-Dec-2016

 -------------
 #p 6-31g* mp2
 -------------

 ------------------------------------------------------
 Input file generated by CHIRIPA (05-May-2021 14:57:21)
 ------------------------------------------------------
 Symbolic Z-matrix:
 Charge =  0 Multiplicity = 1

                         Standard orientation:
 ---------------------------------------------------------------------
 Center     Atomic      Atomic             Coordinates (Angstroms)
 Number     Number       Type             X           Y           Z
 ---------------------------------------------------------------------
      1          6           0       -3.622258   -2.068476    0.750199
      2          6           0       -4.232007   -0.967733    1.361012
      3          6           0       -3.905914    0.333540    0.967438
      4          6           0       -2.961600    0.498223   -0.044708
      5          6           0       -2.336751   -0.578237   -0.672472
      6          6           0       -2.678241   -1.870564   -0.262808
      7          1           0       -3.881555   -3.075861    1.062186
      8          1           0       -4.965492   -1.118428    2.147991
      9          1           0       -4.362660    1.203555    1.423371
     10          1           0       -1.609247   -0.396342   -1.454182
     11          1           0       -2.203098   -2.723543   -0.738949
     12          7           0       -2.608230    1.871087   -0.469884
     13          8           0       -1.773189    1.989430   -1.363941
     14          8           0       -3.172990    2.802798    0.098971
     15          6           0        4.605641    0.918091    1.535061
     16          6           0        4.712150    1.104433    0.152869
     17          6           0        3.838896    0.450162   -0.721146
     18          6           0        2.866530   -0.387008   -0.176223
     19          6           0        2.735122   -0.593089    1.196203
     20          6           0        3.619207    0.071419    2.051406
     21          1           0        5.288213    1.430321    2.206711
     22          1           0        5.477261    1.761379   -0.250950
     23          1           0        3.899035    0.576399   -1.795328
     24          1           0        1.962243   -1.254195    1.569049
     25          1           0        3.534153   -0.075185    3.124402
     26          7           0        1.936322   -1.085074   -1.091546
     27          8           0        1.088259   -1.817362   -0.586392
     28          8           0        2.072900   -0.886711   -2.296799
 ---------------------------------------------------------------------

 SCF Done:  E(RHF) =  -868.340172788     A.U. after   16 cycles
 E2 =    -0.2599044230D+01 EUMP2 =    -0.87093921701782D+03

 The electronic state is 1-A.
 Alpha  occ. eigenvalues --  -20.61187 -20.61137 -20.60126 -20.60112 -15.86180
 Alpha  occ. eigenvalues --  -15.85164 -11.31271 -11.30315 -11.27839 -11.27790
 Alpha  occ. eigenvalues --  -11.27525 -11.26953 -11.26794 -11.26758 -11.26699
 Alpha  occ. eigenvalues --  -11.26614 -11.25963 -11.25684  -1.60224  -1.59204
 Alpha  occ. eigenvalues --   -1.39783  -1.38760  -1.19422  -1.18481  -1.08874
 Alpha  occ. eigenvalues --   -1.07935  -1.04791  -1.03814  -0.95755  -0.94792
 Alpha  occ. eigenvalues --   -0.86204  -0.85246  -0.82604  -0.81602  -0.77674
 Alpha  occ. eigenvalues --   -0.76667  -0.72424  -0.71526  -0.71377  -0.70543
 Alpha  occ. eigenvalues --   -0.70528  -0.69598  -0.65088  -0.64804  -0.64121
 Alpha  occ. eigenvalues --   -0.63809  -0.62147  -0.61138  -0.55316  -0.54390
 Alpha  occ. eigenvalues --   -0.53124  -0.52889  -0.52211  -0.51887  -0.49198
 Alpha  occ. eigenvalues --   -0.49150  -0.48152  -0.48127  -0.45243  -0.44211
 Alpha  occ. eigenvalues --   -0.37386  -0.36512  -0.36374  -0.35387
 Alpha virt. eigenvalues --    0.04815   0.05836   0.11284   0.12222   0.16366
 Alpha virt. eigenvalues --    0.17358   0.21398   0.22378   0.27325   0.28149
 Alpha virt. eigenvalues --    0.28491   0.29197   0.30987   0.31849   0.32506

 Mulliken charges:
               1
     1  C   -0.173309
     2  C   -0.219906
     3  C   -0.173641
     4  C    0.154857
     5  C   -0.168617
     6  C   -0.216504
     7  H    0.222507
     8  H    0.218932
     9  H    0.271411
    10  H    0.285137
    11  H    0.234178
    12  N    0.487766
    13  O   -0.460221
    14  O   -0.465044
    15  C   -0.169451
    16  C   -0.218164
    17  C   -0.168182
    18  C    0.159625
    19  C   -0.170057
    20  C   -0.218242
    21  H    0.226503
    22  H    0.224881
    23  H    0.277179
    24  H    0.273528
    25  H    0.223312
    26  N    0.489770
    27  O   -0.471799
    28  O   -0.456449
 Sum of Mulliken charges =  -0.00000

 Dipole moment (field-independent basis, Debye):
    X=              2.4450    Y=             -2.4448    Z=              4.5368  Tot=              5.7041
 Quadrupole moment (field-independent basis, Debye-Ang):
   XX=            -77.1006   YY=           -111.3468   ZZ=           -101.3481
   XY=             20.1729   XZ=              0.3056   YZ=             -1.0473

 Normal termination of Gaussian 16 at Thu May  6 16:08:03 2021.
