 Gaussian 16, Revision A.03,
 Gaussian 16:  EM64L-G16RevA.03 25-Dec-2016

 -------------
 #p 6-31g* mp2
 -------------

 ------------------------------------------------------
 Input file generated by CHIRIPA (05-May-2021 14:55:23)
 ------------------------------------------------------
 Symbolic Z-matrix:
 Charge =  0 Multiplicity = 1

                         Standard orientation:
 ---------------------------------------------------------------------
 Center     Atomic      Atomic             Coordinates (Angstroms)
 Number     Number       Type             X           Y           Z
 ---------------------------------------------------------------------
      1          6           0       -3.253454   -1.752171    1.320391
      2          6           0       -3.136986   -1.692139   -0.072216
      3          6           0       -2.687880   -0.525144   -0.697496
      4          6           0       -2.362422    0.567945    0.104079
      5          6           0       -2.467827    0.539128    1.493809
      6          6           0       -2.919092   -0.638310    2.097588
      7          1           0       -3.603169   -2.662777    1.797772
      8          1           0       -3.395946   -2.555636   -0.678316
      9          1           0       -2.588332   -0.451321   -1.773627
     10          1           0       -2.202204    1.416159    2.071459
     11          1           0       -3.008559   -0.682064    3.179312
     12          7           0       -1.885831    1.808918   -0.546496
     13          8           0       -1.605416    2.758208    0.182101
     14          8           0       -1.801718    1.808804   -1.772694
     15          6           0        3.606182   -0.498686    0.321340
     16          6           0        4.709175    0.558824    0.265983
     17          6           0        5.664968    0.478998    1.456732
     18          1           0        3.040655   -0.380917    1.255819
     19          1           0        4.065672   -1.496157    0.357653
     20          1           0        4.247726    1.553946    0.228388
     21          1           0        5.272022    0.438645   -0.668564
     22          1           0        6.152102   -0.500726    1.494702
     23          1           0        5.121987    0.620912    2.396750
     24          1           0        6.445502    1.243888    1.396991
     25          6           0        2.642700   -0.431663   -0.862272
     26          6           0        1.539707   -1.489173   -0.806916
     27          6           0        0.583915   -1.409347   -1.997665
     28          1           0        2.183212    0.565807   -0.898586
     29          1           0        3.208228   -0.549433   -1.796752
     30          1           0        0.976861   -1.368995    0.127630
     31          1           0        2.001156   -2.484296   -0.769321
     32          1           0        1.126896   -1.551261   -2.937683
     33          1           0        0.096780   -0.429623   -2.035635
     34          1           0       -0.196619   -2.174238   -1.937924
 ---------------------------------------------------------------------

 SCF Done:  E(RHF) =  -669.535724054     A.U. after   15 cycles
 E2 =    -0.2093052662D+01 EUMP2 =    -0.67162877671642D+03

 The electronic state is 1-A.
 Alpha  occ. eigenvalues --  -20.60959 -20.60945 -15.85968 -11.31240 -11.27834
 Alpha  occ. eigenvalues --  -11.27802 -11.27562 -11.26808 -11.26794 -11.21458
 Alpha  occ. eigenvalues --  -11.21338 -11.21174 -11.21080 -11.20874 -11.20874
 Alpha  occ. eigenvalues --   -1.60008  -1.39566  -1.19427  -1.08836  -1.08205
 Alpha  occ. eigenvalues --   -1.04819  -1.03330  -0.95810  -0.95659  -0.86820
 Alpha  occ. eigenvalues --   -0.86209  -0.82517  -0.79401  -0.78009  -0.77568
 Alpha  occ. eigenvalues --   -0.72192  -0.71328  -0.70540  -0.65085  -0.64870
 Alpha  occ. eigenvalues --   -0.64784  -0.62183  -0.60725  -0.59172  -0.57396
 Alpha  occ. eigenvalues --   -0.55353  -0.55073  -0.53145  -0.52922  -0.52448
 Alpha  occ. eigenvalues --   -0.52196  -0.49729  -0.48952  -0.48942  -0.47708
 Alpha  occ. eigenvalues --   -0.46436  -0.45562  -0.45483  -0.44881  -0.43596
 Alpha  occ. eigenvalues --   -0.37399  -0.36368
 Alpha virt. eigenvalues --    0.04939   0.11216   0.16354   0.21193   0.23040
 Alpha virt. eigenvalues --    0.24414   0.26654   0.26881   0.27628   0.28003
 Alpha virt. eigenvalues --    0.28868   0.30172   0.31587   0.31885   0.32352

 Mulliken charges:
               1
     1  C   -0.170100
     2  C   -0.220359
     3  C   -0.165571
     4  C    0.156968
     5  C   -0.171042
     6  C   -0.219182
     7  H    0.225981
     8  H    0.223763
     9  H    0.277604
    10  H    0.275497
    11  H    0.223552
    12  N    0.488033
    13  O   -0.458960
    14  O   -0.459619
    15  C   -0.297737
    16  C   -0.300250
    17  C   -0.475526
    18  H    0.148037
    19  H    0.147469
    20  H    0.155696
    21  H    0.151943
    22  H    0.153760
    23  H    0.154349
    24  H    0.160519
    25  C   -0.300008
    26  C   -0.300031
    27  C   -0.483737
    28  H    0.156655
    29  H    0.150013
    30  H    0.150182
    31  H    0.149329
    32  H    0.155873
    33  H    0.167791
    34  H    0.149108
 Sum of Mulliken charges =  -0.00000

 Dipole moment (field-independent basis, Debye):
    X=             -1.7532    Y=             -4.2385    Z=              2.2808  Tot=              5.1225
 Quadrupole moment (field-independent basis, Debye-Ang):
   XX=            -87.8179   YY=            -99.1155   ZZ=            -90.7836
   XY=              9.5595   XZ=             -6.2500   YZ=              3.1773

 Normal termination of Gaussian 16 at Thu May  6 15:58:12 2021.
