 Gaussian 16, Revision A.03,
 Gaussian 16:  EM64L-G16RevA.03 25-Dec-2016

 -------------
 #p 6-31g* mp2
 -------------

 ------------------------------------------------------
 Input file generated by CHIRIPA (05-May-2021 14:55:19)
 ------------------------------------------------------
 Symbolic Z-matrix:
 Charge =  0 Multiplicity = 1

                         Standard orientation:
 ---------------------------------------------------------------------
 Center     Atomic      Atomic             Coordinates (Angstroms)
 Number     Number       Type             X           Y           Z
 ---------------------------------------------------------------------
      1          6           0       -5.180414   -0.138857    0.613418
      2          6           0       -4.834379   -0.468129   -0.701253
      3          6           0       -3.491830   -0.565011   -1.079038
      4          6           0       -2.516734   -0.325078   -0.112131
      5          6           0       -2.829677    0.004904    1.205621
      6          6           0       -4.178724    0.096194    1.560989
      7          1           0       -6.225862   -0.065768    0.898183
      8          1           0       -5.610186   -0.651204   -1.439260
      9          1           0       -3.195865   -0.818229   -2.089832
     10          1           0       -2.033985    0.181802    1.919063
     11          1           0       -4.444516    0.352089    2.582712
     12          7           0       -1.091997   -0.424683   -0.500209
     13          8           0       -0.251789   -0.208574    0.370414
     14          8           0       -0.842475   -0.716977   -1.667659
     15          6           0        3.156393    0.995824    0.359805
     16          6           0        2.497546    1.888179   -0.692625
     17          6           0        1.770108    3.085743   -0.080687
     18          1           0        2.389923    0.641171    1.062436
     19          1           0        3.865336    1.595630    0.947194
     20          1           0        1.791071    1.286549   -1.278759
     21          1           0        3.265642    2.240594   -1.392944
     22          1           0        2.466653    3.709901    0.488394
     23          1           0        0.983704    2.750436    0.603227
     24          1           0        1.306473    3.710174   -0.850745
     25          6           0        3.887570   -0.205650   -0.236488
     26          6           0        4.546417   -1.098004    0.815942
     27          6           0        5.273854   -2.295569    0.204004
     28          1           0        3.178625   -0.805456   -0.823877
     29          1           0        4.654039    0.149004   -0.939119
     30          1           0        3.778320   -1.450420    1.516260
     31          1           0        5.252891   -0.496375    1.402076
     32          1           0        6.060258   -1.960262   -0.479910
     33          1           0        4.577309   -2.919728   -0.365077
     34          1           0        5.737489   -2.919999    0.974062
 ---------------------------------------------------------------------

 SCF Done:  E(RHF) =  -669.536956124     A.U. after   15 cycles
 E2 =    -0.2092402919D+01 EUMP2 =    -0.67162935904282D+03

 The electronic state is 1-A.
 Alpha  occ. eigenvalues --  -20.61199 -20.61191 -15.86193 -11.31426 -11.27976
 Alpha  occ. eigenvalues --  -11.27971 -11.27697 -11.26961 -11.26951 -11.20366
 Alpha  occ. eigenvalues --  -11.20049 -11.19880 -11.19816 -11.19766 -11.19611
 Alpha  occ. eigenvalues --   -1.60231  -1.39791  -1.19583  -1.09005  -1.06875
 Alpha  occ. eigenvalues --   -1.04965  -1.02136  -0.95861  -0.94619  -0.86370
 Alpha  occ. eigenvalues --   -0.85649  -0.82701  -0.78215  -0.77767  -0.76667
 Alpha  occ. eigenvalues --   -0.72426  -0.71533  -0.70692  -0.65245  -0.64972
 Alpha  occ. eigenvalues --   -0.63450  -0.62312  -0.59514  -0.58009  -0.56242
 Alpha  occ. eigenvalues --   -0.55472  -0.53897  -0.53297  -0.53055  -0.51393
 Alpha  occ. eigenvalues --   -0.51066  -0.49254  -0.49173  -0.48462  -0.46547
 Alpha  occ. eigenvalues --   -0.45237  -0.45174  -0.44214  -0.44047  -0.42349
 Alpha  occ. eigenvalues --   -0.37554  -0.36560
 Alpha virt. eigenvalues --    0.04729   0.11096   0.16230   0.21195   0.24442
 Alpha virt. eigenvalues --    0.25609   0.27145   0.27785   0.28553   0.28975
 Alpha virt. eigenvalues --    0.29291   0.30812   0.32102   0.32819   0.33054

 Mulliken charges:
               1
     1  C   -0.170227
     2  C   -0.218627
     3  C   -0.170227
     4  C    0.158307
     5  C   -0.170445
     6  C   -0.218530
     7  H    0.226544
     8  H    0.224309
     9  H    0.276139
    10  H    0.275705
    11  H    0.224385
    12  N    0.492704
    13  O   -0.463494
    14  O   -0.458699
    15  C   -0.298414
    16  C   -0.300182
    17  C   -0.477195
    18  H    0.165755
    19  H    0.138156
    20  H    0.169334
    21  H    0.142618
    22  H    0.148492
    23  H    0.156638
    24  H    0.153058
    25  C   -0.299765
    26  C   -0.298844
    27  C   -0.475010
    28  H    0.161219
    29  H    0.142695
    30  H    0.152842
    31  H    0.146851
    32  H    0.152525
    33  H    0.156034
    34  H    0.155352
 Sum of Mulliken charges =  -0.00000

 Dipole moment (field-independent basis, Debye):
    X=             -5.5185    Y=              0.1414    Z=              1.3288  Tot=              5.6779
 Quadrupole moment (field-independent basis, Debye-Ang):
   XX=            -70.7817   YY=            -97.1851   ZZ=            -90.8735
   XY=              1.7555   XZ=             -1.5719   YZ=              0.6391

 Normal termination of Gaussian 16 at Wed May  5 20:29:27 2021.
