 Gaussian 16, Revision A.03,
 Gaussian 16:  EM64L-G16RevA.03 25-Dec-2016

 -------------
 #p 6-31g* mp2
 -------------

 ------------------------------------------------------
 Input file generated by CHIRIPA (05-May-2021 14:55:21)
 ------------------------------------------------------
 Symbolic Z-matrix:
 Charge =  0 Multiplicity = 1

                         Standard orientation:
 ---------------------------------------------------------------------
 Center     Atomic      Atomic             Coordinates (Angstroms)
 Number     Number       Type             X           Y           Z
 ---------------------------------------------------------------------
      1          6           0       -0.913240    1.156639    1.397634
      2          6           0       -0.714888   -0.184073    1.051702
      3          6           0       -1.720218   -0.905728    0.401262
      4          6           0       -2.916876   -0.252399    0.110645
      5          6           0       -3.144664    1.082280    0.442360
      6          6           0       -2.125358    1.784430    1.092397
      7          1           0       -0.126847    1.709663    1.902756
      8          1           0        0.225441   -0.674199    1.287505
      9          1           0       -1.593277   -1.944638    0.122030
     10          1           0       -4.092755    1.543724    0.194145
     11          1           0       -2.282190    2.825542    1.359855
     12          7           0       -3.988572   -1.006058   -0.577733
     13          8           0       -5.033775   -0.407562   -0.822660
     14          8           0       -3.763071   -2.181002   -0.859323
     15          6           0        3.680823   -0.388628    0.211062
     16          6           0        4.450489   -1.551033   -0.416962
     17          6           0        4.789950   -2.648834    0.591696
     18          1           0        4.275730    0.036176    1.031168
     19          1           0        2.755276   -0.772119    0.662384
     20          1           0        5.373637   -1.165256   -0.868173
     21          1           0        3.853764   -1.972997   -1.235792
     22          1           0        3.877302   -3.061205    1.033992
     23          1           0        5.405810   -2.248876    1.403700
     24          1           0        5.340043   -3.469908    0.121490
     25          6           0        3.334211    0.716785   -0.784754
     26          6           0        2.564545    1.879190   -0.156730
     27          6           0        2.225084    2.976991   -1.165389
     28          1           0        4.259759    1.100275   -1.236076
     29          1           0        2.739305    0.291981   -1.604859
     30          1           0        3.161270    2.301152    0.662100
     31          1           0        1.641398    1.493413    0.294480
     32          1           0        1.609225    2.577033   -1.977392
     33          1           0        3.137732    3.389363   -1.607685
     34          1           0        1.674991    3.798066   -0.695183
 ---------------------------------------------------------------------

 SCF Done:  E(RHF) =  -669.534466442     A.U. after   15 cycles
 E2 =    -0.2093321984D+01 EUMP2 =    -0.67162778842617D+03

 The electronic state is 1-A.
 Alpha  occ. eigenvalues --  -20.60794 -20.60789 -15.85849 -11.31228 -11.27803
 Alpha  occ. eigenvalues --  -11.27800 -11.27516 -11.26807 -11.26797 -11.22399
 Alpha  occ. eigenvalues --  -11.22298 -11.22235 -11.22109 -11.21755 -11.21666
 Alpha  occ. eigenvalues --   -1.59870  -1.39423  -1.19408  -1.09215  -1.08796
 Alpha  occ. eigenvalues --   -1.04812  -1.04247  -0.96686  -0.95634  -0.87697
 Alpha  occ. eigenvalues --   -0.86214  -0.82466  -0.80333  -0.79060  -0.77502
 Alpha  occ. eigenvalues --   -0.72067  -0.71194  -0.70535  -0.65911  -0.65055
 Alpha  occ. eigenvalues --   -0.64763  -0.62156  -0.61643  -0.60068  -0.58320
 Alpha  occ. eigenvalues --   -0.55992  -0.55287  -0.53372  -0.53169  -0.53098
 Alpha  occ. eigenvalues --   -0.52888  -0.50612  -0.48831  -0.48822  -0.48627
 Alpha  occ. eigenvalues --   -0.47355  -0.46571  -0.46490  -0.44826  -0.44518
 Alpha  occ. eigenvalues --   -0.37319  -0.36405
 Alpha virt. eigenvalues --    0.04999   0.11103   0.16424   0.19562   0.22646
 Alpha virt. eigenvalues --    0.23452   0.24848   0.26353   0.26719   0.28230
 Alpha virt. eigenvalues --    0.29249   0.30624   0.30931   0.31299   0.32041

 Mulliken charges:
               1
     1  C   -0.171668
     2  C   -0.221967
     3  C   -0.172735
     4  C    0.158622
     5  C   -0.170880
     6  C   -0.220091
     7  H    0.228673
     8  H    0.230254
     9  H    0.275860
    10  H    0.275843
    11  H    0.223805
    12  N    0.488082
    13  O   -0.460292
    14  O   -0.460372
    15  C   -0.300779
    16  C   -0.300400
    17  C   -0.475796
    18  H    0.151158
    19  H    0.140772
    20  H    0.154943
    21  H    0.154178
    22  H    0.152843
    23  H    0.155952
    24  H    0.163651
    25  C   -0.298162
    26  C   -0.308192
    27  C   -0.474771
    28  H    0.152972
    29  H    0.153194
    30  H    0.150280
    31  H    0.150277
    32  H    0.159707
    33  H    0.158008
    34  H    0.157029
 Sum of Mulliken charges =  -0.00000

 Dipole moment (field-independent basis, Debye):
    X=              3.8686    Y=              2.6581    Z=              2.3264  Tot=              5.2387
 Quadrupole moment (field-independent basis, Debye-Ang):
   XX=           -114.2482   YY=            -93.4617   ZZ=            -95.2556
   XY=            -10.9988   XZ=             -7.0933   YZ=              0.3863

 Normal termination of Gaussian 16 at Thu May  6 10:53:29 2021.
