 Gaussian 16, Revision A.03,
 Gaussian 16:  EM64L-G16RevA.03 25-Dec-2016

 -------------
 #p 6-31g* mp2
 -------------

 ------------------------------------------------------
 Input file generated by CHIRIPA (05-May-2021 14:53:11)
 ------------------------------------------------------
 Symbolic Z-matrix:
 Charge =  0 Multiplicity = 1

                         Standard orientation:
 ---------------------------------------------------------------------
 Center     Atomic      Atomic             Coordinates (Angstroms)
 Number     Number       Type             X           Y           Z
 ---------------------------------------------------------------------
      1          6           0        1.876383    1.105171   -0.413042
      2          6           0        1.656886    2.438741    0.302078
      3          6           0        0.288582    3.051863    0.002715
      4          1           0        1.769228    1.255160   -1.496078
      5          1           0        1.085684    0.402765   -0.115023
      6          1           0        2.448558    3.137983    0.003861
      7          1           0        1.764766    2.285599    1.383524
      8          1           0       -0.513432    2.375956    0.316601
      9          1           0        0.174245    3.233184   -1.070901
     10          1           0        0.152816    4.004574    0.524031
     11          6           0        3.239797    0.479795   -0.123675
     12          6           0        3.459294   -0.853776   -0.838795
     13          6           0        4.827598   -1.466898   -0.539432
     14          1           0        4.030496    1.182201   -0.421694
     15          1           0        3.346952    0.329806    0.959361
     16          1           0        3.351414   -0.700633   -1.920241
     17          1           0        2.667622   -1.553017   -0.540578
     18          1           0        4.941935   -1.648218    0.534184
     19          1           0        5.629612   -0.790990   -0.853318
     20          1           0        4.963364   -2.419608   -1.060748
     21          6           0       -0.217005   -1.346181    1.841698
     22          6           0       -1.139359   -0.359672    2.205822
     23          6           0       -2.130705    0.050954    1.309626
     24          6           0       -2.170737   -0.548838    0.051876
     25          6           0       -1.266030   -1.534190   -0.340396
     26          6           0       -0.283168   -1.929264    0.571990
     27          1           0        0.549801   -1.659124    2.544173
     28          1           0       -1.090370    0.094900    3.191219
     29          1           0       -2.857340    0.812496    1.565501
     30          1           0       -1.340093   -1.968958   -1.329794
     31          1           0        0.431825   -2.695628    0.286480
     32          7           0       -3.215740   -0.122360   -0.905458
     33          8           0       -3.229707   -0.666289   -2.007538
     34          8           0       -4.001057    0.747768   -0.535606
 ---------------------------------------------------------------------

 SCF Done:  E(RHF) =  -669.533873998     A.U. after   15 cycles
 E2 =    -0.2096445332D+01 EUMP2 =    -0.67163031932961D+03

 The electronic state is 1-A.
 Alpha  occ. eigenvalues --  -20.60876 -20.60871 -15.85932 -11.31384 -11.27959
 Alpha  occ. eigenvalues --  -11.27923 -11.27679 -11.26984 -11.26935 -11.22147
 Alpha  occ. eigenvalues --  -11.21745 -11.21706 -11.21605 -11.21331 -11.21017
 Alpha  occ. eigenvalues --   -1.59949  -1.39500  -1.19580  -1.08960  -1.08679
 Alpha  occ. eigenvalues --   -1.04982  -1.03810  -0.96235  -0.95757  -0.87253
 Alpha  occ. eigenvalues --   -0.86360  -0.82583  -0.79907  -0.78498  -0.77619
 Alpha  occ. eigenvalues --   -0.72147  -0.71273  -0.70648  -0.65426  -0.65203
 Alpha  occ. eigenvalues --   -0.64937  -0.62327  -0.61228  -0.59626  -0.57855
 Alpha  occ. eigenvalues --   -0.55573  -0.55436  -0.53454  -0.53070  -0.52922
 Alpha  occ. eigenvalues --   -0.52641  -0.50201  -0.48917  -0.48898  -0.48199
 Alpha  occ. eigenvalues --   -0.46969  -0.46014  -0.45760  -0.44884  -0.44031
 Alpha  occ. eigenvalues --   -0.37501  -0.36490
 Alpha virt. eigenvalues --    0.04889   0.10902   0.16314   0.20317   0.23064
 Alpha virt. eigenvalues --    0.23645   0.25943   0.26471   0.27405   0.28403
 Alpha virt. eigenvalues --    0.28595   0.29899   0.31301   0.31477   0.32061

 Mulliken charges:
               1
     1  C   -0.309652
     2  C   -0.297214
     3  C   -0.479977
     4  H    0.149958
     5  H    0.164368
     6  H    0.151688
     7  H    0.145422
     8  H    0.156083
     9  H    0.158611
    10  H    0.159057
    11  C   -0.296752
    12  C   -0.300653
    13  C   -0.475470
    14  H    0.151379
    15  H    0.143482
    16  H    0.155427
    17  H    0.142184
    18  H    0.152323
    19  H    0.158422
    20  H    0.159998
    21  C   -0.171794
    22  C   -0.215873
    23  C   -0.173983
    24  C    0.162739
    25  C   -0.170295
    26  C   -0.220598
    27  H    0.226917
    28  H    0.225085
    29  H    0.277306
    30  H    0.276978
    31  H    0.225899
    32  N    0.488308
    33  O   -0.459677
    34  O   -0.459695
 Sum of Mulliken charges =  -0.00000

 Dipole moment (field-independent basis, Debye):
    X=              3.5109    Y=             -1.5586    Z=              3.3406  Tot=              5.0907
 Quadrupole moment (field-independent basis, Debye-Ang):
   XX=           -111.6545   YY=            -91.7338   ZZ=            -91.7381
   XY=              0.6860   XZ=             -9.1671   YZ=              0.1028

 Normal termination of Gaussian 16 at Thu May  6 02:29:44 2021.
