 Gaussian 16, Revision A.03,
 Gaussian 16:  EM64L-G16RevA.03 25-Dec-2016

 -------------
 #p 6-31g* mp2
 -------------

 ------------------------------------------------------
 Input file generated by CHIRIPA (05-May-2021 14:57:22)
 ------------------------------------------------------
 Symbolic Z-matrix:
 Charge =  0 Multiplicity = 1

                         Standard orientation:
 ---------------------------------------------------------------------
 Center     Atomic      Atomic             Coordinates (Angstroms)
 Number     Number       Type             X           Y           Z
 ---------------------------------------------------------------------
      1          6           0        1.108322    2.847852    0.036969
      2          6           0        1.577296    2.219854   -1.121566
      3          6           0        2.191813    0.966117   -1.050438
      4          6           0        2.321430    0.366389    0.201288
      5          6           0        1.864441    0.966588    1.373556
      6          6           0        1.253136    2.220321    1.278643
      7          1           0        0.632197    3.821783   -0.027523
      8          1           0        1.466187    2.704845   -2.087218
      9          1           0        2.563931    0.457450   -1.931462
     10          1           0        1.989491    0.458277    2.321923
     11          1           0        0.889873    2.705674    2.180041
     12          7           0        2.970292   -0.960884    0.289177
     13          8           0        3.072419   -1.468266    1.403974
     14          8           0        3.364457   -1.468686   -0.758395
     15          6           0       -3.997250    1.130916    0.305990
     16          6           0       -3.030219    1.387082   -0.671636
     17          6           0       -2.037737    0.443497   -0.953017
     18          6           0       -2.042139   -0.751042   -0.234444
     19          6           0       -2.991946   -1.035548    0.745460
     20          6           0       -3.975066   -0.077450    1.010176
     21          1           0       -4.764597    1.869552    0.518100
     22          1           0       -3.044996    2.324647   -1.220087
     23          1           0       -1.277034    0.615973   -1.704683
     24          1           0       -2.951387   -1.979308    1.275640
     25          1           0       -4.724810   -0.279101    1.769956
     26          7           0       -0.996400   -1.757655   -0.523508
     27          8           0       -1.022084   -2.802321    0.123524
     28          8           0       -0.170864   -1.482911   -1.391636
 ---------------------------------------------------------------------

 SCF Done:  E(RHF) =  -868.336393925     A.U. after   16 cycles
 E2 =    -0.2603960855D+01 EUMP2 =    -0.87094035478035D+03

 The electronic state is 1-A.
 Alpha  occ. eigenvalues --  -20.60821 -20.60780 -20.59861 -20.59798 -15.85842
 Alpha  occ. eigenvalues --  -15.84901 -11.31321 -11.30636 -11.27934 -11.27911
 Alpha  occ. eigenvalues --  -11.27726 -11.27350 -11.27277 -11.27249 -11.27004
 Alpha  occ. eigenvalues --  -11.26949 -11.26459 -11.26450  -1.59868  -1.58878
 Alpha  occ. eigenvalues --   -1.39422  -1.38428  -1.19526  -1.18913  -1.08904
 Alpha  occ. eigenvalues --   -1.08244  -1.04953  -1.04389  -0.95714  -0.95004
 Alpha  occ. eigenvalues --   -0.86347  -0.85764  -0.82551  -0.81850  -0.77581
 Alpha  occ. eigenvalues --   -0.76790  -0.72080  -0.71275  -0.71143  -0.70647
 Alpha  occ. eigenvalues --   -0.70096  -0.70051  -0.65184  -0.64972  -0.64571
 Alpha  occ. eigenvalues --   -0.64415  -0.62308  -0.61718  -0.55468  -0.54936
 Alpha  occ. eigenvalues --   -0.53343  -0.53099  -0.52587  -0.52491  -0.48818
 Alpha  occ. eigenvalues --   -0.48805  -0.47924  -0.47848  -0.44835  -0.43717
 Alpha  occ. eigenvalues --   -0.37540  -0.37079  -0.36375  -0.35968
 Alpha virt. eigenvalues --    0.04923   0.05784   0.11071   0.11648   0.16420
 Alpha virt. eigenvalues --    0.17107   0.21016   0.21762   0.26860   0.27500
 Alpha virt. eigenvalues --    0.28259   0.28577   0.30648   0.31200   0.32359

 Mulliken charges:
               1
     1  C   -0.172607
     2  C   -0.230298
     3  C   -0.155397
     4  C    0.161887
     5  C   -0.174039
     6  C   -0.218547
     7  H    0.219517
     8  H    0.219019
     9  H    0.280218
    10  H    0.275516
    11  H    0.219938
    12  N    0.491499
    13  O   -0.463638
    14  O   -0.452027
    15  C   -0.171495
    16  C   -0.220965
    17  C   -0.165307
    18  C    0.157176
    19  C   -0.170703
    20  C   -0.219447
    21  H    0.224480
    22  H    0.218853
    23  H    0.273371
    24  H    0.277571
    25  H    0.223750
    26  N    0.486786
    27  O   -0.453090
    28  O   -0.462023
 Sum of Mulliken charges =  -0.00000

 Dipole moment (field-independent basis, Debye):
    X=             -5.8203    Y=              7.7717    Z=              0.6387  Tot=              9.7306
 Quadrupole moment (field-independent basis, Debye-Ang):
   XX=           -100.7570   YY=           -106.4981   ZZ=            -98.6463
   XY=              6.6392   XZ=             -5.2497   YZ=             -3.1058

 Normal termination of Gaussian 16 at Thu May  6 04:58:09 2021.
