 Gaussian 16, Revision A.03,
 Gaussian 16:  EM64L-G16RevA.03 25-Dec-2016

 -------------
 #p 6-31g* mp2
 -------------

 ------------------------------------------------------
 Input file generated by CHIRIPA (05-May-2021 14:51:12)
 ------------------------------------------------------
 Symbolic Z-matrix:
 Charge =  0 Multiplicity = 1

                         Standard orientation:
 ---------------------------------------------------------------------
 Center     Atomic      Atomic             Coordinates (Angstroms)
 Number     Number       Type             X           Y           Z
 ---------------------------------------------------------------------
      1          6           0       -3.397514   -0.084634    0.300464
      2          6           0       -4.774179    0.010132   -0.358168
      3          6           0       -5.670442    1.063119    0.294309
      4          1           0       -3.523429   -0.317952    1.366603
      5          1           0       -2.906820    0.897298    0.251218
      6          1           0       -5.261564   -0.972033   -0.308925
      7          1           0       -4.644965    0.243063   -1.422904
      8          1           0       -5.208758    2.053879    0.232317
      9          1           0       -5.828861    0.831880    1.352625
     10          1           0       -6.649568    1.114059   -0.192084
     11          6           0       -2.490035   -1.132990   -0.340754
     12          6           0       -1.113370   -1.227756    0.317878
     13          6           0       -0.217107   -2.280743   -0.334599
     14          1           0       -2.980729   -2.114922   -0.291509
     15          1           0       -2.364120   -0.899672   -1.406893
     16          1           0       -1.242584   -1.460687    1.382614
     17          1           0       -0.625985   -0.245591    0.268635
     18          1           0       -0.058688   -2.049504   -1.392915
     19          1           0       -0.678791   -3.271503   -0.272607
     20          1           0        0.762019   -2.331684    0.151793
     21          6           0        2.802707    1.244297   -0.379468
     22          6           0        2.278768    2.396369    0.478555
     23          6           0        2.001248    3.660756   -0.335142
     24          1           0        3.722329    1.563548   -0.888701
     25          1           0        2.070424    1.020850   -1.167648
     26          1           0        3.011194    2.616659    1.265729
     27          1           0        1.360392    2.074276    0.985954
     28          1           0        1.253894    3.463589   -1.110505
     29          1           0        2.914076    4.009054   -0.829141
     30          1           0        1.627553    4.471605    0.297896
     31          6           0        3.084842   -0.026672    0.419758
     32          6           0        3.608780   -1.178745   -0.438264
     33          6           0        3.886301   -2.443132    0.375432
     34          1           0        3.817125    0.196774    1.207939
     35          1           0        2.165220   -0.345923    0.928992
     36          1           0        4.527157   -0.856651   -0.945664
     37          1           0        2.876355   -1.399035   -1.225438
     38          1           0        2.973473   -2.791430    0.869431
     39          1           0        4.633654   -2.245964    1.150795
     40          1           0        4.259997   -3.253980   -0.257606
 ---------------------------------------------------------------------

 SCF Done:  E(RHF) =  -470.732567925     A.U. after   11 cycles
 E2 =    -0.1584386690D+01 EUMP2 =    -0.47231695461459D+03

 The electronic state is 1-A.
 Alpha  occ. eigenvalues --  -11.21687 -11.21634 -11.21614 -11.21550 -11.21460
 Alpha  occ. eigenvalues --  -11.21398 -11.21393 -11.21324 -11.21108 -11.21094
 Alpha  occ. eigenvalues --  -11.21091 -11.21064  -1.08505  -1.08409  -1.03618
 Alpha  occ. eigenvalues --   -1.03503  -0.96040  -0.95977  -0.87055  -0.86996
 Alpha  occ. eigenvalues --   -0.79655  -0.79586  -0.78320  -0.78216  -0.65276
 Alpha  occ. eigenvalues --   -0.64981  -0.61109  -0.60956  -0.59404  -0.59239
 Alpha  occ. eigenvalues --   -0.57618  -0.57580  -0.55359  -0.55255  -0.52721
 Alpha  occ. eigenvalues --   -0.52662  -0.52454  -0.52386  -0.50044  -0.49865
 Alpha  occ. eigenvalues --   -0.48025  -0.47842  -0.46739  -0.46575  -0.45895
 Alpha  occ. eigenvalues --   -0.45815  -0.45723  -0.45583  -0.43818  -0.43770
 Alpha virt. eigenvalues --    0.19651   0.22905   0.23346   0.25090   0.25878
 Alpha virt. eigenvalues --    0.26231   0.27081   0.27304   0.28110   0.29426
 Alpha virt. eigenvalues --    0.30712   0.31018   0.31683   0.32007   0.32443

 Mulliken charges:
               1
     1  C   -0.298335
     2  C   -0.299682
     3  C   -0.475758
     4  H    0.149797
     5  H    0.149448
     6  H    0.152036
     7  H    0.151991
     8  H    0.155296
     9  H    0.155243
    10  H    0.160385
    11  C   -0.298603
    12  C   -0.302513
    13  C   -0.484599
    14  H    0.149971
    15  H    0.149687
    16  H    0.152118
    17  H    0.153829
    18  H    0.154962
    19  H    0.155617
    20  H    0.169891
    21  C   -0.298197
    22  C   -0.301341
    23  C   -0.475584
    24  H    0.149765
    25  H    0.149409
    26  H    0.152222
    27  H    0.152859
    28  H    0.154657
    29  H    0.155355
    30  H    0.160329
    31  C   -0.302355
    32  C   -0.303151
    33  C   -0.478623
    34  H    0.149424
    35  H    0.153900
    36  H    0.152490
    37  H    0.155433
    38  H    0.156420
    39  H    0.155420
    40  H    0.160785
 Sum of Mulliken charges =  -0.00000

 Dipole moment (field-independent basis, Debye):
    X=             -0.0091    Y=             -0.0157    Z=              0.0009  Tot=              0.0182
 Quadrupole moment (field-independent basis, Debye-Ang):
   XX=            -84.3596   YY=            -85.6649   ZZ=            -84.6736
   XY=              1.3503   XZ=              0.0666   YZ=             -0.2258

 Normal termination of Gaussian 16 at Thu May  6 07:05:51 2021.
