 Gaussian 16, Revision A.03,
 Gaussian 16:  EM64L-G16RevA.03 25-Dec-2016

 -------------
 #p 6-31g* mp2
 -------------

 ------------------------------------------------------
 Input file generated by CHIRIPA (05-May-2021 14:51:12)
 ------------------------------------------------------
 Symbolic Z-matrix:
 Charge =  0 Multiplicity = 1

                         Standard orientation:
 ---------------------------------------------------------------------
 Center     Atomic      Atomic             Coordinates (Angstroms)
 Number     Number       Type             X           Y           Z
 ---------------------------------------------------------------------
      1          6           0       -4.034754   -0.653663   -0.050986
      2          6           0       -4.672175    0.435446   -0.914421
      3          6           0       -6.061556    0.049303   -1.422659
      4          1           0       -3.968498   -1.582683   -0.633632
      5          1           0       -4.692520   -0.866577    0.803068
      6          1           0       -4.012744    0.647221   -1.765842
      7          1           0       -4.736746    1.362034   -0.329714
      8          1           0       -6.738954   -0.142318   -0.584200
      9          1           0       -6.010838   -0.861192   -2.028488
     10          1           0       -6.498730    0.842095   -2.037655
     11          6           0       -2.645490   -0.282362    0.464581
     12          6           0       -2.008070   -1.371472    1.328016
     13          6           0       -0.618688   -0.985329    1.836255
     14          1           0       -1.987725   -0.069448   -0.389472
     15          1           0       -2.711747    0.646658    1.047228
     16          1           0       -1.943499   -2.298059    0.743309
     17          1           0       -2.667501   -1.583247    2.179437
     18          1           0       -0.669406   -0.074834    2.442083
     19          1           0        0.058710   -0.793708    0.997795
     20          1           0       -0.181515   -1.778121    2.451251
     21          6           0        2.714696    0.732463    0.142974
     22          6           0        2.495782    2.232316   -0.058280
     23          6           0        1.240648    2.746476    0.647463
     24          1           0        1.835315    0.187221   -0.226277
     25          1           0        2.784951    0.520353    1.218831
     26          1           0        2.427344    2.441727   -1.133491
     27          1           0        3.375867    2.774038    0.311317
     28          1           0        1.303763    2.566401    1.725512
     29          1           0        0.349850    2.232202    0.272495
     30          1           0        1.103423    3.820892    0.490432
     31          6           0        3.965549    0.203562   -0.556569
     32          6           0        4.184463   -1.296290   -0.355316
     33          6           0        5.439597   -1.810450   -1.061058
     34          1           0        3.895293    0.415673   -1.632427
     35          1           0        4.844930    0.748804   -0.187318
     36          1           0        3.304378   -1.838012   -0.724913
     37          1           0        4.252901   -1.505701    0.719896
     38          1           0        6.330395   -1.296177   -0.686090
     39          1           0        5.376482   -1.630375   -2.139108
     40          1           0        5.576820   -2.884868   -0.904027
 ---------------------------------------------------------------------

 SCF Done:  E(RHF) =  -470.733066081     A.U. after   11 cycles
 E2 =    -0.1583262724D+01 EUMP2 =    -0.47231632880505D+03

 The electronic state is 1-A.
 Alpha  occ. eigenvalues --  -11.21602 -11.21595 -11.21577 -11.21563 -11.21407
 Alpha  occ. eigenvalues --  -11.21386 -11.21348 -11.21324 -11.21071 -11.21067
 Alpha  occ. eigenvalues --  -11.21012 -11.20943  -1.08435  -1.08403  -1.03529
 Alpha  occ. eigenvalues --   -1.03483  -0.95967  -0.95941  -0.86995  -0.86947
 Alpha  occ. eigenvalues --   -0.79651  -0.79504  -0.78314  -0.78146  -0.65105
 Alpha  occ. eigenvalues --   -0.65003  -0.60958  -0.60858  -0.59371  -0.59282
 Alpha  occ. eigenvalues --   -0.57584  -0.57553  -0.55312  -0.55182  -0.52670
 Alpha  occ. eigenvalues --   -0.52637  -0.52449  -0.52309  -0.49969  -0.49833
 Alpha  occ. eigenvalues --   -0.48106  -0.47721  -0.46724  -0.46558  -0.45952
 Alpha  occ. eigenvalues --   -0.45744  -0.45680  -0.45346  -0.43768  -0.43762
 Alpha virt. eigenvalues --    0.21181   0.23150   0.23587   0.24834   0.25560
 Alpha virt. eigenvalues --    0.26588   0.26795   0.27310   0.28059   0.29676
 Alpha virt. eigenvalues --    0.30406   0.31290   0.31645   0.31890   0.32077

 Mulliken charges:
               1
     1  C   -0.298258
     2  C   -0.299662
     3  C   -0.475703
     4  H    0.149560
     5  H    0.149753
     6  H    0.151682
     7  H    0.152150
     8  H    0.155237
     9  H    0.155121
    10  H    0.160263
    11  C   -0.298888
    12  C   -0.299712
    13  C   -0.481683
    14  H    0.148335
    15  H    0.150554
    16  H    0.151384
    17  H    0.151668
    18  H    0.155746
    19  H    0.162313
    20  H    0.159398
    21  C   -0.302100
    22  C   -0.299549
    23  C   -0.477416
    24  H    0.152488
    25  H    0.151277
    26  H    0.151408
    27  H    0.151806
    28  H    0.155394
    29  H    0.157709
    30  H    0.159638
    31  C   -0.297684
    32  C   -0.299617
    33  C   -0.475665
    34  H    0.149133
    35  H    0.149678
    36  H    0.151407
    37  H    0.152306
    38  H    0.155230
    39  H    0.155059
    40  H    0.160241
 Sum of Mulliken charges =  -0.00000

 Dipole moment (field-independent basis, Debye):
    X=              0.0146    Y=              0.0065    Z=              0.0127  Tot=              0.0204
 Quadrupole moment (field-independent basis, Debye-Ang):
   XX=            -86.1068   YY=            -84.9379   ZZ=            -83.7891
   XY=              0.2189   XZ=              0.1059   YZ=              0.2547

 Normal termination of Gaussian 16 at Wed May  5 21:32:32 2021.
