 Gaussian 16, Revision A.03,
 Gaussian 16:  EM64L-G16RevA.03 25-Dec-2016

 -------------
 #p 6-31g* mp2
 -------------

 ------------------------------------------------------
 Input file generated by CHIRIPA (05-May-2021 14:57:21)
 ------------------------------------------------------
 Symbolic Z-matrix:
 Charge =  0 Multiplicity = 1

                         Standard orientation:
 ---------------------------------------------------------------------
 Center     Atomic      Atomic             Coordinates (Angstroms)
 Number     Number       Type             X           Y           Z
 ---------------------------------------------------------------------
      1          6           0       -5.637172   -0.128435    0.195532
      2          6           0       -4.973985   -1.355843    0.296387
      3          6           0       -3.593052   -1.435516    0.093349
      4          6           0       -2.903396   -0.262722   -0.210326
      5          6           0       -3.535674    0.975007   -0.317746
      6          6           0       -4.917170    1.031029   -0.110673
      7          1           0       -6.710133   -0.075729    0.354824
      8          1           0       -5.530586   -2.257925    0.534060
      9          1           0       -3.054511   -2.372647    0.165309
     10          1           0       -2.953831    1.857103   -0.556039
     11          1           0       -5.429577    1.985622   -0.189640
     12          7           0       -1.441166   -0.334549   -0.427409
     13          8           0       -0.856370    0.713158   -0.693791
     14          8           0       -0.907554   -1.437195   -0.327067
     15          6           0        4.719872   -1.655052   -0.326632
     16          6           0        4.029192   -1.619027    0.889172
     17          6           0        3.153727   -0.567859    1.177540
     18          6           0        2.992077    0.435143    0.223001
     19          6           0        3.665913    0.427419   -0.997317
     20          6           0        4.536352   -0.633515   -1.264344
     21          1           0        5.398002   -2.475418   -0.542354
     22          1           0        4.169755   -2.411000    1.619287
     23          1           0        2.606401   -0.515116    2.110851
     24          1           0        3.505136    1.231300   -1.705373
     25          1           0        5.071420   -0.658886   -2.209386
     26          7           0        2.067922    1.553137    0.516986
     27          8           0        1.942948    2.424622   -0.340646
     28          8           0        1.486042    1.536766    1.599476
 ---------------------------------------------------------------------

 SCF Done:  E(RHF) =  -868.338279464     A.U. after   16 cycles
 E2 =    -0.2600604820D+01 EUMP2 =    -0.87093888428410D+03

 The electronic state is 1-A.
 Alpha  occ. eigenvalues --  -20.60391 -20.60278 -20.59208 -20.59163 -15.85352
 Alpha  occ. eigenvalues --  -15.84258 -11.30744 -11.29786 -11.27365 -11.27266
 Alpha  occ. eigenvalues --  -11.27104 -11.26414 -11.26408 -11.26386 -11.26326
 Alpha  occ. eigenvalues --  -11.26253 -11.25518 -11.25507  -1.59402  -1.58210
 Alpha  occ. eigenvalues --   -1.38949  -1.37790  -1.18928  -1.17988  -1.08330
 Alpha  occ. eigenvalues --   -1.07363  -1.04336  -1.03454  -0.95160  -0.94180
 Alpha  occ. eigenvalues --   -0.85735  -0.84852  -0.81987  -0.81043  -0.77020
 Alpha  occ. eigenvalues --   -0.76036  -0.71673  -0.70741  -0.70527  -0.70048
 Alpha  occ. eigenvalues --   -0.69338  -0.69168  -0.64581  -0.64349  -0.63681
 Alpha  occ. eigenvalues --   -0.63508  -0.61678  -0.60826  -0.54860  -0.54002
 Alpha  occ. eigenvalues --   -0.52665  -0.52433  -0.51725  -0.51590  -0.48387
 Alpha  occ. eigenvalues --   -0.48353  -0.47276  -0.47241  -0.44351  -0.43162
 Alpha  occ. eigenvalues --   -0.36920  -0.35971  -0.35938  -0.35046
 Alpha virt. eigenvalues --    0.05515   0.06577   0.11715   0.12606   0.16989
 Alpha virt. eigenvalues --    0.18006   0.21820   0.22535   0.27728   0.28406
 Alpha virt. eigenvalues --    0.28741   0.29453   0.31356   0.32019   0.33033

 Mulliken charges:
               1
     1  C   -0.170934
     2  C   -0.218902
     3  C   -0.171259
     4  C    0.158811
     5  C   -0.169380
     6  C   -0.218987
     7  H    0.224149
     8  H    0.221287
     9  H    0.273039
    10  H    0.281664
    11  H    0.223513
    12  N    0.490190
    13  O   -0.453478
    14  O   -0.468643
    15  C   -0.171389
    16  C   -0.217840
    17  C   -0.165249
    18  C    0.168199
    19  C   -0.168060
    20  C   -0.218667
    21  H    0.220204
    22  H    0.218272
    23  H    0.272032
    24  H    0.273218
    25  H    0.218387
    26  N    0.498851
    27  O   -0.460800
    28  O   -0.468228
 Sum of Mulliken charges =  -0.00000

 Dipole moment (field-independent basis, Debye):
    X=             -2.1189    Y=             -3.4511    Z=             -0.3366  Tot=              4.0637
 Quadrupole moment (field-independent basis, Debye-Ang):
   XX=            -58.2663   YY=           -103.6171   ZZ=           -102.8183
   XY=             -9.4198   XZ=             -4.7815   YZ=             -4.8370

 Normal termination of Gaussian 16 at Thu May  6 06:30:13 2021.
