 Gaussian 16, Revision A.03,
 Gaussian 16:  EM64L-G16RevA.03 25-Dec-2016

 -------------
 #p 6-31g* mp2
 -------------

 ------------------------------------------------------
 Input file generated by CHIRIPA (05-May-2021 14:53:16)
 ------------------------------------------------------
 Symbolic Z-matrix:
 Charge =  0 Multiplicity = 1

                         Standard orientation:
 ---------------------------------------------------------------------
 Center     Atomic      Atomic             Coordinates (Angstroms)
 Number     Number       Type             X           Y           Z
 ---------------------------------------------------------------------
      1          6           0        3.588652    0.509244   -0.092741
      2          6           0        3.512487    2.026987   -0.261968
      3          6           0        2.087969    2.523229   -0.511538
      4          1           0        3.182593    0.025618   -0.991723
      5          1           0        2.942564    0.207639    0.743321
      6          1           0        4.159600    2.325790   -1.096580
      7          1           0        3.918952    2.507055    0.637441
      8          1           0        1.434140    2.253593    0.324168
      9          1           0        1.676155    2.071297   -1.419706
     10          1           0        2.056628    3.610861   -0.629583
     11          6           0        5.006298   -0.002044    0.157447
     12          6           0        5.082462   -1.519787    0.326674
     13          6           0        6.506981   -2.016029    0.576244
     14          1           0        5.652385    0.299560   -0.678615
     15          1           0        5.412357    0.481582    1.056429
     16          1           0        4.675998   -1.999856   -0.572735
     17          1           0        4.435349   -1.818590    1.161287
     18          1           0        6.918794   -1.564098    1.484412
     19          1           0        7.160810   -1.746393   -0.259462
     20          1           0        6.538322   -3.103661    0.694289
     21          6           0       -5.818205   -0.401253    0.493482
     22          6           0       -5.200696   -1.333457   -0.346873
     23          6           0       -3.837847   -1.230703   -0.641210
     24          6           0       -3.119501   -0.178488   -0.075427
     25          6           0       -3.706129    0.766009    0.765455
     26          6           0       -5.070270    0.643663    1.045990
     27          1           0       -6.877400   -0.488685    0.716770
     28          1           0       -5.779069   -2.145983   -0.777373
     29          1           0       -3.334546   -1.938516   -1.288595
     30          1           0       -3.103420    1.565117    1.179684
     31          1           0       -5.547190    1.369079    1.698956
     32          7           0       -1.676031   -0.059335   -0.379723
     33          8           0       -1.065250    0.876834    0.131325
     34          8           0       -1.182751   -0.904370   -1.123517
 ---------------------------------------------------------------------

 SCF Done:  E(RHF) =  -669.535713108     A.U. after   15 cycles
 E2 =    -0.2090932159D+01 EUMP2 =    -0.67162664526698D+03

 The electronic state is 1-A.
 Alpha  occ. eigenvalues --  -20.60895 -20.60889 -15.85937 -11.31275 -11.27841
 Alpha  occ. eigenvalues --  -11.27838 -11.27581 -11.26853 -11.26843 -11.20698
 Alpha  occ. eigenvalues --  -11.20355 -11.20336 -11.20212 -11.19982 -11.19213
 Alpha  occ. eigenvalues --   -1.59960  -1.39516  -1.19446  -1.08846  -1.07246
 Alpha  occ. eigenvalues --   -1.04845  -1.02321  -0.95688  -0.94745  -0.86245
 Alpha  occ. eigenvalues --   -0.85754  -0.82520  -0.78418  -0.77569  -0.76993
 Alpha  occ. eigenvalues --   -0.72159  -0.71278  -0.70554  -0.65101  -0.64848
 Alpha  occ. eigenvalues --   -0.63891  -0.62192  -0.59728  -0.58185  -0.56347
 Alpha  occ. eigenvalues --   -0.55347  -0.54027  -0.53176  -0.52937  -0.51483
 Alpha  occ. eigenvalues --   -0.51156  -0.48952  -0.48909  -0.48626  -0.46652
 Alpha  occ. eigenvalues --   -0.45465  -0.44926  -0.44512  -0.44449  -0.42587
 Alpha  occ. eigenvalues --   -0.37426  -0.36447
 Alpha virt. eigenvalues --    0.04962   0.11208   0.16457   0.21339   0.23966
 Alpha virt. eigenvalues --    0.25553   0.27257   0.27815   0.28189   0.28673
 Alpha virt. eigenvalues --    0.29306   0.30915   0.32386   0.32664   0.32785

 Mulliken charges:
               1
     1  C   -0.296842
     2  C   -0.300410
     3  C   -0.475222
     4  H    0.154886
     5  H    0.153054
     6  H    0.145654
     7  H    0.145350
     8  H    0.172420
     9  H    0.159874
    10  H    0.148021
    11  C   -0.297705
    12  C   -0.298681
    13  C   -0.475005
    14  H    0.146505
    15  H    0.146076
    16  H    0.152925
    17  H    0.151482
    18  H    0.153288
    19  H    0.153704
    20  H    0.157694
    21  C   -0.170668
    22  C   -0.218585
    23  C   -0.170591
    24  C    0.157658
    25  C   -0.170860
    26  C   -0.218535
    27  H    0.225900
    28  H    0.223727
    29  H    0.275791
    30  H    0.275666
    31  H    0.223744
    32  N    0.491580
    33  O   -0.462157
    34  O   -0.459734
 Sum of Mulliken charges =  -0.00000

 Dipole moment (field-independent basis, Debye):
    X=             -5.4695    Y=             -0.4943    Z=              1.0645  Tot=              5.5940
 Quadrupole moment (field-independent basis, Debye-Ang):
   XX=            -66.2451   YY=            -92.4595   ZZ=            -92.9148
   XY=              2.7168   XZ=             -3.3026   YZ=              2.9940

 Normal termination of Gaussian 16 at Thu May  6 09:05:04 2021.
