 Gaussian 16, Revision A.03,
 Gaussian 16:  EM64L-G16RevA.03 25-Dec-2016

 -------------
 #p 6-31g* mp2
 -------------

 ------------------------------------------------------
 Input file generated by CHIRIPA (05-May-2021 14:53:18)
 ------------------------------------------------------
 Symbolic Z-matrix:
 Charge =  0 Multiplicity = 1

                         Standard orientation:
 ---------------------------------------------------------------------
 Center     Atomic      Atomic             Coordinates (Angstroms)
 Number     Number       Type             X           Y           Z
 ---------------------------------------------------------------------
      1          6           0        2.503236    1.052114    0.281818
      2          6           0        2.367828    2.366233   -0.488079
      3          6           0        1.751426    3.483815    0.353855
      4          1           0        1.512308    0.740036    0.639050
      5          1           0        3.118993    1.220934    1.176098
      6          1           0        1.753657    2.194673   -1.381374
      7          1           0        3.359166    2.675120   -0.843683
      8          1           0        2.365724    3.683807    1.237734
      9          1           0        0.751092    3.200630    0.696988
     10          1           0        1.663891    4.414105   -0.216021
     11          6           0        3.117862   -0.074745   -0.546523
     12          6           0        3.253270   -1.388865    0.223373
     13          6           0        3.869672   -2.506446   -0.618561
     14          1           0        2.502104   -0.243565   -1.440804
     15          1           0        4.108790    0.237332   -0.903755
     16          1           0        2.261932   -1.697751    0.578978
     17          1           0        3.867441   -1.217304    1.116669
     18          1           0        4.870005   -2.223261   -0.961694
     19          1           0        3.255374   -2.706438   -1.502440
     20          1           0        3.957207   -3.436736   -0.048685
     21          6           0       -1.337211   -2.721323    0.497623
     22          6           0       -2.418984   -2.508428   -0.363169
     23          6           0       -2.903042   -1.216447   -0.589048
     24          6           0       -2.278740   -0.155607    0.065289
     25          6           0       -1.199157   -0.335435    0.928683
     26          6           0       -0.731817   -1.636060    1.139671
     27          1           0       -0.967678   -3.728322    0.667307
     28          1           0       -2.891096   -3.349367   -0.863146
     29          1           0       -3.738938   -1.023143   -1.250357
     30          1           0       -0.749128    0.522770    1.412809
     31          1           0        0.108467   -1.798411    1.808707
     32          7           0       -2.782342    1.216731   -0.165956
     33          8           0       -2.214943    2.134519    0.422568
     34          8           0       -3.734926    1.348597   -0.931353
 ---------------------------------------------------------------------

 SCF Done:  E(RHF) =  -669.534958150     A.U. after   15 cycles
 E2 =    -0.2094256361D+01 EUMP2 =    -0.67162921451164D+03

 The electronic state is 1-A.
 Alpha  occ. eigenvalues --  -20.60921 -20.60916 -15.85961 -11.31308 -11.27876
 Alpha  occ. eigenvalues --  -11.27863 -11.27609 -11.26881 -11.26862 -11.22111
 Alpha  occ. eigenvalues --  -11.21667 -11.21576 -11.21562 -11.21439 -11.20586
 Alpha  occ. eigenvalues --   -1.59984  -1.39539  -1.19487  -1.08879  -1.08645
 Alpha  occ. eigenvalues --   -1.04889  -1.03657  -0.96081  -0.95716  -0.87107
 Alpha  occ. eigenvalues --   -0.86280  -0.82554  -0.79765  -0.78502  -0.77568
 Alpha  occ. eigenvalues --   -0.72180  -0.71301  -0.70594  -0.65327  -0.65127
 Alpha  occ. eigenvalues --   -0.64910  -0.62216  -0.61035  -0.59515  -0.57697
 Alpha  occ. eigenvalues --   -0.55406  -0.55332  -0.53221  -0.53031  -0.52751
 Alpha  occ. eigenvalues --   -0.52480  -0.50029  -0.48939  -0.48923  -0.48045
 Alpha  occ. eigenvalues --   -0.46788  -0.45991  -0.45877  -0.44920  -0.43922
 Alpha  occ. eigenvalues --   -0.37450  -0.36422
 Alpha virt. eigenvalues --    0.04875   0.11008   0.16264   0.20217   0.23105
 Alpha virt. eigenvalues --    0.23477   0.25265   0.26746   0.27317   0.27971
 Alpha virt. eigenvalues --    0.29624   0.30780   0.31507   0.31610   0.32016

 Mulliken charges:
               1
     1  C   -0.302171
     2  C   -0.299294
     3  C   -0.483018
     4  H    0.143502
     5  H    0.148646
     6  H    0.154590
     7  H    0.150999
     8  H    0.150585
     9  H    0.170739
    10  H    0.163061
    11  C   -0.296970
    12  C   -0.303550
    13  C   -0.475649
    14  H    0.151743
    15  H    0.151788
    16  H    0.145362
    17  H    0.151870
    18  H    0.158203
    19  H    0.155918
    20  H    0.157404
    21  C   -0.171815
    22  C   -0.218392
    23  C   -0.170689
    24  C    0.156914
    25  C   -0.172247
    26  C   -0.217340
    27  H    0.226626
    28  H    0.224049
    29  H    0.275986
    30  H    0.278297
    31  H    0.226653
    32  N    0.489330
    33  O   -0.461998
    34  O   -0.459134
 Sum of Mulliken charges =  -0.00000

 Dipole moment (field-independent basis, Debye):
    X=              1.6481    Y=             -4.7623    Z=              0.7296  Tot=              5.0920
 Quadrupole moment (field-independent basis, Debye-Ang):
   XX=           -100.1919   YY=            -93.6026   ZZ=            -93.3954
   XY=             12.9969   XZ=              1.0439   YZ=              0.4533

 Normal termination of Gaussian 16 at Thu May  6 07:37:43 2021.
