 Gaussian 16, Revision A.03,
 Gaussian 16:  EM64L-G16RevA.03 25-Dec-2016

 -------------
 #p 6-31g* mp2
 -------------

 ------------------------------------------------------
 Input file generated by CHIRIPA (05-May-2021 14:57:25)
 ------------------------------------------------------
 Symbolic Z-matrix:
 Charge =  0 Multiplicity = 1

                         Standard orientation:
 ---------------------------------------------------------------------
 Center     Atomic      Atomic             Coordinates (Angstroms)
 Number     Number       Type             X           Y           Z
 ---------------------------------------------------------------------
      1          6           0        4.213446    2.607110    0.025131
      2          6           0        5.303948    1.743513   -0.121585
      3          6           0        5.113223    0.359037   -0.159002
      4          6           0        3.812575   -0.129763   -0.046404
      5          6           0        2.705770    0.704868    0.100785
      6          6           0        2.920117    2.085950    0.135653
      7          1           0        4.370781    3.681285    0.053208
      8          1           0        6.309481    2.145437   -0.207647
      9          1           0        5.939532   -0.332289   -0.271692
     10          1           0        1.715172    0.274541    0.184157
     11          1           0        2.071341    2.754245    0.249689
     12          7           0        3.598159   -1.593649   -0.084667
     13          8           0        2.442352   -1.999234    0.016574
     14          8           0        4.589966   -2.307739   -0.215174
     15          6           0       -1.577559   -1.090246    0.543561
     16          6           0       -2.020540   -0.993982   -0.779701
     17          6           0       -3.276657   -0.453411   -1.070391
     18          6           0       -4.067402   -0.016882   -0.008575
     19          6           0       -3.654168   -0.099384    1.320230
     20          6           0       -2.394347   -0.643427    1.587463
     21          1           0       -0.600337   -1.511523    0.760265
     22          1           0       -1.388341   -1.340188   -1.592421
     23          1           0       -3.644409   -0.367057   -2.085634
     24          1           0       -4.306829    0.254158    2.109191
     25          1           0       -2.052923   -0.716947    2.616087
     26          7           0       -5.399159    0.557235   -0.303898
     27          8           0       -6.076849    0.934705    0.649459
     28          8           0       -5.740082    0.618887   -1.483139
 ---------------------------------------------------------------------

 SCF Done:  E(RHF) =  -868.339827340     A.U. after   16 cycles
 E2 =    -0.2598933551D+01 EUMP2 =    -0.87093876089133D+03

 The electronic state is 1-A.
 Alpha  occ. eigenvalues --  -20.61781 -20.61715 -20.60684 -20.60679 -15.86792
 Alpha  occ. eigenvalues --  -15.85735 -11.31940 -11.31048 -11.28520 -11.28443
 Alpha  occ. eigenvalues --  -11.28142 -11.27611 -11.27585 -11.27434 -11.27410
 Alpha  occ. eigenvalues --  -11.27175 -11.26583 -11.26524  -1.60807  -1.59762
 Alpha  occ. eigenvalues --   -1.40375  -1.39316  -1.20082  -1.19197  -1.09508
 Alpha  occ. eigenvalues --   -1.08577  -1.05453  -1.04589  -0.96386  -0.95422
 Alpha  occ. eigenvalues --   -0.86861  -0.85969  -0.83232  -0.82259  -0.78315
 Alpha  occ. eigenvalues --   -0.77340  -0.73027  -0.72115  -0.71949  -0.71186
 Alpha  occ. eigenvalues --   -0.71087  -0.70200  -0.65737  -0.65445  -0.64827
 Alpha  occ. eigenvalues --   -0.64560  -0.62812  -0.61931  -0.55943  -0.54964
 Alpha  occ. eigenvalues --   -0.53791  -0.53539  -0.52927  -0.52654  -0.49784
 Alpha  occ. eigenvalues --   -0.49727  -0.48712  -0.48702  -0.45826  -0.44734
 Alpha  occ. eigenvalues --   -0.38036  -0.37158  -0.37047  -0.36215
 Alpha virt. eigenvalues --    0.04214   0.05151   0.10607   0.11434   0.15766
 Alpha virt. eigenvalues --    0.16548   0.20191   0.21857   0.25896   0.27119
 Alpha virt. eigenvalues --    0.27623   0.28978   0.30524   0.31111   0.32683

 Mulliken charges:
               1
     1  C   -0.169920
     2  C   -0.218301
     3  C   -0.170296
     4  C    0.158531
     5  C   -0.172060
     6  C   -0.219207
     7  H    0.228651
     8  H    0.226068
     9  H    0.277015
    10  H    0.269816
    11  H    0.226809
    12  N    0.492139
    13  O   -0.474664
    14  O   -0.454406
    15  C   -0.186067
    16  C   -0.222512
    17  C   -0.171990
    18  C    0.157964
    19  C   -0.171877
    20  C   -0.220555
    21  H    0.246995
    22  H    0.228933
    23  H    0.274979
    24  H    0.274460
    25  H    0.223545
    26  N    0.488060
    27  O   -0.461259
    28  O   -0.460851
 Sum of Mulliken charges =  -0.00000

 Dipole moment (field-independent basis, Debye):
    X=              5.7998    Y=              3.1712    Z=              1.1471  Tot=              6.7089
 Quadrupole moment (field-independent basis, Debye-Ang):
   XX=           -132.1850   YY=           -106.8093   ZZ=           -100.9147
   XY=             27.4756   XZ=             -5.3062   YZ=              0.6621

 Normal termination of Gaussian 16 at Thu May  6 19:41:57 2021.
