 Gaussian 16, Revision A.03,
 Gaussian 16:  EM64L-G16RevA.03 25-Dec-2016

 -------------
 #p 6-31g* mp2
 -------------

 ------------------------------------------------------
 Input file generated by CHIRIPA (05-May-2021 14:57:26)
 ------------------------------------------------------
 Symbolic Z-matrix:
 Charge =  0 Multiplicity = 1

                         Standard orientation:
 ---------------------------------------------------------------------
 Center     Atomic      Atomic             Coordinates (Angstroms)
 Number     Number       Type             X           Y           Z
 ---------------------------------------------------------------------
      1          6           0        2.178737   -0.100561    1.681836
      2          6           0        1.982516    0.249230    0.341812
      3          6           0        3.058023    0.270938   -0.551139
      4          6           0        4.321923   -0.064277   -0.067943
      5          6           0        4.549472   -0.417037    1.261370
      6          6           0        3.459331   -0.431994    2.136537
      7          1           0        1.337573   -0.114802    2.368594
      8          1           0        0.989099    0.507088   -0.014104
      9          1           0        2.934395    0.537981   -1.593646
     10          1           0        5.551442   -0.669210    1.586766
     11          1           0        3.614682   -0.704040    3.176682
     12          7           0        5.468260   -0.044870   -1.003856
     13          8           0        6.571894   -0.344308   -0.553339
     14          8           0        5.241420    0.269413   -2.170221
     15          6           0       -3.195785    2.388961    0.227173
     16          6           0       -4.538703    2.217839   -0.124694
     17          6           0       -5.068726    0.936224   -0.301013
     18          6           0       -4.223598   -0.156957   -0.116614
     19          6           0       -2.881465   -0.019044    0.234026
     20          6           0       -2.372903    1.271943    0.405097
     21          1           0       -2.792386    3.388191    0.362103
     22          1           0       -5.180101    3.083504   -0.263531
     23          1           0       -6.104705    0.774999   -0.573357
     24          1           0       -2.266715   -0.901212    0.365478
     25          1           0       -1.329592    1.401826    0.678367
     26          7           0       -4.773350   -1.518706   -0.300496
     27          8           0       -4.008000   -2.465565   -0.132173
     28          8           0       -5.959188   -1.613400   -0.609465
 ---------------------------------------------------------------------

 SCF Done:  E(RHF) =  -868.336611644     A.U. after   16 cycles
 E2 =    -0.2599563246D+01 EUMP2 =    -0.87093617489037D+03

 The electronic state is 1-A.
 Alpha  occ. eigenvalues --  -20.61344 -20.61334 -20.61123 -20.61117 -15.86404
 Alpha  occ. eigenvalues --  -15.86183 -11.31902 -11.31666 -11.28579 -11.28462
 Alpha  occ. eigenvalues --  -11.28295 -11.28274 -11.28235 -11.28094 -11.27672
 Alpha  occ. eigenvalues --  -11.27469 -11.27425 -11.27269  -1.60415  -1.60196
 Alpha  occ. eigenvalues --   -1.39966  -1.39746  -1.20104  -1.19871  -1.09466
 Alpha  occ. eigenvalues --   -1.09257  -1.05551  -1.05297  -0.96275  -0.96063
 Alpha  occ. eigenvalues --   -0.86941  -0.86702  -0.83126  -0.82892  -0.78161
 Alpha  occ. eigenvalues --   -0.77902  -0.72618  -0.72400  -0.71742  -0.71520
 Alpha  occ. eigenvalues --   -0.71195  -0.71001  -0.65768  -0.65703  -0.65529
 Alpha  occ. eigenvalues --   -0.65245  -0.62958  -0.62578  -0.56016  -0.55832
 Alpha  occ. eigenvalues --   -0.53847  -0.53728  -0.53607  -0.53332  -0.49389
 Alpha  occ. eigenvalues --   -0.49365  -0.49169  -0.49145  -0.45342  -0.45125
 Alpha  occ. eigenvalues --   -0.38070  -0.37874  -0.37155  -0.36894
 Alpha virt. eigenvalues --    0.04412   0.04642   0.10482   0.10723   0.15803
 Alpha virt. eigenvalues --    0.16091   0.17722   0.21996   0.24643   0.27467
 Alpha virt. eigenvalues --    0.27591   0.28808   0.29924   0.31195   0.31718

 Mulliken charges:
               1
     1  C   -0.171044
     2  C   -0.223157
     3  C   -0.169732
     4  C    0.159220
     5  C   -0.169801
     6  C   -0.218044
     7  H    0.222792
     8  H    0.218304
     9  H    0.277577
    10  H    0.277733
    11  H    0.225786
    12  N    0.487949
    13  O   -0.458768
    14  O   -0.459259
    15  C   -0.170003
    16  C   -0.218295
    17  C   -0.169230
    18  C    0.159105
    19  C   -0.171343
    20  C   -0.223231
    21  H    0.228117
    22  H    0.226493
    23  H    0.278346
    24  H    0.273541
    25  H    0.216630
    26  N    0.488111
    27  O   -0.459888
    28  O   -0.457908
 Sum of Mulliken charges =  -0.00000

 Dipole moment (field-independent basis, Debye):
    X=             -2.1551    Y=              4.7225    Z=              3.9135  Tot=              6.5009
 Quadrupole moment (field-independent basis, Debye-Ang):
   XX=           -148.5179   YY=           -106.2552   ZZ=           -103.4270
   XY=            -24.1195   XZ=             15.5885   YZ=             -2.6771

 Normal termination of Gaussian 16 at Fri May  7 09:42:30 2021.
