 Gaussian 16, Revision A.03,
 Gaussian 16:  EM64L-G16RevA.03 25-Dec-2016

 -------------
 #p 6-31g* mp2
 -------------

 ------------------------------------------------------
 Input file generated by CHIRIPA (05-May-2021 14:55:21)
 ------------------------------------------------------
 Symbolic Z-matrix:
 Charge =  0 Multiplicity = 1

                         Standard orientation:
 ---------------------------------------------------------------------
 Center     Atomic      Atomic             Coordinates (Angstroms)
 Number     Number       Type             X           Y           Z
 ---------------------------------------------------------------------
      1          6           0       -3.705095    2.530997   -0.056142
      2          6           0       -3.780518    1.708933   -1.185320
      3          6           0       -3.328392    0.387056   -1.132685
      4          6           0       -2.804272   -0.082179    0.070813
      5          6           0       -2.715750    0.712203    1.212920
      6          6           0       -3.173888    2.030890    1.137270
      7          1           0       -4.058652    3.556624   -0.105970
      8          1           0       -4.192586    2.094637   -2.113479
      9          1           0       -3.374980   -0.271118   -1.991786
     10          1           0       -2.299977    0.299419    2.124051
     11          1           0       -3.114076    2.667035    2.015785
     12          7           0       -2.322444   -1.479902    0.138717
     13          8           0       -1.864918   -1.869410    1.210907
     14          8           0       -2.411436   -2.159464   -0.881534
     15          6           0        4.269263    0.186504    0.251810
     16          6           0        4.722408    1.412878   -0.541065
     17          6           0        5.879714    2.154936    0.128106
     18          1           0        3.970596    0.500318    1.261396
     19          1           0        5.121044   -0.496470    0.375956
     20          1           0        3.869681    2.092691   -0.664869
     21          1           0        5.019851    1.096134   -1.548942
     22          1           0        6.747576    1.496562    0.237479
     23          1           0        5.590872    2.498782    1.126575
     24          1           0        6.187687    3.028105   -0.455492
     25          6           0        3.112965   -0.565852   -0.404440
     26          6           0        2.659820   -1.792226    0.388435
     27          6           0        1.502515   -2.534283   -0.280735
     28          1           0        2.261184    0.117122   -0.528586
     29          1           0        3.411633   -0.879667   -1.414026
     30          1           0        2.362378   -1.475482    1.396312
     31          1           0        3.512547   -2.472039    0.512239
     32          1           0        1.791357   -2.878129   -1.279205
     33          1           0        0.634653   -1.875910   -0.390109
     34          1           0        1.194542   -3.407453    0.302863
 ---------------------------------------------------------------------

 SCF Done:  E(RHF) =  -669.535533385     A.U. after   15 cycles
 E2 =    -0.2091405070D+01 EUMP2 =    -0.67162693845488D+03

 The electronic state is 1-A.
 Alpha  occ. eigenvalues --  -20.60867 -20.60861 -15.85891 -11.31265 -11.27835
 Alpha  occ. eigenvalues --  -11.27829 -11.27576 -11.26847 -11.26837 -11.21355
 Alpha  occ. eigenvalues --  -11.20999 -11.20898 -11.20831 -11.20728 -11.19787
 Alpha  occ. eigenvalues --   -1.59933  -1.39484  -1.19438  -1.08834  -1.07923
 Alpha  occ. eigenvalues --   -1.04839  -1.02924  -0.95670  -0.95345  -0.86358
 Alpha  occ. eigenvalues --   -0.86236  -0.82500  -0.79018  -0.77709  -0.77548
 Alpha  occ. eigenvalues --   -0.72114  -0.71279  -0.70544  -0.65090  -0.64840
 Alpha  occ. eigenvalues --   -0.64564  -0.62185  -0.60325  -0.58773  -0.56948
 Alpha  occ. eigenvalues --   -0.55342  -0.54645  -0.53170  -0.52929  -0.51997
 Alpha  occ. eigenvalues --   -0.51775  -0.49369  -0.48875  -0.48813  -0.47311
 Alpha  occ. eigenvalues --   -0.46075  -0.45239  -0.45169  -0.44869  -0.43172
 Alpha  occ. eigenvalues --   -0.37419  -0.36442
 Alpha virt. eigenvalues --    0.04961   0.11212   0.16444   0.21349   0.23304
 Alpha virt. eigenvalues --    0.24927   0.27074   0.27267   0.27932   0.28183
 Alpha virt. eigenvalues --    0.28674   0.30856   0.31946   0.32229   0.32483

 Mulliken charges:
               1
     1  C   -0.170664
     2  C   -0.218569
     3  C   -0.170868
     4  C    0.157746
     5  C   -0.171165
     6  C   -0.218610
     7  H    0.225922
     8  H    0.223815
     9  H    0.276050
    10  H    0.275706
    11  H    0.223700
    12  N    0.486002
    13  O   -0.458349
    14  O   -0.458332
    15  C   -0.297472
    16  C   -0.298895
    17  C   -0.475266
    18  H    0.148009
    19  H    0.149418
    20  H    0.149570
    21  H    0.151737
    22  H    0.155449
    23  H    0.154038
    24  H    0.158638
    25  C   -0.297030
    26  C   -0.301434
    27  C   -0.468153
    28  H    0.145703
    29  H    0.148726
    30  H    0.151608
    31  H    0.148742
    32  H    0.149517
    33  H    0.155862
    34  H    0.168848
 Sum of Mulliken charges =  -0.00000

 Dipole moment (field-independent basis, Debye):
    X=             -1.9004    Y=              4.8224    Z=             -0.2162  Tot=              5.1879
 Quadrupole moment (field-independent basis, Debye-Ang):
   XX=            -86.5527   YY=            -95.9429   ZZ=            -90.1529
   XY=            -14.8181   XZ=              1.4088   YZ=              1.1245

 Normal termination of Gaussian 16 at Wed May  5 23:51:02 2021.
