 Gaussian 16, Revision A.03,
 Gaussian 16:  EM64L-G16RevA.03 25-Dec-2016

 -------------
 #p 6-31g* mp2
 -------------

 ------------------------------------------------------
 Input file generated by CHIRIPA (05-May-2021 14:53:16)
 ------------------------------------------------------
 Symbolic Z-matrix:
 Charge =  0 Multiplicity = 1

                         Standard orientation:
 ---------------------------------------------------------------------
 Center     Atomic      Atomic             Coordinates (Angstroms)
 Number     Number       Type             X           Y           Z
 ---------------------------------------------------------------------
      1          6           0        2.613543    1.116528   -0.210513
      2          6           0        1.654111    2.050026   -0.949471
      3          6           0        1.735250    3.494137   -0.453735
      4          1           0        2.391600    1.149539    0.864939
      5          1           0        3.640529    1.488797   -0.329299
      6          1           0        0.629384    1.675337   -0.830485
      7          1           0        1.878239    2.014644   -2.023311
      8          1           0        2.746709    3.891151   -0.587639
      9          1           0        1.490759    3.549916    0.611964
     10          1           0        1.041155    4.144181   -0.995523
     11          6           0        2.544067   -0.330629   -0.694906
     12          6           0        3.503498   -1.264127    0.044052
     13          6           0        3.422360   -2.708238   -0.451684
     14          1           0        1.517081   -0.702899   -0.576120
     15          1           0        2.766010   -0.363640   -1.770357
     16          1           0        3.279371   -1.228745    1.117892
     17          1           0        4.528226   -0.889438   -0.074934
     18          1           0        3.666851   -2.764018   -1.517383
     19          1           0        2.410901   -3.105252   -0.317780
     20          1           0        4.116455   -3.358282    0.090104
     21          6           0       -3.683088   -0.425192   -1.535343
     22          6           0       -2.750885   -1.453083   -1.359397
     23          6           0       -1.821801   -1.398102   -0.316167
     24          6           0       -1.853396   -0.295565    0.536303
     25          6           0       -2.769751    0.744290    0.387015
     26          6           0       -3.689535    0.668287   -0.663114
     27          1           0       -4.401210   -0.476069   -2.348428
     28          1           0       -2.743550   -2.303503   -2.035250
     29          1           0       -1.089159   -2.179971   -0.157002
     30          1           0       -2.752530    1.579285    1.076873
     31          1           0       -4.412347    1.468016   -0.797351
     32          7           0       -0.874740   -0.226230    1.644375
     33          8           0       -0.923289    0.755865    2.381782
     34          8           0       -0.077652   -1.155294    1.754495
 ---------------------------------------------------------------------

 SCF Done:  E(RHF) =  -669.536578316     A.U. after   15 cycles
 E2 =    -0.2093705702D+01 EUMP2 =    -0.67163028401815D+03

 The electronic state is 1-A.
 Alpha  occ. eigenvalues --  -20.61069 -20.61062 -15.86076 -11.31366 -11.27911
 Alpha  occ. eigenvalues --  -11.27908 -11.27629 -11.26903 -11.26892 -11.21113
 Alpha  occ. eigenvalues --  -11.20708 -11.20612 -11.20569 -11.20553 -11.20432
 Alpha  occ. eigenvalues --   -1.60116  -1.39673  -1.19520  -1.08930  -1.07696
 Alpha  occ. eigenvalues --   -1.04903  -1.02860  -0.95779  -0.95323  -0.86350
 Alpha  occ. eigenvalues --   -0.86306  -0.82612  -0.78938  -0.77706  -0.77483
 Alpha  occ. eigenvalues --   -0.72303  -0.71452  -0.70620  -0.65178  -0.64904
 Alpha  occ. eigenvalues --   -0.64265  -0.62252  -0.60242  -0.58705  -0.56945
 Alpha  occ. eigenvalues --   -0.55407  -0.54598  -0.53239  -0.52993  -0.52057
 Alpha  occ. eigenvalues --   -0.51766  -0.49289  -0.49062  -0.49056  -0.47274
 Alpha  occ. eigenvalues --   -0.45960  -0.45367  -0.44980  -0.44651  -0.43101
 Alpha  occ. eigenvalues --   -0.37473  -0.36490
 Alpha virt. eigenvalues --    0.04817   0.11061   0.16286   0.20955   0.23182
 Alpha virt. eigenvalues --    0.24472   0.26217   0.27399   0.28091   0.28170
 Alpha virt. eigenvalues --    0.28865   0.30681   0.31372   0.32371   0.32459

 Mulliken charges:
               1
     1  C   -0.303848
     2  C   -0.298116
     3  C   -0.476785
     4  H    0.163792
     5  H    0.146866
     6  H    0.144947
     7  H    0.148243
     8  H    0.154171
     9  H    0.162318
    10  H    0.154952
    11  C   -0.298042
    12  C   -0.299993
    13  C   -0.475175
    14  H    0.149959
    15  H    0.142042
    16  H    0.166633
    17  H    0.147412
    18  H    0.149562
    19  H    0.153847
    20  H    0.159214
    21  C   -0.170231
    22  C   -0.218439
    23  C   -0.171740
    24  C    0.159361
    25  C   -0.171335
    26  C   -0.218165
    27  H    0.226403
    28  H    0.224510
    29  H    0.276242
    30  H    0.276264
    31  H    0.224245
    32  N    0.489363
    33  O   -0.458796
    34  O   -0.459682
 Sum of Mulliken charges =  -0.00000

 Dipole moment (field-independent basis, Debye):
    X=             -3.6213    Y=             -0.2676    Z=             -3.6537  Tot=              5.1512
 Quadrupole moment (field-independent basis, Debye-Ang):
   XX=            -81.3070   YY=            -92.4578   ZZ=            -98.8587
   XY=             -0.1726   XZ=              5.1644   YZ=              2.2313

 Normal termination of Gaussian 16 at Thu May  6 18:52:10 2021.
