 Gaussian 16, Revision A.03,
 Gaussian 16:  EM64L-G16RevA.03 25-Dec-2016

 -------------
 #p 6-31g* mp2
 -------------

 ------------------------------------------------------
 Input file generated by CHIRIPA (05-May-2021 14:55:21)
 ------------------------------------------------------
 Symbolic Z-matrix:
 Charge =  0 Multiplicity = 1

                         Standard orientation:
 ---------------------------------------------------------------------
 Center     Atomic      Atomic             Coordinates (Angstroms)
 Number     Number       Type             X           Y           Z
 ---------------------------------------------------------------------
      1          6           0       -0.404222   -1.425573    2.009641
      2          6           0       -1.092964   -0.223140    2.200191
      3          6           0       -1.953494    0.266326    1.213044
      4          6           0       -2.102349   -0.475665    0.042326
      5          6           0       -1.430064   -1.676990   -0.177085
      6          6           0       -0.574669   -2.147388    0.823702
      7          1           0        0.262264   -1.798396    2.781779
      8          1           0       -0.962531    0.339543    3.120203
      9          1           0       -2.498983    1.194288    1.334478
     10          1           0       -1.580518   -2.215651   -1.104784
     11          1           0       -0.041071   -3.081520    0.672984
     12          7           0       -3.010635    0.032417   -1.009943
     13          8           0       -3.124525   -0.640062   -2.032410
     14          8           0       -3.591461    1.093510   -0.792319
     15          6           0        2.491526    1.472969   -0.174069
     16          6           0        1.089207    2.040198    0.048955
     17          6           0        1.089874    3.555689    0.251638
     18          1           0        3.124817    1.728982    0.686363
     19          1           0        2.941798    1.960742   -1.049700
     20          1           0        0.641182    1.550506    0.923078
     21          1           0        0.459128    1.782639   -0.812022
     22          1           0        1.512416    4.061114   -0.622779
     23          1           0        1.695505    3.827661    1.122179
     24          1           0        0.077333    3.940087    0.409305
     25          6           0        2.507264   -0.040896   -0.378256
     26          6           0        3.909582   -0.608125   -0.601281
     27          6           0        3.908916   -2.123617   -0.803964
     28          1           0        2.056991   -0.528669    0.497373
     29          1           0        1.873973   -0.296910   -1.238689
     30          1           0        4.539661   -0.350566    0.259696
     31          1           0        4.357608   -0.118433   -1.475404
     32          1           0        3.303285   -2.395589   -1.674506
     33          1           0        3.486373   -2.629041    0.070452
     34          1           0        4.921457   -2.508014   -0.961631
 ---------------------------------------------------------------------

 SCF Done:  E(RHF) =  -669.533463846     A.U. after   15 cycles
 E2 =    -0.2095959643D+01 EUMP2 =    -0.67162942348970D+03

 The electronic state is 1-A.
 Alpha  occ. eigenvalues --  -20.60832 -20.60827 -15.85885 -11.31261 -11.27830
 Alpha  occ. eigenvalues --  -11.27822 -11.27576 -11.26850 -11.26829 -11.21908
 Alpha  occ. eigenvalues --  -11.21564 -11.21552 -11.21519 -11.21465 -11.21112
 Alpha  occ. eigenvalues --   -1.59907  -1.39460  -1.19452  -1.08858  -1.08594
 Alpha  occ. eigenvalues --   -1.04867  -1.03728  -0.96199  -0.95673  -0.87216
 Alpha  occ. eigenvalues --   -0.86253  -0.82506  -0.79804  -0.78431  -0.77540
 Alpha  occ. eigenvalues --   -0.72104  -0.71229  -0.70560  -0.65286  -0.65089
 Alpha  occ. eigenvalues --   -0.64850  -0.62199  -0.61152  -0.59581  -0.57812
 Alpha  occ. eigenvalues --   -0.55509  -0.55358  -0.53421  -0.52943  -0.52780
 Alpha  occ. eigenvalues --   -0.52634  -0.50162  -0.48864  -0.48857  -0.48150
 Alpha  occ. eigenvalues --   -0.46858  -0.45928  -0.45779  -0.44859  -0.43959
 Alpha  occ. eigenvalues --   -0.37346  -0.36302
 Alpha virt. eigenvalues --    0.04950   0.11074   0.16352   0.20781   0.22997
 Alpha virt. eigenvalues --    0.23683   0.26399   0.27058   0.27334   0.27735
 Alpha virt. eigenvalues --    0.28448   0.30519   0.31088   0.31492   0.32191

 Mulliken charges:
               1
     1  C   -0.171330
     2  C   -0.221892
     3  C   -0.166534
     4  C    0.161443
     5  C   -0.171124
     6  C   -0.214072
     7  H    0.225898
     8  H    0.224179
     9  H    0.276018
    10  H    0.275901
    11  H    0.224869
    12  N    0.487495
    13  O   -0.460394
    14  O   -0.460185
    15  C   -0.297945
    16  C   -0.305803
    17  C   -0.475869
    18  H    0.146256
    19  H    0.150619
    20  H    0.155486
    21  H    0.153480
    22  H    0.157351
    23  H    0.151673
    24  H    0.160585
    25  C   -0.300749
    26  C   -0.299520
    27  C   -0.474578
    28  H    0.148886
    29  H    0.150309
    30  H    0.150562
    31  H    0.154194
    32  H    0.155654
    33  H    0.146984
    34  H    0.162155
 Sum of Mulliken charges =  -0.00000

 Dipole moment (field-independent basis, Debye):
    X=              3.0677    Y=             -1.8228    Z=              3.6855  Tot=              5.1300
 Quadrupole moment (field-independent basis, Debye-Ang):
   XX=           -109.0675   YY=            -91.5198   ZZ=            -92.2288
   XY=              1.4248   XZ=             -8.4379   YZ=              0.3216

 Normal termination of Gaussian 16 at Thu May  6 01:26:12 2021.
