 Gaussian 16, Revision A.03,
 Gaussian 16:  EM64L-G16RevA.03 25-Dec-2016

 -------------
 #p 6-31g* mp2
 -------------

 ------------------------------------------------------
 Input file generated by CHIRIPA (05-May-2021 14:57:23)
 ------------------------------------------------------
 Symbolic Z-matrix:
 Charge =  0 Multiplicity = 1

                         Standard orientation:
 ---------------------------------------------------------------------
 Center     Atomic      Atomic             Coordinates (Angstroms)
 Number     Number       Type             X           Y           Z
 ---------------------------------------------------------------------
      1          6           0        0.769135   -0.294559   -0.821245
      2          6           0        1.437593    0.920646   -1.002800
      3          6           0        2.770623    1.063843   -0.606472
      4          6           0        3.407522   -0.033675   -0.029320
      5          6           0        2.768613   -1.257345    0.164891
      6          6           0        1.435604   -1.377766   -0.239005
      7          1           0       -0.266386   -0.396951   -1.132062
      8          1           0        0.922514    1.763571   -1.454702
      9          1           0        3.312026    1.993204   -0.735269
     10          1           0        3.308500   -2.079788    0.618243
     11          1           0        0.918976   -2.322706   -0.096775
     12          7           0        4.818730    0.105865    0.394261
     13          8           0        5.357525   -0.876099    0.900307
     14          8           0        5.359318    1.194559    0.212198
     15          6           0       -3.147106    2.564453    0.375154
     16          6           0       -2.860407    1.993983   -0.869389
     17          6           0       -2.872911    0.605702   -1.033903
     18          6           0       -3.177628   -0.185770    0.072446
     19          6           0       -3.467587    0.352646    1.325173
     20          6           0       -3.449248    1.743411    1.466539
     21          1           0       -3.135126    3.643868    0.493962
     22          1           0       -2.625418    2.629159   -1.718729
     23          1           0       -2.654764    0.137630   -1.986132
     24          1           0       -3.698243   -0.306407    2.153342
     25          1           0       -3.672300    2.183675    2.434248
     26          7           0       -3.193955   -1.656796   -0.089464
     27          8           0       -3.465444   -2.332236    0.900845
     28          8           0       -2.934953   -2.106493   -1.203613
 ---------------------------------------------------------------------

 SCF Done:  E(RHF) =  -868.337723788     A.U. after   16 cycles
 E2 =    -0.2601671409D+01 EUMP2 =    -0.87093939519766D+03

 The electronic state is 1-A.
 Alpha  occ. eigenvalues --  -20.62026 -20.61999 -20.60657 -20.60645 -15.87038
 Alpha  occ. eigenvalues --  -15.85706 -11.32357 -11.31020 -11.28966 -11.28838
 Alpha  occ. eigenvalues --  -11.28568 -11.27942 -11.27810 -11.27635 -11.27539
 Alpha  occ. eigenvalues --  -11.27221 -11.26654 -11.26465  -1.61083  -1.59731
 Alpha  occ. eigenvalues --   -1.40637  -1.39286  -1.20521  -1.19183  -1.09904
 Alpha  occ. eigenvalues --   -1.08579  -1.05911  -1.04581  -0.96752  -0.95427
 Alpha  occ. eigenvalues --   -0.87308  -0.85973  -0.83575  -0.82267  -0.78654
 Alpha  occ. eigenvalues --   -0.77324  -0.73243  -0.72453  -0.71924  -0.71615
 Alpha  occ. eigenvalues --   -0.71055  -0.70256  -0.66154  -0.65877  -0.64829
 Alpha  occ. eigenvalues --   -0.64584  -0.63247  -0.61930  -0.56367  -0.55277
 Alpha  occ. eigenvalues --   -0.54069  -0.53922  -0.52902  -0.52662  -0.50027
 Alpha  occ. eigenvalues --   -0.49996  -0.48683  -0.48678  -0.46029  -0.44703
 Alpha  occ. eigenvalues --   -0.38459  -0.37549  -0.37078  -0.36191
 Alpha virt. eigenvalues --    0.03831   0.05205   0.09994   0.11463   0.15353
 Alpha virt. eigenvalues --    0.16711   0.20001   0.21934   0.25976   0.26748
 Alpha virt. eigenvalues --    0.27562   0.28867   0.29837   0.30924   0.32467

 Mulliken charges:
               1
     1  C   -0.173389
     2  C   -0.220838
     3  C   -0.171591
     4  C    0.157876
     5  C   -0.170955
     6  C   -0.222585
     7  H    0.231526
     8  H    0.215222
     9  H    0.273229
    10  H    0.276260
    11  H    0.232828
    12  N    0.488048
    13  O   -0.459938
    14  O   -0.462247
    15  C   -0.169417
    16  C   -0.219064
    17  C   -0.189234
    18  C    0.162660
    19  C   -0.168760
    20  C   -0.216492
    21  H    0.230173
    22  H    0.225065
    23  H    0.274760
    24  H    0.279207
    25  H    0.228730
    26  N    0.486813
    27  O   -0.453863
    28  O   -0.464023
 Sum of Mulliken charges =  -0.00000

 Dipole moment (field-independent basis, Debye):
    X=             -5.2700    Y=              4.6701    Z=             -0.6652  Tot=              7.0729
 Quadrupole moment (field-independent basis, Debye-Ang):
   XX=           -139.6974   YY=           -102.2637   ZZ=           -100.1872
   XY=            -18.5721   XZ=             -8.7366   YZ=             -1.8223

 Normal termination of Gaussian 16 at Thu May  6 00:13:55 2021.
