 Gaussian 16, Revision A.03,
 Gaussian 16:  EM64L-G16RevA.03 25-Dec-2016

 -------------
 #p 6-31g* mp2
 -------------

 ------------------------------------------------------
 Input file generated by CHIRIPA (05-May-2021 14:51:10)
 ------------------------------------------------------
 Symbolic Z-matrix:
 Charge =  0 Multiplicity = 1

                         Standard orientation:
 ---------------------------------------------------------------------
 Center     Atomic      Atomic             Coordinates (Angstroms)
 Number     Number       Type             X           Y           Z
 ---------------------------------------------------------------------
      1          6           0        3.558423    0.913833    0.405599
      2          6           0        2.081683    0.880033    0.010528
      3          6           0        1.222717    1.823925    0.852572
      4          1           0        3.653455    0.649157    1.467607
      5          1           0        3.934360    1.941397    0.304710
      6          1           0        1.709006   -0.147426    0.110809
      7          1           0        1.990174    1.144633   -1.050711
      8          1           0        1.567081    2.857551    0.744722
      9          1           0        1.284316    1.558151    1.912841
     10          1           0        0.170714    1.783848    0.553333
     11          6           0        4.429979   -0.024520   -0.427235
     12          6           0        5.906719    0.009280   -0.032164
     13          6           0        6.765685   -0.934613   -0.874208
     14          1           0        4.054043   -1.052084   -0.326345
     15          1           0        4.334947    0.240156   -1.489243
     16          1           0        5.998229   -0.255321    1.029076
     17          1           0        6.279397    1.036738   -0.132444
     18          1           0        6.704087   -0.668839   -1.934477
     19          1           0        6.421321   -1.968239   -0.766357
     20          1           0        7.817688   -0.894535   -0.574969
     21          6           0       -4.687907   -0.191774    0.206405
     22          6           0       -5.490978    0.351292   -0.976025
     23          6           0       -6.876550    0.853442   -0.568801
     24          1           0       -5.250744   -1.007904    0.679789
     25          1           0       -4.584873    0.597381    0.964042
     26          1           0       -5.591283   -0.438225   -1.731814
     27          1           0       -4.926078    1.166097   -1.446766
     28          1           0       -6.793201    1.658836    0.168081
     29          1           0       -7.462186    0.045398   -0.118586
     30          1           0       -7.433392    1.237220   -1.429325
     31          6           0       -3.300495   -0.697539   -0.184770
     32          6           0       -2.497425   -1.240605    0.997661
     33          6           0       -1.111853   -1.742755    0.590437
     34          1           0       -3.403529   -1.486693   -0.942407
     35          1           0       -2.737659    0.118592   -0.658154
     36          1           0       -3.062325   -2.055410    1.468402
     37          1           0       -2.397120   -0.451087    1.753449
     38          1           0       -0.526217   -0.934709    0.140221
     39          1           0       -1.195200   -2.548148   -0.146446
     40          1           0       -0.555010   -2.126533    1.450961
 ---------------------------------------------------------------------

 SCF Done:  E(RHF) =  -470.733121653     A.U. after   11 cycles
 E2 =    -0.1582822323D+01 EUMP2 =    -0.47231594397560D+03

 The electronic state is 1-A.
 Alpha  occ. eigenvalues --  -11.21600 -11.21592 -11.21590 -11.21573 -11.21407
 Alpha  occ. eigenvalues --  -11.21392 -11.21347 -11.21333 -11.21107 -11.21068
 Alpha  occ. eigenvalues --  -11.21060 -11.21032  -1.08438  -1.08412  -1.03564
 Alpha  occ. eigenvalues --   -1.03491  -0.96021  -0.95938  -0.86998  -0.86994
 Alpha  occ. eigenvalues --   -0.79660  -0.79528  -0.78269  -0.78206  -0.65120
 Alpha  occ. eigenvalues --   -0.65004  -0.61103  -0.60790  -0.59370  -0.59324
 Alpha  occ. eigenvalues --   -0.57683  -0.57510  -0.55383  -0.55124  -0.52682
 Alpha  occ. eigenvalues --   -0.52671  -0.52421  -0.52382  -0.49991  -0.49859
 Alpha  occ. eigenvalues --   -0.47985  -0.47842  -0.46779  -0.46461  -0.45842
 Alpha  occ. eigenvalues --   -0.45752  -0.45726  -0.45558  -0.43796  -0.43767
 Alpha virt. eigenvalues --    0.20993   0.23023   0.23563   0.25209   0.26223
 Alpha virt. eigenvalues --    0.26383   0.27070   0.27511   0.27948   0.29038
 Alpha virt. eigenvalues --    0.30608   0.30882   0.31544   0.31818   0.32279

 Mulliken charges:
               1
     1  C   -0.297708
     2  C   -0.305586
     3  C   -0.476628
     4  H    0.149637
     5  H    0.149295
     6  H    0.158113
     7  H    0.151508
     8  H    0.155533
     9  H    0.155713
    10  H    0.159544
    11  C   -0.298485
    12  C   -0.299647
    13  C   -0.475713
    14  H    0.150000
    15  H    0.149602
    16  H    0.151919
    17  H    0.151856
    18  H    0.155158
    19  H    0.155261
    20  H    0.160197
    21  C   -0.298321
    22  C   -0.299657
    23  C   -0.475716
    24  H    0.149708
    25  H    0.149639
    26  H    0.151924
    27  H    0.151925
    28  H    0.155237
    29  H    0.155174
    30  H    0.160251
    31  C   -0.298718
    32  C   -0.299516
    33  C   -0.483186
    34  H    0.149648
    35  H    0.149346
    36  H    0.151802
    37  H    0.152369
    38  H    0.164272
    39  H    0.154929
    40  H    0.159321
 Sum of Mulliken charges =  -0.00000

 Dipole moment (field-independent basis, Debye):
    X=              0.0076    Y=             -0.0062    Z=             -0.0005  Tot=              0.0098
 Quadrupole moment (field-independent basis, Debye-Ang):
   XX=            -86.2812   YY=            -83.9455   ZZ=            -84.6050
   XY=              1.3469   XZ=              0.5007   YZ=             -0.7321

 Normal termination of Gaussian 16 at Thu May  6 02:12:11 2021.
