 Gaussian 16, Revision A.03,
 Gaussian 16:  EM64L-G16RevA.03 25-Dec-2016

 -------------
 #p 6-31g* mp2
 -------------

 ------------------------------------------------------
 Input file generated by CHIRIPA (05-May-2021 14:51:09)
 ------------------------------------------------------
 Symbolic Z-matrix:
 Charge =  0 Multiplicity = 1

                         Standard orientation:
 ---------------------------------------------------------------------
 Center     Atomic      Atomic             Coordinates (Angstroms)
 Number     Number       Type             X           Y           Z
 ---------------------------------------------------------------------
      1          6           0       -3.055133   -0.101769   -0.080994
      2          6           0       -2.348861    1.118244   -0.673220
      3          6           0       -0.825810    1.024129   -0.577027
      4          1           0       -2.758995   -0.214160    0.970964
      5          1           0       -2.709091   -1.005555   -0.601400
      6          1           0       -2.697164    2.019603   -0.152785
      7          1           0       -2.646864    1.227855   -1.723837
      8          1           0       -0.459790    0.141934   -1.112154
      9          1           0       -0.510375    0.938180    0.467825
     10          1           0       -0.341142    1.906590   -1.006235
     11          6           0       -4.578143   -0.022436   -0.169737
     12          6           0       -5.284415   -1.242449    0.422489
     13          6           0       -6.807466   -1.148334    0.326296
     14          1           0       -4.924185    0.881350    0.350668
     15          1           0       -4.874282    0.089955   -1.221695
     16          1           0       -4.986412   -1.352060    1.473106
     17          1           0       -4.936113   -2.143808   -0.097947
     18          1           0       -7.122901   -1.062385   -0.718556
     19          1           0       -7.173487   -0.266139    0.861423
     20          1           0       -7.292134   -2.030795    0.755503
     21          6           0        4.127185   -0.485009   -0.307834
     22          6           0        4.807845   -1.587778    0.503699
     23          6           0        5.424338   -2.675029   -0.376992
     24          1           0        3.348132   -0.931870   -0.940557
     25          1           0        4.862098   -0.033699   -0.988729
     26          1           0        4.072203   -2.035939    1.183846
     27          1           0        5.585238   -1.138214    1.134705
     28          1           0        6.178421   -2.247520   -1.045719
     29          1           0        4.656789   -3.150346   -0.996300
     30          1           0        5.905565   -3.453219    0.223591
     31          6           0        3.506092    0.609213    0.558566
     32          6           0        2.825431    1.711983   -0.252968
     33          6           0        2.208939    2.799234    0.627723
     34          1           0        2.771178    0.157904    1.239460
     35          1           0        4.285143    1.056076    1.191287
     36          1           0        2.048037    1.262420   -0.883973
     37          1           0        3.561073    2.160145   -0.933114
     38          1           0        2.976488    3.274551    1.247031
     39          1           0        1.454855    2.371725    1.296451
     40          1           0        1.727711    3.577425    0.027141
 ---------------------------------------------------------------------

 SCF Done:  E(RHF) =  -470.732215720     A.U. after   11 cycles
 E2 =    -0.1583551229D+01 EUMP2 =    -0.47231576694963D+03

 The electronic state is 1-A.
 Alpha  occ. eigenvalues --  -11.21622 -11.21620 -11.21555 -11.21433 -11.21416
 Alpha  occ. eigenvalues --  -11.21373 -11.21329 -11.21262 -11.21099 -11.21087
 Alpha  occ. eigenvalues --  -11.21038 -11.20950  -1.08463  -1.08341  -1.03599
 Alpha  occ. eigenvalues --   -1.03412  -0.96076  -0.95849  -0.87058  -0.86906
 Alpha  occ. eigenvalues --   -0.79662  -0.79490  -0.78278  -0.78154  -0.65099
 Alpha  occ. eigenvalues --   -0.64978  -0.61055  -0.60830  -0.59490  -0.59150
 Alpha  occ. eigenvalues --   -0.57691  -0.57438  -0.55467  -0.55073  -0.52710
 Alpha  occ. eigenvalues --   -0.52539  -0.52474  -0.52278  -0.50125  -0.49683
 Alpha  occ. eigenvalues --   -0.47995  -0.47774  -0.46753  -0.46437  -0.45850
 Alpha  occ. eigenvalues --   -0.45750  -0.45664  -0.45585  -0.43759  -0.43697
 Alpha virt. eigenvalues --    0.21478   0.22985   0.23634   0.24989   0.26103
 Alpha virt. eigenvalues --    0.26175   0.27052   0.27504   0.27810   0.29131
 Alpha virt. eigenvalues --    0.29566   0.31200   0.31477   0.32142   0.32352

 Mulliken charges:
               1
     1  C   -0.298676
     2  C   -0.300685
     3  C   -0.477902
     4  H    0.149462
     5  H    0.149360
     6  H    0.152230
     7  H    0.151935
     8  H    0.153782
     9  H    0.156633
    10  H    0.164499
    11  C   -0.298301
    12  C   -0.299624
    13  C   -0.475718
    14  H    0.149644
    15  H    0.149717
    16  H    0.151923
    17  H    0.151891
    18  H    0.155213
    19  H    0.155241
    20  H    0.160307
    21  C   -0.298167
    22  C   -0.299588
    23  C   -0.475637
    24  H    0.149394
    25  H    0.149329
    26  H    0.151817
    27  H    0.151832
    28  H    0.155096
    29  H    0.155000
    30  H    0.160072
    31  C   -0.297975
    32  C   -0.306257
    33  C   -0.475851
    34  H    0.149023
    35  H    0.149088
    36  H    0.161625
    37  H    0.150797
    38  H    0.154195
    39  H    0.156837
    40  H    0.158438
 Sum of Mulliken charges =  -0.00000

 Dipole moment (field-independent basis, Debye):
    X=             -0.0490    Y=              0.0035    Z=             -0.0146  Tot=              0.0513
 Quadrupole moment (field-independent basis, Debye-Ang):
   XX=            -85.7407   YY=            -85.1575   ZZ=            -84.2035
   XY=              0.7107   XZ=              0.1668   YZ=             -0.0496

 Normal termination of Gaussian 16 at Wed May  5 19:44:53 2021.
