 Gaussian 16, Revision A.03,
 Gaussian 16:  EM64L-G16RevA.03 25-Dec-2016

 -------------
 #p 6-31g* mp2
 -------------

 ------------------------------------------------------
 Input file generated by CHIRIPA (05-May-2021 14:51:11)
 ------------------------------------------------------
 Symbolic Z-matrix:
 Charge =  0 Multiplicity = 1

                         Standard orientation:
 ---------------------------------------------------------------------
 Center     Atomic      Atomic             Coordinates (Angstroms)
 Number     Number       Type             X           Y           Z
 ---------------------------------------------------------------------
      1          6           0       -3.393255    0.844274    0.012780
      2          6           0       -2.521850    1.627865   -0.969374
      3          6           0       -1.926208    2.893316   -0.351607
      4          1           0       -4.202497    1.493656    0.373856
      5          1           0       -2.791800    0.575928    0.892346
      6          1           0       -3.124397    1.893458   -1.847448
      7          1           0       -1.714701    0.976483   -1.328300
      8          1           0       -1.302186    2.643224    0.512483
      9          1           0       -2.719892    3.565409   -0.009615
     10          1           0       -1.306909    3.438088   -1.071019
     11          6           0       -3.995842   -0.423445   -0.590134
     12          6           0       -4.867246   -1.207035    0.392020
     13          6           0       -5.462889   -2.472487   -0.225747
     14          1           0       -4.597297   -0.155099   -1.469700
     15          1           0       -3.186600   -1.072826   -0.951210
     16          1           0       -5.674396   -0.555654    0.750946
     17          1           0       -4.264700   -1.472628    1.270094
     18          1           0       -4.669205   -3.144579   -0.567739
     19          1           0       -6.086911   -2.222394   -1.089837
     20          1           0       -6.082187   -3.017258    0.493665
     21          6           0        4.186779   -0.688947   -0.046209
     22          6           0        5.522066   -0.034375   -0.401917
     23          6           0        6.496221   -1.004381   -1.071175
     24          1           0        4.370407   -1.543734    0.619047
     25          1           0        3.731061   -1.095906   -0.959499
     26          1           0        5.974477    0.372445    0.511559
     27          1           0        5.335222    0.819070   -1.066250
     28          1           0        6.068967   -1.401462   -1.997665
     29          1           0        6.711854   -1.850624   -0.410891
     30          1           0        7.444177   -0.515648   -1.316899
     31          6           0        3.202317    0.268117    0.623562
     32          6           0        1.867031   -0.386455    0.979271
     33          6           0        0.892876    0.583551    1.648530
     34          1           0        3.658036    0.675076    1.536853
     35          1           0        3.018689    1.122904   -0.041693
     36          1           0        2.053876   -1.239899    1.643604
     37          1           0        1.414621   -0.793274    0.065795
     38          1           0        0.677243    1.429795    0.988245
     39          1           0        1.320130    0.980633    2.575019
     40          1           0       -0.055079    0.094819    1.894253
 ---------------------------------------------------------------------

 SCF Done:  E(RHF) =  -470.733158569     A.U. after   11 cycles
 E2 =    -0.1582860893D+01 EUMP2 =    -0.47231601946248D+03

 The electronic state is 1-A.
 Alpha  occ. eigenvalues --  -11.21662 -11.21623 -11.21593 -11.21574 -11.21440
 Alpha  occ. eigenvalues --  -11.21383 -11.21380 -11.21322 -11.21131 -11.21088
 Alpha  occ. eigenvalues --  -11.21064 -11.20996  -1.08470  -1.08406  -1.03584
 Alpha  occ. eigenvalues --   -1.03495  -0.96042  -0.95940  -0.87064  -0.86954
 Alpha  occ. eigenvalues --   -0.79667  -0.79543  -0.78283  -0.78216  -0.65148
 Alpha  occ. eigenvalues --   -0.65000  -0.61136  -0.60762  -0.59404  -0.59309
 Alpha  occ. eigenvalues --   -0.57664  -0.57548  -0.55516  -0.55057  -0.52727
 Alpha  occ. eigenvalues --   -0.52651  -0.52514  -0.52313  -0.50136  -0.49723
 Alpha  occ. eigenvalues --   -0.47978  -0.47843  -0.46764  -0.46488  -0.45830
 Alpha  occ. eigenvalues --   -0.45764  -0.45741  -0.45644  -0.43816  -0.43761
 Alpha virt. eigenvalues --    0.20727   0.23097   0.23735   0.25118   0.25952
 Alpha virt. eigenvalues --    0.26437   0.26854   0.27334   0.27944   0.29185
 Alpha virt. eigenvalues --    0.30591   0.30942   0.31534   0.31816   0.32045

 Mulliken charges:
               1
     1  C   -0.300563
     2  C   -0.299080
     3  C   -0.481608
     4  H    0.149614
     5  H    0.151862
     6  H    0.151773
     7  H    0.151540
     8  H    0.162034
     9  H    0.155050
    10  H    0.158998
    11  C   -0.298267
    12  C   -0.299569
    13  C   -0.475692
    14  H    0.149461
    15  H    0.149471
    16  H    0.151987
    17  H    0.151678
    18  H    0.155148
    19  H    0.155172
    20  H    0.160223
    21  C   -0.298331
    22  C   -0.299701
    23  C   -0.475734
    24  H    0.149700
    25  H    0.149532
    26  H    0.152002
    27  H    0.152053
    28  H    0.155214
    29  H    0.155199
    30  H    0.160355
    31  C   -0.298661
    32  C   -0.299473
    33  C   -0.482757
    34  H    0.149725
    35  H    0.150114
    36  H    0.152073
    37  H    0.151626
    38  H    0.161210
    39  H    0.155756
    40  H    0.160864
 Sum of Mulliken charges =  -0.00000

 Dipole moment (field-independent basis, Debye):
    X=              0.0302    Y=              0.0042    Z=              0.0179  Tot=              0.0353
 Quadrupole moment (field-independent basis, Debye-Ang):
   XX=            -84.8770   YY=            -85.7166   ZZ=            -84.1956
   XY=             -0.5192   XZ=              0.8251   YZ=             -0.9298

 Normal termination of Gaussian 16 at Wed May  5 15:13:37 2021.
