 Gaussian 16, Revision A.03,
 Gaussian 16:  EM64L-G16RevA.03 25-Dec-2016

 -------------
 #p 6-31g* mp2
 -------------

 ------------------------------------------------------
 Input file generated by CHIRIPA (05-May-2021 14:51:08)
 ------------------------------------------------------
 Symbolic Z-matrix:
 Charge =  0 Multiplicity = 1

                         Standard orientation:
 ---------------------------------------------------------------------
 Center     Atomic      Atomic             Coordinates (Angstroms)
 Number     Number       Type             X           Y           Z
 ---------------------------------------------------------------------
      1          6           0       -5.112217   -0.207530   -0.298719
      2          6           0       -5.734294   -1.438393    0.361570
      3          6           0       -6.962218   -1.954792   -0.388982
      4          1           0       -5.867119    0.588201   -0.361013
      5          1           0       -4.833773   -0.455826   -1.332263
      6          1           0       -6.010217   -1.188251    1.394000
      7          1           0       -4.977767   -2.231220    0.422473
      8          1           0       -6.698468   -2.231507   -1.414880
      9          1           0       -7.736784   -1.182612   -0.437833
     10          1           0       -7.390993   -2.834950    0.100235
     11          6           0       -3.883710    0.320451    0.440020
     12          6           0       -3.261633    1.551314   -0.220269
     13          6           0       -2.033709    2.067713    0.530283
     14          1           0       -4.162154    0.568747    1.473564
     15          1           0       -3.128807   -0.475280    0.502314
     16          1           0       -4.018159    2.344141   -0.281172
     17          1           0       -2.985709    1.301172   -1.252699
     18          1           0       -1.259143    1.295533    0.579133
     19          1           0       -2.297459    2.344428    1.556180
     20          1           0       -1.604933    2.947871    0.041065
     21          6           0        5.214151   -0.148084   -0.319874
     22          6           0        6.009205   -1.176940    0.484694
     23          6           0        7.440080   -1.349093   -0.025947
     24          1           0        5.194197   -0.453172   -1.375083
     25          1           0        5.736112    0.818168   -0.283687
     26          1           0        5.485180   -2.140621    0.448149
     27          1           0        6.027105   -0.869469    1.538143
     28          1           0        7.984497   -0.400686    0.026343
     29          1           0        7.439492   -1.679060   -1.069844
     30          1           0        7.990382   -2.089111    0.563462
     31          6           0        3.781776    0.035163    0.178573
     32          6           0        2.986722    1.064020   -0.625994
     33          6           0        1.555846    1.236172   -0.115353
     34          1           0        3.259815   -0.931088    0.142387
     35          1           0        3.801729    0.340251    1.233783
     36          1           0        2.968821    0.756547   -1.679443
     37          1           0        3.510746    2.027700   -0.589449
     38          1           0        1.556434    1.566140    0.928544
     39          1           0        1.011430    0.287764   -0.167644
     40          1           0        1.005544    1.976190   -0.704762
 ---------------------------------------------------------------------

 SCF Done:  E(RHF) =  -470.732787978     A.U. after   11 cycles
 E2 =    -0.1582539614D+01 EUMP2 =    -0.47231532759139D+03

 The electronic state is 1-A.
 Alpha  occ. eigenvalues --  -11.21599 -11.21576 -11.21572 -11.21514 -11.21398
 Alpha  occ. eigenvalues --  -11.21362 -11.21339 -11.21300 -11.21069 -11.21053
 Alpha  occ. eigenvalues --  -11.21039 -11.20881  -1.08424  -1.08376  -1.03539
 Alpha  occ. eigenvalues --   -1.03449  -0.96034  -0.95856  -0.87107  -0.86822
 Alpha  occ. eigenvalues --   -0.79684  -0.79439  -0.78245  -0.78182  -0.65056
 Alpha  occ. eigenvalues --   -0.65008  -0.60945  -0.60853  -0.59418  -0.59212
 Alpha  occ. eigenvalues --   -0.57641  -0.57469  -0.55318  -0.55178  -0.52859
 Alpha  occ. eigenvalues --   -0.52537  -0.52407  -0.52206  -0.49954  -0.49782
 Alpha  occ. eigenvalues --   -0.47996  -0.47749  -0.46642  -0.46538  -0.45811
 Alpha  occ. eigenvalues --   -0.45708  -0.45699  -0.45630  -0.43843  -0.43615
 Alpha virt. eigenvalues --    0.22359   0.22985   0.23635   0.24833   0.26280
 Alpha virt. eigenvalues --    0.26665   0.27072   0.27310   0.27670   0.29095
 Alpha virt. eigenvalues --    0.29770   0.31265   0.31345   0.31928   0.32304

 Mulliken charges:
               1
     1  C   -0.298206
     2  C   -0.299592
     3  C   -0.475668
     4  H    0.149602
     5  H    0.149344
     6  H    0.151896
     7  H    0.151780
     8  H    0.155095
     9  H    0.155157
    10  H    0.160143
    11  C   -0.298280
    12  C   -0.299651
    13  C   -0.481140
    14  H    0.149442
    15  H    0.149278
    16  H    0.151263
    17  H    0.151334
    18  H    0.166023
    19  H    0.153685
    20  H    0.158936
    21  C   -0.298222
    22  C   -0.299606
    23  C   -0.475696
    24  H    0.149565
    25  H    0.149550
    26  H    0.151840
    27  H    0.151959
    28  H    0.155195
    29  H    0.155143
    30  H    0.160236
    31  C   -0.298382
    32  C   -0.301108
    33  C   -0.476044
    34  H    0.149209
    35  H    0.149684
    36  H    0.151604
    37  H    0.151872
    38  H    0.156208
    39  H    0.153006
    40  H    0.163545
 Sum of Mulliken charges =  -0.00000

 Dipole moment (field-independent basis, Debye):
    X=              0.0286    Y=              0.0074    Z=              0.0075  Tot=              0.0305
 Quadrupole moment (field-independent basis, Debye-Ang):
   XX=            -86.5235   YY=            -84.2074   ZZ=            -84.3299
   XY=             -0.2568   XZ=             -0.2493   YZ=              0.5603

 Normal termination of Gaussian 16 at Thu May  6 00:30:23 2021.
