 Gaussian 16, Revision A.03,
 Gaussian 16:  EM64L-G16RevA.03 25-Dec-2016

 -------------
 #p 6-31g* mp2
 -------------

 ------------------------------------------------------
 Input file generated by CHIRIPA (05-May-2021 14:55:21)
 ------------------------------------------------------
 Symbolic Z-matrix:
 Charge =  0 Multiplicity = 1

                         Standard orientation:
 ---------------------------------------------------------------------
 Center     Atomic      Atomic             Coordinates (Angstroms)
 Number     Number       Type             X           Y           Z
 ---------------------------------------------------------------------
      1          6           0        3.668570   -2.237841   -0.323625
      2          6           0        4.786124   -1.423280   -0.113661
      3          6           0        4.639697   -0.040474    0.031090
      4          6           0        3.355280    0.496679   -0.039836
      5          6           0        2.222357   -0.288462   -0.247989
      6          6           0        2.392503   -1.668835   -0.390002
      7          1           0        3.791532   -3.311093   -0.435008
      8          1           0        5.778341   -1.862425   -0.061669
      9          1           0        5.487684    0.613450    0.194553
     10          1           0        1.245974    0.178304   -0.295147
     11          1           0        1.522795   -2.298990   -0.552966
     12          7           0        3.187709    1.959307    0.111957
     13          8           0        2.045407    2.408051    0.045528
     14          8           0        4.201841    2.629274    0.294485
     15          6           0       -3.873011   -0.754146    0.521424
     16          6           0       -2.581186   -1.175744   -0.179595
     17          6           0       -1.677170   -2.029370    0.710278
     18          1           0       -3.622216   -0.196419    1.434105
     19          1           0       -4.417109   -1.652716    0.843797
     20          1           0       -2.040361   -0.276675   -0.501774
     21          1           0       -2.835087   -1.732368   -1.090814
     22          1           0       -2.194285   -2.942884    1.021223
     23          1           0       -1.395044   -1.478920    1.613611
     24          1           0       -0.759432   -2.319607    0.189339
     25          6           0       -4.787207    0.099757   -0.355401
     26          6           0       -6.079033    0.521356    0.345618
     27          6           0       -6.983048    1.374981   -0.544256
     28          1           0       -4.243109    0.998327   -0.677773
     29          1           0       -5.038003   -0.457971   -1.268082
     30          1           0       -5.825132    1.077980    1.256837
     31          1           0       -6.619858   -0.377713    0.667796
     32          1           0       -7.265175    0.824530   -1.447588
     33          1           0       -6.465934    2.288494   -0.855201
     34          1           0       -7.900787    1.665218   -0.023316
 ---------------------------------------------------------------------

 SCF Done:  E(RHF) =  -669.535470071     A.U. after   15 cycles
 E2 =    -0.2091087226D+01 EUMP2 =    -0.67162655729774D+03

 The electronic state is 1-A.
 Alpha  occ. eigenvalues --  -20.60750 -20.60745 -15.85803 -11.31153 -11.27725
 Alpha  occ. eigenvalues --  -11.27713 -11.27464 -11.26739 -11.26713 -11.22138
 Alpha  occ. eigenvalues --  -11.21863 -11.21696 -11.21684 -11.21526 -11.21098
 Alpha  occ. eigenvalues --   -1.59826  -1.39380  -1.19326  -1.08727  -1.08712
 Alpha  occ. eigenvalues --   -1.04729  -1.03867  -0.96327  -0.95561  -0.87348
 Alpha  occ. eigenvalues --   -0.86128  -0.82396  -0.79935  -0.78484  -0.77446
 Alpha  occ. eigenvalues --   -0.72022  -0.71148  -0.70436  -0.65334  -0.64980
 Alpha  occ. eigenvalues --   -0.64757  -0.62140  -0.61243  -0.59721  -0.57923
 Alpha  occ. eigenvalues --   -0.55590  -0.55231  -0.53211  -0.53043  -0.52835
 Alpha  occ. eigenvalues --   -0.52590  -0.50242  -0.48780  -0.48777  -0.48246
 Alpha  occ. eigenvalues --   -0.46947  -0.46037  -0.45927  -0.44789  -0.44110
 Alpha  occ. eigenvalues --   -0.37309  -0.36324
 Alpha virt. eigenvalues --    0.05088   0.11315   0.16556   0.19402   0.22801
 Alpha virt. eigenvalues --    0.23822   0.25847   0.26052   0.27020   0.27884
 Alpha virt. eigenvalues --    0.29029   0.29348   0.31192   0.31628   0.32233

 Mulliken charges:
               1
     1  C   -0.171351
     2  C   -0.218642
     3  C   -0.170863
     4  C    0.158438
     5  C   -0.173302
     6  C   -0.222417
     7  H    0.225896
     8  H    0.223270
     9  H    0.275442
    10  H    0.277050
    11  H    0.229059
    12  N    0.488109
    13  O   -0.460826
    14  O   -0.460537
    15  C   -0.299005
    16  C   -0.301291
    17  C   -0.479990
    18  H    0.152746
    19  H    0.149755
    20  H    0.153473
    21  H    0.152428
    22  H    0.158963
    23  H    0.161007
    24  H    0.148487
    25  C   -0.299283
    26  C   -0.300107
    27  C   -0.476098
    28  H    0.152881
    29  H    0.149226
    30  H    0.153510
    31  H    0.151369
    32  H    0.154796
    33  H    0.156965
    34  H    0.160841
 Sum of Mulliken charges =  -0.00000

 Dipole moment (field-independent basis, Debye):
    X=              0.4340    Y=             -5.1120    Z=             -0.4916  Tot=              5.1539
 Quadrupole moment (field-independent basis, Debye-Ang):
   XX=            -85.6279   YY=           -100.2376   ZZ=            -95.6600
   XY=            -15.8748   XZ=             -1.5087   YZ=              0.5889

 Normal termination of Gaussian 16 at Thu May  6 06:10:39 2021.
