 Gaussian 16, Revision A.03,
 Gaussian 16:  EM64L-G16RevA.03 25-Dec-2016

 -------------
 #p 6-31g* mp2
 -------------

 ------------------------------------------------------
 Input file generated by CHIRIPA (05-May-2021 14:57:22)
 ------------------------------------------------------
 Symbolic Z-matrix:
 Charge =  0 Multiplicity = 1

                         Standard orientation:
 ---------------------------------------------------------------------
 Center     Atomic      Atomic             Coordinates (Angstroms)
 Number     Number       Type             X           Y           Z
 ---------------------------------------------------------------------
      1          6           0        1.677292   -0.773021    0.266018
      2          6           0        2.646207   -1.657530   -0.219129
      3          6           0        3.961150   -1.228407   -0.422419
      4          6           0        4.273780    0.097991   -0.128789
      5          6           0        3.330862    1.003207    0.355753
      6          6           0        2.022104    0.552188    0.551408
      7          1           0        0.658215   -1.114879    0.420973
      8          1           0        2.381281   -2.687265   -0.441626
      9          1           0        4.731050   -1.892025   -0.796965
     10          1           0        3.625082    2.023791    0.568495
     11          1           0        1.271706    1.241324    0.928288
     12          7           0        5.662578    0.563874   -0.339961
     13          8           0        5.912569    1.737420   -0.073629
     14          8           0        6.474830   -0.253333   -0.767812
     15          6           0       -6.017830    1.022393   -1.082588
     16          6           0       -5.700337   -0.321437   -1.305834
     17          6           0       -4.609438   -0.910128   -0.659359
     18          6           0       -3.854153   -0.122100    0.207732
     19          6           0       -4.145129    1.219356    0.450880
     20          6           0       -5.240583    1.787152   -0.206488
     21          1           0       -6.867036    1.471587   -1.589017
     22          1           0       -6.302190   -0.917771   -1.985690
     23          1           0       -4.341275   -1.948215   -0.813903
     24          1           0       -3.526551    1.788394    1.134236
     25          1           0       -5.484809    2.831026   -0.031195
     26          7           0       -2.696856   -0.734260    0.897892
     27          8           0       -2.047170   -0.018548    1.657037
     28          8           0       -2.461366   -1.918194    0.666627
 ---------------------------------------------------------------------

 SCF Done:  E(RHF) =  -868.341397371     A.U. after   16 cycles
 E2 =    -0.2598554605D+01 EUMP2 =    -0.87093995197643D+03

 The electronic state is 1-A.
 Alpha  occ. eigenvalues --  -20.62189 -20.62163 -20.60032 -20.60027 -15.87167
 Alpha  occ. eigenvalues --  -15.85080 -11.32140 -11.30214 -11.28663 -11.28651
 Alpha  occ. eigenvalues --  -11.28315 -11.27573 -11.27563 -11.26787 -11.26770
 Alpha  occ. eigenvalues --  -11.26206 -11.25662 -11.25602  -1.61231  -1.59114
 Alpha  occ. eigenvalues --   -1.40788  -1.38675  -1.20272  -1.18347  -1.09739
 Alpha  occ. eigenvalues --   -1.07731  -1.05611  -1.03729  -0.96637  -0.94612
 Alpha  occ. eigenvalues --   -0.87027  -0.85101  -0.83483  -0.81473  -0.78577
 Alpha  occ. eigenvalues --   -0.76596  -0.73380  -0.72534  -0.71368  -0.71300
 Alpha  occ. eigenvalues --   -0.70437  -0.69304  -0.65923  -0.65604  -0.63969
 Alpha  occ. eigenvalues --   -0.63692  -0.62962  -0.61091  -0.56122  -0.54074
 Alpha  occ. eigenvalues --   -0.53925  -0.53694  -0.52064  -0.51791  -0.50160
 Alpha  occ. eigenvalues --   -0.50109  -0.48071  -0.48033  -0.46276  -0.44133
 Alpha  occ. eigenvalues --   -0.38223  -0.37194  -0.36242  -0.35364
 Alpha virt. eigenvalues --    0.03873   0.05945   0.10468   0.12314   0.15456
 Alpha virt. eigenvalues --    0.17523   0.20647   0.22726   0.26598   0.27482
 Alpha virt. eigenvalues --    0.28375   0.29565   0.30418   0.31662   0.32413

 Mulliken charges:
               1
     1  C   -0.178180
     2  C   -0.220944
     3  C   -0.172265
     4  C    0.156878
     5  C   -0.172656
     6  C   -0.221602
     7  H    0.247561
     8  H    0.222901
     9  H    0.271989
    10  H    0.271506
    11  H    0.227438
    12  N    0.488339
    13  O   -0.463510
    14  O   -0.463250
    15  C   -0.169121
    16  C   -0.218466
    17  C   -0.170166
    18  C    0.158432
    19  C   -0.170492
    20  C   -0.218415
    21  H    0.229126
    22  H    0.226469
    23  H    0.276276
    24  H    0.275181
    25  H    0.226461
    26  N    0.487964
    27  O   -0.465506
    28  O   -0.461948
 Sum of Mulliken charges =  -0.00000

 Dipole moment (field-independent basis, Debye):
    X=             -9.7098    Y=              0.5031    Z=             -1.6948  Tot=              9.8694
 Quadrupole moment (field-independent basis, Debye-Ang):
   XX=           -115.9272   YY=            -97.8931   ZZ=           -105.8586
   XY=            -16.2880   XZ=             13.1392   YZ=              4.9614

 Normal termination of Gaussian 16 at Wed May  5 20:58:00 2021.
