 Gaussian 16, Revision A.03,
 Gaussian 16:  EM64L-G16RevA.03 25-Dec-2016

 -------------
 #p 6-31g* mp2
 -------------

 ------------------------------------------------------
 Input file generated by CHIRIPA (05-May-2021 14:55:23)
 ------------------------------------------------------
 Symbolic Z-matrix:
 Charge =  0 Multiplicity = 1

                         Standard orientation:
 ---------------------------------------------------------------------
 Center     Atomic      Atomic             Coordinates (Angstroms)
 Number     Number       Type             X           Y           Z
 ---------------------------------------------------------------------
      1          6           0       -4.146449    1.431406    0.426349
      2          6           0       -2.779201    1.725235    0.454948
      3          6           0       -1.832822    0.725059    0.212948
      4          6           0       -2.290933   -0.563861   -0.055584
      5          6           0       -3.646290   -0.887958   -0.091075
      6          6           0       -4.574875    0.128045    0.153909
      7          1           0       -4.874707    2.214514    0.615499
      8          1           0       -2.443588    2.736549    0.666260
      9          1           0       -0.768286    0.924871    0.228916
     10          1           0       -3.950380   -1.905491   -0.304553
     11          1           0       -5.636062   -0.103045    0.131051
     12          7           0       -1.298464   -1.631081   -0.313358
     13          8           0       -1.727780   -2.758681   -0.547544
     14          8           0       -0.110043   -1.319759   -0.276335
     15          6           0        2.876449    1.046276   -0.442469
     16          6           0        2.647295    2.377248    0.274462
     17          6           0        2.116448    3.466968   -0.657476
     18          1           0        3.583016    1.199532   -1.269644
     19          1           0        1.931987    0.714470   -0.895559
     20          1           0        3.591588    2.705757    0.727239
     21          1           0        1.941339    2.220767    1.100146
     22          1           0        1.161644    3.164356   -1.099488
     23          1           0        2.821271    3.652102   -1.474514
     24          1           0        1.959804    4.409889   -0.124349
     25          6           0        3.407082   -0.053071    0.476004
     26          6           0        3.636236   -1.384043   -0.240925
     27          6           0        4.167082   -2.473763    0.691011
     28          1           0        4.351543    0.278736    0.929095
     29          1           0        2.700515   -0.206326    1.303180
     30          1           0        4.342193   -1.227561   -1.066610
     31          1           0        2.691943   -1.712552   -0.693703
     32          1           0        3.462260   -2.658896    1.508050
     33          1           0        5.121887   -2.171150    1.133024
     34          1           0        4.323726   -3.416683    0.157885
 ---------------------------------------------------------------------

 SCF Done:  E(RHF) =  -669.536394508     A.U. after   15 cycles
 E2 =    -0.2092656598D+01 EUMP2 =    -0.67162905110657D+03

 The electronic state is 1-A.
 Alpha  occ. eigenvalues --  -20.61074 -20.61063 -15.86096 -11.31355 -11.27909
 Alpha  occ. eigenvalues --  -11.27905 -11.27633 -11.26904 -11.26890 -11.21434
 Alpha  occ. eigenvalues --  -11.21167 -11.20676 -11.20427 -11.20218 -11.19940
 Alpha  occ. eigenvalues --   -1.60126  -1.39686  -1.19516  -1.08932  -1.07694
 Alpha  occ. eigenvalues --   -1.04902  -1.02840  -0.95786  -0.95325  -0.86365
 Alpha  occ. eigenvalues --   -0.86302  -0.82625  -0.78969  -0.77709  -0.77358
 Alpha  occ. eigenvalues --   -0.72341  -0.71432  -0.70626  -0.65189  -0.64917
 Alpha  occ. eigenvalues --   -0.64282  -0.62246  -0.60216  -0.58784  -0.56897
 Alpha  occ. eigenvalues --   -0.55409  -0.54622  -0.53237  -0.52991  -0.52091
 Alpha  occ. eigenvalues --   -0.51745  -0.49367  -0.49073  -0.49042  -0.47262
 Alpha  occ. eigenvalues --   -0.45977  -0.45177  -0.44964  -0.44626  -0.43059
 Alpha  occ. eigenvalues --   -0.37491  -0.36500
 Alpha virt. eigenvalues --    0.04821   0.11145   0.16330   0.19244   0.22861
 Alpha virt. eigenvalues --    0.24820   0.26592   0.27486   0.28146   0.28508
 Alpha virt. eigenvalues --    0.29486   0.31253   0.31610   0.32034   0.32678

 Mulliken charges:
               1
     1  C   -0.170179
     2  C   -0.219982
     3  C   -0.174926
     4  C    0.156775
     5  C   -0.169876
     6  C   -0.218807
     7  H    0.226360
     8  H    0.225087
     9  H    0.281823
    10  H    0.275903
    11  H    0.224051
    12  N    0.494955
    13  O   -0.457848
    14  O   -0.468202
    15  C   -0.305905
    16  C   -0.300506
    17  C   -0.475272
    18  H    0.147386
    19  H    0.162980
    20  H    0.153044
    21  H    0.144242
    22  H    0.147747
    23  H    0.158661
    24  H    0.156881
    25  C   -0.293887
    26  C   -0.308880
    27  C   -0.474806
    28  H    0.142939
    29  H    0.151272
    30  H    0.144158
    31  H    0.180646
    32  H    0.156964
    33  H    0.148263
    34  H    0.158937
 Sum of Mulliken charges =  -0.00000

 Dipole moment (field-independent basis, Debye):
    X=             -3.7635    Y=              3.5557    Z=              0.8291  Tot=              5.2435
 Quadrupole moment (field-independent basis, Debye-Ang):
   XX=            -76.1954   YY=            -98.2070   ZZ=            -96.0250
   XY=             -3.4598   XZ=             -2.1094   YZ=              0.2953

 Normal termination of Gaussian 16 at Thu May  6 11:01:38 2021.
