 Gaussian 16, Revision A.03,
 Gaussian 16:  EM64L-G16RevA.03 25-Dec-2016

 -------------
 #p 6-31g* mp2
 -------------

 ------------------------------------------------------
 Input file generated by CHIRIPA (05-May-2021 14:53:14)
 ------------------------------------------------------
 Symbolic Z-matrix:
 Charge =  0 Multiplicity = 1

                         Standard orientation:
 ---------------------------------------------------------------------
 Center     Atomic      Atomic             Coordinates (Angstroms)
 Number     Number       Type             X           Y           Z
 ---------------------------------------------------------------------
      1          6           0        3.530947    0.649211   -0.386772
      2          6           0        3.380879    1.999582    0.314629
      3          6           0        2.150507    2.776261   -0.155210
      4          1           0        3.590176    0.811333   -1.471739
      5          1           0        2.627640    0.049287   -0.209228
      6          1           0        4.284785    2.596246    0.136967
      7          1           0        3.322194    1.834241    1.398065
      8          1           0        1.237156    2.204025    0.036980
      9          1           0        2.205216    2.970359   -1.231283
     10          1           0        2.062581    3.738386    0.359031
     11          6           0        4.756369   -0.139027    0.072303
     12          6           0        4.906437   -1.489398   -0.629098
     13          6           0        6.136810   -2.266077   -0.159259
     14          1           0        5.659677    0.460897   -0.105241
     15          1           0        4.697141   -0.301149    1.157270
     16          1           0        4.965123   -1.324057   -1.712534
     17          1           0        4.002532   -2.086062   -0.451436
     18          1           0        6.082101   -2.460175    0.916814
     19          1           0        7.050161   -1.693841   -0.351449
     20          1           0        6.224736   -3.228202   -0.673500
     21          6           0       -0.857745    0.157200    0.882363
     22          6           0       -1.438725   -1.111972    0.972850
     23          6           0       -2.756379   -1.321094    0.554994
     24          6           0       -3.467273   -0.233755    0.049412
     25          6           0       -2.916314    1.042632   -0.053393
     26          6           0       -1.597090    1.228563    0.370433
     27          1           0        0.166449    0.310642    1.209282
     28          1           0       -0.866920   -1.945848    1.370008
     29          1           0       -3.230759   -2.293160    0.613885
     30          1           0       -3.511397    1.854474   -0.453652
     31          1           0       -1.148473    2.215316    0.298990
     32          7           0       -4.863045   -0.442867   -0.396114
     33          8           0       -5.468170    0.531466   -0.837858
     34          8           0       -5.325498   -1.577141   -0.295136
 ---------------------------------------------------------------------

 SCF Done:  E(RHF) =  -669.534807993     A.U. after   15 cycles
 E2 =    -0.2092208826D+01 EUMP2 =    -0.67162701681939D+03

 The electronic state is 1-A.
 Alpha  occ. eigenvalues --  -20.60750 -20.60745 -15.85803 -11.31176 -11.27741
 Alpha  occ. eigenvalues --  -11.27729 -11.27476 -11.26767 -11.26722 -11.22671
 Alpha  occ. eigenvalues --  -11.22374 -11.22301 -11.22294 -11.22176 -11.21646
 Alpha  occ. eigenvalues --   -1.59825  -1.39378  -1.19346  -1.09341  -1.08745
 Alpha  occ. eigenvalues --   -1.04750  -1.04429  -0.96891  -0.95580  -0.87914
 Alpha  occ. eigenvalues --   -0.86151  -0.82408  -0.80501  -0.79117  -0.77452
 Alpha  occ. eigenvalues --   -0.72023  -0.71148  -0.70499  -0.65999  -0.65006
 Alpha  occ. eigenvalues --   -0.64780  -0.62168  -0.61763  -0.60256  -0.58467
 Alpha  occ. eigenvalues --   -0.56196  -0.55257  -0.53575  -0.53338  -0.53064
 Alpha  occ. eigenvalues --   -0.52811  -0.50832  -0.48819  -0.48777  -0.48752
 Alpha  occ. eigenvalues --   -0.47530  -0.46654  -0.46577  -0.44782  -0.44673
 Alpha  occ. eigenvalues --   -0.37318  -0.36344
 Alpha virt. eigenvalues --    0.05057   0.11245   0.16467   0.19204   0.22487
 Alpha virt. eigenvalues --    0.23680   0.25378   0.25737   0.26580   0.28067
 Alpha virt. eigenvalues --    0.29214   0.29966   0.30826   0.31286   0.31562

 Mulliken charges:
               1
     1  C   -0.299736
     2  C   -0.301231
     3  C   -0.482171
     4  H    0.154275
     5  H    0.143337
     6  H    0.157580
     7  H    0.150189
     8  H    0.146904
     9  H    0.161940
    10  H    0.163499
    11  C   -0.298825
    12  C   -0.299775
    13  C   -0.476187
    14  H    0.152492
    15  H    0.148725
    16  H    0.154262
    17  H    0.150089
    18  H    0.155126
    19  H    0.156757
    20  H    0.162377
    21  C   -0.174084
    22  C   -0.219114
    23  C   -0.170942
    24  C    0.158496
    25  C   -0.171191
    26  C   -0.220974
    27  H    0.228838
    28  H    0.223120
    29  H    0.275547
    30  H    0.275781
    31  H    0.227585
    32  N    0.488045
    33  O   -0.460303
    34  O   -0.460432
 Sum of Mulliken charges =  -0.00000

 Dipole moment (field-independent basis, Debye):
    X=              5.1321    Y=              0.7657    Z=              1.4906  Tot=              5.3988
 Quadrupole moment (field-independent basis, Debye-Ang):
   XX=           -128.9165   YY=            -90.4675   ZZ=            -94.5868
   XY=             -3.1626   XZ=             -5.9919   YZ=             -2.0109

 Normal termination of Gaussian 16 at Thu May  6 18:45:41 2021.
