 Gaussian 16, Revision A.03,
 Gaussian 16:  EM64L-G16RevA.03 25-Dec-2016

 -------------
 #p 6-31g* mp2
 -------------

 ------------------------------------------------------
 Input file generated by CHIRIPA (05-May-2021 14:55:19)
 ------------------------------------------------------
 Symbolic Z-matrix:
 Charge =  0 Multiplicity = 1

                         Standard orientation:
 ---------------------------------------------------------------------
 Center     Atomic      Atomic             Coordinates (Angstroms)
 Number     Number       Type             X           Y           Z
 ---------------------------------------------------------------------
      1          6           0       -1.747943    2.901439    0.149029
      2          6           0       -1.864616    2.125922    1.307253
      3          6           0       -2.278641    0.792797    1.230381
      4          6           0       -2.569191    0.264972   -0.026708
      5          6           0       -2.462621    1.012028   -1.198818
      6          6           0       -2.046791    2.343002   -1.098111
      7          1           0       -1.425617    3.936207    0.218003
      8          1           0       -1.633192    2.556971    2.277142
      9          1           0       -2.377501    0.169818    2.111029
     10          1           0       -2.700332    0.554503   -2.151489
     11          1           0       -1.957076    2.942910   -1.999280
     12          7           0       -3.008456   -1.145209   -0.120705
     13          8           0       -3.258507   -1.586723   -1.240159
     14          8           0       -3.094383   -1.782292    0.926853
     15          6           0        3.875456   -0.422361   -0.260796
     16          6           0        4.340957    0.936351    0.263793
     17          6           0        5.702050    1.351312   -0.295696
     18          1           0        4.625726   -1.183324   -0.005894
     19          1           0        3.826561   -0.386826   -1.357947
     20          1           0        4.387629    0.898690    1.359704
     21          1           0        3.589400    1.694135    0.007780
     22          1           0        5.665865    1.416787   -1.387943
     23          1           0        6.468631    0.616822   -0.028338
     24          1           0        6.015560    2.325467    0.092369
     25          6           0        2.516337   -0.850950    0.289508
     26          6           0        2.050837   -2.209663   -0.235080
     27          6           0        0.689744   -2.624624    0.324409
     28          1           0        2.565233   -0.886485    1.386660
     29          1           0        1.766067   -0.089987    0.034607
     30          1           0        2.802394   -2.967446    0.020933
     31          1           0        2.004164   -2.172002   -1.330991
     32          1           0       -0.076837   -1.890133    0.057051
     33          1           0        0.725929   -2.690098    1.416656
     34          1           0        0.376234   -3.598777   -0.063656
 ---------------------------------------------------------------------

 SCF Done:  E(RHF) =  -669.535555450     A.U. after   15 cycles
 E2 =    -0.2091850280D+01 EUMP2 =    -0.67162740572966D+03

 The electronic state is 1-A.
 Alpha  occ. eigenvalues --  -20.60787 -20.60776 -15.85828 -11.31227 -11.27798
 Alpha  occ. eigenvalues --  -11.27790 -11.27541 -11.26813 -11.26801 -11.21729
 Alpha  occ. eigenvalues --  -11.21391 -11.21324 -11.21261 -11.21209 -11.20573
 Alpha  occ. eigenvalues --   -1.59858  -1.39408  -1.19401  -1.08793  -1.08368
 Alpha  occ. eigenvalues --   -1.04802  -1.03417  -0.95848  -0.95621  -0.86860
 Alpha  occ. eigenvalues --   -0.86199  -0.82448  -0.79493  -0.78176  -0.77492
 Alpha  occ. eigenvalues --   -0.72050  -0.71201  -0.70501  -0.65050  -0.65003
 Alpha  occ. eigenvalues --   -0.64802  -0.62146  -0.60818  -0.59236  -0.57458
 Alpha  occ. eigenvalues --   -0.55303  -0.55142  -0.53139  -0.52892  -0.52509
 Alpha  occ. eigenvalues --   -0.52274  -0.49808  -0.48812  -0.48805  -0.47806
 Alpha  occ. eigenvalues --   -0.46549  -0.45718  -0.45639  -0.44780  -0.43664
 Alpha  occ. eigenvalues --   -0.37377  -0.36403
 Alpha virt. eigenvalues --    0.05033   0.11243   0.16509   0.21390   0.22865
 Alpha virt. eigenvalues --    0.24325   0.26589   0.27269   0.27446   0.27875
 Alpha virt. eigenvalues --    0.28372   0.30745   0.31360   0.31849   0.32302

 Mulliken charges:
               1
     1  C   -0.170860
     2  C   -0.218273
     3  C   -0.170632
     4  C    0.154926
     5  C   -0.171902
     6  C   -0.218822
     7  H    0.225824
     8  H    0.223842
     9  H    0.276299
    10  H    0.275878
    11  H    0.223537
    12  N    0.490635
    13  O   -0.460023
    14  O   -0.458423
    15  C   -0.297884
    16  C   -0.298927
    17  C   -0.475505
    18  H    0.150390
    19  H    0.149233
    20  H    0.151238
    21  H    0.148764
    22  H    0.155024
    23  H    0.156225
    24  H    0.158870
    25  C   -0.298324
    26  C   -0.301022
    27  C   -0.470642
    28  H    0.147981
    29  H    0.148164
    30  H    0.151380
    31  H    0.151716
    32  H    0.149155
    33  H    0.154689
    34  H    0.167471
 Sum of Mulliken charges =  -0.00000

 Dipole moment (field-independent basis, Debye):
    X=              1.4679    Y=              4.8870    Z=              0.3487  Tot=              5.1146
 Quadrupole moment (field-independent basis, Debye-Ang):
   XX=           -104.5438   YY=            -92.3436   ZZ=            -89.3020
   XY=            -13.1846   XZ=              0.1608   YZ=             -0.7939

 Normal termination of Gaussian 16 at Wed May  5 18:52:44 2021.
