 Gaussian 16, Revision A.03,
 Gaussian 16:  EM64L-G16RevA.03 25-Dec-2016

 -------------
 #p 6-31g* mp2
 -------------

 ------------------------------------------------------
 Input file generated by CHIRIPA (05-May-2021 14:51:13)
 ------------------------------------------------------
 Symbolic Z-matrix:
 Charge =  0 Multiplicity = 1

                         Standard orientation:
 ---------------------------------------------------------------------
 Center     Atomic      Atomic             Coordinates (Angstroms)
 Number     Number       Type             X           Y           Z
 ---------------------------------------------------------------------
      1          6           0        4.657937   -0.606272    0.171668
      2          6           0        6.094108   -0.894607   -0.266807
      3          6           0        6.627636   -2.215723    0.287983
      4          1           0        4.612741   -0.589623    1.269222
      5          1           0        4.009540   -1.430899   -0.155392
      6          1           0        6.739367   -0.069016    0.059776
      7          1           0        6.135927   -0.910382   -1.363447
      8          1           0        6.007984   -3.053175   -0.048629
      9          1           0        6.614852   -2.207028    1.382680
     10          1           0        7.655750   -2.401976   -0.037825
     11          6           0        4.110520    0.711016   -0.374970
     12          6           0        2.674349    0.999351    0.063505
     13          6           0        2.140821    2.320467   -0.491286
     14          1           0        4.758917    1.535643   -0.047910
     15          1           0        4.155716    0.694367   -1.472525
     16          1           0        2.632529    1.015126    1.160144
     17          1           0        2.029089    0.173760   -0.263079
     18          1           0        2.153604    2.311772   -1.585983
     19          1           0        2.760473    3.157919   -0.154673
     20          1           0        1.112707    2.506720   -0.165477
     21          6           0       -3.624440   -0.068926    0.178336
     22          6           0       -3.008317    1.310938    0.411470
     23          6           0       -1.487659    1.261421    0.562938
     24          1           0       -3.359259   -0.728179    1.016197
     25          1           0       -3.179603   -0.513970   -0.722469
     26          1           0       -3.455189    1.753826    1.310787
     27          1           0       -3.275155    1.967036   -0.426950
     28          1           0       -1.024314    0.843543   -0.336669
     29          1           0       -1.205370    0.629122    1.410942
     30          1           0       -1.068042    2.258560    0.728755
     31          6           0       -5.144016   -0.035818    0.024966
     32          6           0       -5.760140   -1.415682   -0.208167
     33          6           0       -7.280798   -1.366165   -0.359635
     34          1           0       -5.588854    0.409227    0.925772
     35          1           0       -5.409197    0.623434   -0.812895
     36          1           0       -5.493301   -2.071780    0.630253
     37          1           0       -5.313268   -1.858570   -1.107484
     38          1           0       -7.563086   -0.733866   -1.207640
     39          1           0       -7.744142   -0.948287    0.539971
     40          1           0       -7.700414   -2.363304   -0.525452
 ---------------------------------------------------------------------

 SCF Done:  E(RHF) =  -470.732855584     A.U. after   11 cycles
 E2 =    -0.1582656256D+01 EUMP2 =    -0.47231551184011D+03

 The electronic state is 1-A.
 Alpha  occ. eigenvalues --  -11.21624 -11.21614 -11.21563 -11.21493 -11.21424
 Alpha  occ. eigenvalues --  -11.21364 -11.21343 -11.21280 -11.21105 -11.21081
 Alpha  occ. eigenvalues --  -11.21042 -11.20880  -1.08451  -1.08359  -1.03566
 Alpha  occ. eigenvalues --   -1.03439  -0.96047  -0.95864  -0.87082  -0.86868
 Alpha  occ. eigenvalues --   -0.79626  -0.79510  -0.78264  -0.78171  -0.65082
 Alpha  occ. eigenvalues --   -0.64991  -0.60974  -0.60835  -0.59615  -0.59102
 Alpha  occ. eigenvalues --   -0.57635  -0.57496  -0.55312  -0.55164  -0.53027
 Alpha  occ. eigenvalues --   -0.52454  -0.52417  -0.52122  -0.49935  -0.49840
 Alpha  occ. eigenvalues --   -0.47965  -0.47796  -0.46644  -0.46547  -0.45810
 Alpha  occ. eigenvalues --   -0.45729  -0.45708  -0.45636  -0.43941  -0.43538
 Alpha virt. eigenvalues --    0.22123   0.22995   0.23512   0.24883   0.26418
 Alpha virt. eigenvalues --    0.26743   0.26918   0.27323   0.27761   0.29083
 Alpha virt. eigenvalues --    0.29518   0.31055   0.31511   0.31619   0.32222

 Mulliken charges:
               1
     1  C   -0.298154
     2  C   -0.299571
     3  C   -0.475655
     4  H    0.149496
     5  H    0.149333
     6  H    0.151851
     7  H    0.151816
     8  H    0.155090
     9  H    0.155102
    10  H    0.160105
    11  C   -0.298253
    12  C   -0.298908
    13  C   -0.483173
    14  H    0.149314
    15  H    0.149277
    16  H    0.151571
    17  H    0.152259
    18  H    0.153670
    19  H    0.153753
    20  H    0.169491
    21  C   -0.298726
    22  C   -0.299849
    23  C   -0.478746
    24  H    0.149733
    25  H    0.149521
    26  H    0.151984
    27  H    0.152203
    28  H    0.157498
    29  H    0.156110
    30  H    0.161624
    31  C   -0.298313
    32  C   -0.299640
    33  C   -0.475713
    34  H    0.149592
    35  H    0.149716
    36  H    0.151969
    37  H    0.151914
    38  H    0.155207
    39  H    0.155212
    40  H    0.160290
 Sum of Mulliken charges =  -0.00000

 Dipole moment (field-independent basis, Debye):
    X=             -0.0614    Y=             -0.0035    Z=              0.0163  Tot=              0.0636
 Quadrupole moment (field-independent basis, Debye-Ang):
   XX=            -86.3651   YY=            -85.4708   ZZ=            -83.1791
   XY=              0.4706   XZ=             -0.0879   YZ=              0.6039

 Normal termination of Gaussian 16 at Wed May  5 23:13:26 2021.
