 Gaussian 16, Revision A.03,
 Gaussian 16:  EM64L-G16RevA.03 25-Dec-2016

 -------------
 #p 6-31g* mp2
 -------------

 ------------------------------------------------------
 Input file generated by CHIRIPA (05-May-2021 14:51:13)
 ------------------------------------------------------
 Symbolic Z-matrix:
 Charge =  0 Multiplicity = 1

                         Standard orientation:
 ---------------------------------------------------------------------
 Center     Atomic      Atomic             Coordinates (Angstroms)
 Number     Number       Type             X           Y           Z
 ---------------------------------------------------------------------
      1          6           0       -3.210393    0.800572    0.281138
      2          6           0       -4.200957    1.722461   -0.430823
      3          6           0       -4.171995    3.152120    0.110498
      4          1           0       -3.435353    0.791645    1.356433
      5          1           0       -2.197036    1.212521    0.177214
      6          1           0       -5.211971    1.308167   -0.326768
      7          1           0       -3.973733    1.729044   -1.504574
      8          1           0       -3.175005    3.588716   -0.007802
      9          1           0       -4.420279    3.165448    1.176697
     10          1           0       -4.887703    3.794022   -0.412554
     11          6           0       -3.227612   -0.632078   -0.248906
     12          6           0       -2.237048   -1.553967    0.463055
     13          6           0       -2.266010   -2.983626   -0.078266
     14          1           0       -4.240969   -1.044027   -0.144982
     15          1           0       -3.002652   -0.623151   -1.324201
     16          1           0       -2.464272   -1.560550    1.536806
     17          1           0       -1.226034   -1.139673    0.359000
     18          1           0       -2.017726   -2.996954   -1.144464
     19          1           0       -3.263000   -3.420222    0.040034
     20          1           0       -1.550302   -3.625528    0.444786
     21          6           0        3.240475    0.673612    0.076732
     22          6           0        4.632196    1.271063   -0.133386
     23          6           0        4.659011    2.788061    0.055801
     24          1           0        2.536800    1.144362   -0.623395
     25          1           0        2.890300    0.924223    1.087656
     26          1           0        4.980220    1.018225   -1.143123
     27          1           0        5.332679    0.798699    0.567193
     28          1           0        4.336855    3.055893    1.067276
     29          1           0        3.982393    3.276666   -0.652757
     30          1           0        5.663443    3.194256   -0.099054
     31          6           0        3.197530   -0.842106   -0.108965
     32          6           0        1.805809   -1.439557    0.101154
     33          6           0        1.778994   -2.956555   -0.088033
     34          1           0        3.547706   -1.092717   -1.119888
     35          1           0        3.901206   -1.312856    0.591163
     36          1           0        1.105326   -0.967193   -0.599426
     37          1           0        1.457786   -1.186719    1.110891
     38          1           0        2.455612   -3.445160    0.620525
     39          1           0        2.101150   -3.224387   -1.099509
     40          1           0        0.774561   -3.362750    0.066823
 ---------------------------------------------------------------------

 SCF Done:  E(RHF) =  -470.732551422     A.U. after   11 cycles
 E2 =    -0.1583683402D+01 EUMP2 =    -0.47231623482365D+03

 The electronic state is 1-A.
 Alpha  occ. eigenvalues --  -11.21626 -11.21620 -11.21590 -11.21517 -11.21426
 Alpha  occ. eigenvalues --  -11.21383 -11.21366 -11.21324 -11.21087 -11.21066
 Alpha  occ. eigenvalues --  -11.21062 -11.21018  -1.08464  -1.08397  -1.03597
 Alpha  occ. eigenvalues --   -1.03464  -0.96052  -0.95910  -0.87071  -0.86924
 Alpha  occ. eigenvalues --   -0.79729  -0.79476  -0.78331  -0.78152  -0.65113
 Alpha  occ. eigenvalues --   -0.65019  -0.61041  -0.60880  -0.59709  -0.59073
 Alpha  occ. eigenvalues --   -0.57820  -0.57291  -0.55299  -0.55212  -0.52949
 Alpha  occ. eigenvalues --   -0.52522  -0.52474  -0.52171  -0.49961  -0.49889
 Alpha  occ. eigenvalues --   -0.48179  -0.47709  -0.46712  -0.46553  -0.45952
 Alpha  occ. eigenvalues --   -0.45753  -0.45721  -0.45452  -0.43922  -0.43608
 Alpha virt. eigenvalues --    0.21146   0.23141   0.23365   0.25371   0.25880
 Alpha virt. eigenvalues --    0.26567   0.26921   0.27130   0.28482   0.29099
 Alpha virt. eigenvalues --    0.30097   0.30956   0.31362   0.31684   0.32555

 Mulliken charges:
               1
     1  C   -0.298325
     2  C   -0.299610
     3  C   -0.475702
     4  H    0.149623
     5  H    0.149596
     6  H    0.151927
     7  H    0.151754
     8  H    0.155206
     9  H    0.155170
    10  H    0.160183
    11  C   -0.297803
    12  C   -0.309245
    13  C   -0.478199
    14  H    0.149362
    15  H    0.149069
    16  H    0.151296
    17  H    0.163327
    18  H    0.155270
    19  H    0.155667
    20  H    0.161353
    21  C   -0.298329
    22  C   -0.299641
    23  C   -0.475715
    24  H    0.149053
    25  H    0.149662
    26  H    0.151956
    27  H    0.152073
    28  H    0.155269
    29  H    0.155064
    30  H    0.160349
    31  C   -0.297629
    32  C   -0.301572
    33  C   -0.483191
    34  H    0.149519
    35  H    0.149831
    36  H    0.151912
    37  H    0.152847
    38  H    0.154833
    39  H    0.154879
    40  H    0.168909
 Sum of Mulliken charges =  -0.00000

 Dipole moment (field-independent basis, Debye):
    X=              0.0149    Y=             -0.0046    Z=              0.0082  Tot=              0.0176
 Quadrupole moment (field-independent basis, Debye-Ang):
   XX=            -84.3987   YY=            -87.0828   ZZ=            -83.4008
   XY=              0.0553   XZ=             -0.2726   YZ=             -0.7175

 Normal termination of Gaussian 16 at Thu May  6 02:23:39 2021.
