 Gaussian 16, Revision A.03,
 Gaussian 16:  EM64L-G16RevA.03 25-Dec-2016

 -------------
 #p 6-31g* mp2
 -------------

 ------------------------------------------------------
 Input file generated by CHIRIPA (05-May-2021 14:55:20)
 ------------------------------------------------------
 Symbolic Z-matrix:
 Charge =  0 Multiplicity = 1

                         Standard orientation:
 ---------------------------------------------------------------------
 Center     Atomic      Atomic             Coordinates (Angstroms)
 Number     Number       Type             X           Y           Z
 ---------------------------------------------------------------------
      1          6           0       -1.023271    0.238284    1.240486
      2          6           0       -1.553556   -1.056015    1.230032
      3          6           0       -2.793746   -1.310421    0.636942
      4          6           0       -3.479711   -0.242250    0.060962
      5          6           0       -2.977850    1.058286    0.055349
      6          6           0       -1.735854    1.289450    0.654145
      7          1           0       -0.059160    0.426885    1.703429
      8          1           0       -1.002374   -1.874294    1.684633
      9          1           0       -3.227635   -2.302723    0.614705
     10          1           0       -3.550683    1.853650   -0.405818
     11          1           0       -1.326476    2.295636    0.660781
     12          7           0       -4.793601   -0.499276   -0.569936
     13          8           0       -5.378191    0.458953   -1.070622
     14          8           0       -5.213958   -1.654095   -0.551801
     15          6           0        3.960898    0.977250   -0.083104
     16          6           0        2.472046    1.218213   -0.334587
     17          6           0        2.055279    2.666069   -0.074183
     18          1           0        4.199510    1.248025    0.954533
     19          1           0        4.547473    1.649622   -0.724384
     20          1           0        1.888469    0.544614    0.305973
     21          1           0        2.236912    0.946651   -1.371689
     22          1           0        2.611970    3.349853   -0.723132
     23          1           0        2.261547    2.945532    0.964064
     24          1           0        0.987189    2.816014   -0.260087
     25          6           0        4.392808   -0.465533   -0.339148
     26          6           0        5.881659   -0.706497   -0.087665
     27          6           0        6.298427   -2.154353   -0.348069
     28          1           0        3.806234   -1.137905    0.302133
     29          1           0        4.154195   -0.736309   -1.376785
     30          1           0        6.116793   -0.434935    0.949438
     31          1           0        6.465237   -0.032899   -0.728225
     32          1           0        6.092160   -2.433816   -1.386315
     33          1           0        5.741736   -2.838137    0.300881
     34          1           0        7.366518   -2.304297   -0.162164
 ---------------------------------------------------------------------

 SCF Done:  E(RHF) =  -669.534925029     A.U. after   15 cycles
 E2 =    -0.2092177134D+01 EUMP2 =    -0.67162710216270D+03

 The electronic state is 1-A.
 Alpha  occ. eigenvalues --  -20.60752 -20.60747 -15.85806 -11.31174 -11.27748
 Alpha  occ. eigenvalues --  -11.27741 -11.27468 -11.26758 -11.26738 -11.22582
 Alpha  occ. eigenvalues --  -11.22193 -11.22178 -11.22173 -11.22062 -11.21559
 Alpha  occ. eigenvalues --   -1.59828  -1.39381  -1.19349  -1.09211  -1.08741
 Alpha  occ. eigenvalues --   -1.04754  -1.04320  -0.96772  -0.95576  -0.87789
 Alpha  occ. eigenvalues --   -0.86148  -0.82416  -0.80387  -0.78990  -0.77457
 Alpha  occ. eigenvalues --   -0.72024  -0.71151  -0.70489  -0.65847  -0.65001
 Alpha  occ. eigenvalues --   -0.64784  -0.62131  -0.61722  -0.60139  -0.58361
 Alpha  occ. eigenvalues --   -0.56072  -0.55252  -0.53526  -0.53216  -0.53055
 Alpha  occ. eigenvalues --   -0.52766  -0.50702  -0.48812  -0.48779  -0.48655
 Alpha  occ. eigenvalues --   -0.47412  -0.46528  -0.46444  -0.44786  -0.44563
 Alpha  occ. eigenvalues --   -0.37298  -0.36353
 Alpha virt. eigenvalues --    0.05051   0.11209   0.16447   0.19523   0.22548
 Alpha virt. eigenvalues --    0.23997   0.25134   0.26049   0.26643   0.27705
 Alpha virt. eigenvalues --    0.29296   0.29342   0.30883   0.31737   0.32082

 Mulliken charges:
               1
     1  C   -0.169193
     2  C   -0.219780
     3  C   -0.170697
     4  C    0.158680
     5  C   -0.171337
     6  C   -0.221457
     7  H    0.227903
     8  H    0.223148
     9  H    0.275576
    10  H    0.275656
    11  H    0.226185
    12  N    0.488047
    13  O   -0.460443
    14  O   -0.460480
    15  C   -0.298852
    16  C   -0.301214
    17  C   -0.481305
    18  H    0.148907
    19  H    0.152743
    20  H    0.144068
    21  H    0.158265
    22  H    0.162204
    23  H    0.153826
    24  H    0.156296
    25  C   -0.298040
    26  C   -0.300187
    27  C   -0.476015
    28  H    0.146408
    29  H    0.152242
    30  H    0.151971
    31  H    0.153606
    32  H    0.156563
    33  H    0.154637
    34  H    0.162070
 Sum of Mulliken charges =  -0.00000

 Dipole moment (field-independent basis, Debye):
    X=              4.8010    Y=              0.9015    Z=              2.1368  Tot=              5.3319
 Quadrupole moment (field-independent basis, Debye-Ang):
   XX=           -127.1563   YY=            -91.4304   ZZ=            -94.0061
   XY=             -4.1680   XZ=             -7.8014   YZ=             -2.3194

 Normal termination of Gaussian 16 at Thu May  6 17:26:36 2021.
