 Gaussian 16, Revision A.03,
 Gaussian 16:  EM64L-G16RevA.03 25-Dec-2016

 -------------
 #p 6-31g* mp2
 -------------

 ------------------------------------------------------
 Input file generated by CHIRIPA (05-May-2021 14:53:13)
 ------------------------------------------------------
 Symbolic Z-matrix:
 Charge =  0 Multiplicity = 1

                         Standard orientation:
 ---------------------------------------------------------------------
 Center     Atomic      Atomic             Coordinates (Angstroms)
 Number     Number       Type             X           Y           Z
 ---------------------------------------------------------------------
      1          6           0        3.564939   -0.320675    0.133585
      2          6           0        4.477483   -0.834835   -0.980367
      3          6           0        4.815712   -2.318339   -0.829993
      4          1           0        4.050247   -0.491000    1.104363
      5          1           0        2.637733   -0.910289    0.139934
      6          1           0        5.402111   -0.243521   -0.985505
      7          1           0        3.990029   -0.663092   -1.948617
      8          1           0        3.904430   -2.924869   -0.846931
      9          1           0        5.324535   -2.502914    0.121654
     10          1           0        5.468990   -2.664950   -1.636807
     11          6           0        3.217880    1.160756   -0.002941
     12          6           0        2.305336    1.674916    1.111010
     13          6           0        1.967106    3.158420    0.960637
     14          1           0        4.145086    1.750370   -0.009290
     15          1           0        2.732572    1.331082   -0.973719
     16          1           0        2.792789    1.503173    2.079261
     17          1           0        1.380708    1.083603    1.116149
     18          1           0        1.458283    3.342995    0.008990
     19          1           0        2.878388    3.764950    0.977574
     20          1           0        1.313829    3.505031    1.767451
     21          6           0       -3.366825    1.912835   -0.961738
     22          6           0       -2.016028    1.664901   -0.696415
     23          6           0       -1.607177    0.426906   -0.191681
     24          6           0       -2.580194   -0.544807    0.037011
     25          6           0       -3.933592   -0.328113   -0.217248
     26          6           0       -4.319617    0.917290   -0.721731
     27          1           0       -3.675565    2.877416   -1.353730
     28          1           0       -1.273882    2.436188   -0.881842
     29          1           0       -0.568109    0.208205    0.022625
     30          1           0       -4.650274   -1.116628   -0.022237
     31          1           0       -5.369363    1.107033   -0.926851
     32          7           0       -2.159444   -1.859339    0.571217
     33          8           0       -3.036197   -2.698823    0.764111
     34          8           0       -0.960874   -2.025294    0.786918
 ---------------------------------------------------------------------

 SCF Done:  E(RHF) =  -669.535606731     A.U. after   15 cycles
 E2 =    -0.2091823829D+01 EUMP2 =    -0.67162743056033D+03

 The electronic state is 1-A.
 Alpha  occ. eigenvalues --  -20.60809 -20.60804 -15.85859 -11.31204 -11.27771
 Alpha  occ. eigenvalues --  -11.27758 -11.27510 -11.26788 -11.26772 -11.22037
 Alpha  occ. eigenvalues --  -11.21689 -11.21627 -11.21478 -11.21266 -11.20790
 Alpha  occ. eigenvalues --   -1.59881  -1.39436  -1.19376  -1.08774  -1.08565
 Alpha  occ. eigenvalues --   -1.04778  -1.03679  -0.96121  -0.95613  -0.87138
 Alpha  occ. eigenvalues --   -0.86177  -0.82445  -0.79768  -0.78306  -0.77495
 Alpha  occ. eigenvalues --   -0.72079  -0.71202  -0.70498  -0.65254  -0.65024
 Alpha  occ. eigenvalues --   -0.64769  -0.62179  -0.61033  -0.59515  -0.57706
 Alpha  occ. eigenvalues --   -0.55435  -0.55266  -0.53106  -0.52897  -0.52829
 Alpha  occ. eigenvalues --   -0.52524  -0.50060  -0.48835  -0.48833  -0.48058
 Alpha  occ. eigenvalues --   -0.46816  -0.45855  -0.45734  -0.44844  -0.43906
 Alpha  occ. eigenvalues --   -0.37356  -0.36376
 Alpha virt. eigenvalues --    0.05022   0.11256   0.16520   0.18691   0.23013
 Alpha virt. eigenvalues --    0.23786   0.25012   0.26024   0.27569   0.28403
 Alpha virt. eigenvalues --    0.29353   0.30940   0.31450   0.31671   0.32701

 Mulliken charges:
               1
     1  C   -0.302673
     2  C   -0.299450
     3  C   -0.476738
     4  H    0.151629
     5  H    0.159917
     6  H    0.150294
     7  H    0.150365
     8  H    0.161130
     9  H    0.155596
    10  H    0.159105
    11  C   -0.298448
    12  C   -0.305662
    13  C   -0.476591
    14  H    0.150786
    15  H    0.144485
    16  H    0.158579
    17  H    0.150763
    18  H    0.145693
    19  H    0.159487
    20  H    0.162143
    21  C   -0.170877
    22  C   -0.222857
    23  C   -0.179725
    24  C    0.159284
    25  C   -0.170391
    26  C   -0.218666
    27  H    0.225914
    28  H    0.226232
    29  H    0.285614
    30  H    0.275621
    31  H    0.223535
    32  N    0.487449
    33  O   -0.459948
    34  O   -0.461596
 Sum of Mulliken charges =  -0.00000

 Dipole moment (field-independent basis, Debye):
    X=             -1.4063    Y=              4.5413    Z=             -1.8018  Tot=              5.0841
 Quadrupole moment (field-independent basis, Debye-Ang):
   XX=            -81.6226   YY=           -100.9879   ZZ=            -95.3986
   XY=             -9.2065   XZ=              5.7627   YZ=              1.3836

 Normal termination of Gaussian 16 at Thu May  6 17:04:51 2021.
