 Gaussian 16, Revision A.03,
 Gaussian 16:  EM64L-G16RevA.03 25-Dec-2016

 -------------
 #p 6-31g* mp2
 -------------

 ------------------------------------------------------
 Input file generated by CHIRIPA (05-May-2021 14:55:25)
 ------------------------------------------------------
 Symbolic Z-matrix:
 Charge =  0 Multiplicity = 1

                         Standard orientation:
 ---------------------------------------------------------------------
 Center     Atomic      Atomic             Coordinates (Angstroms)
 Number     Number       Type             X           Y           Z
 ---------------------------------------------------------------------
      1          6           0        1.199164    1.936282    0.770900
      2          6           0        1.662319    0.954922    1.653476
      3          6           0        2.673532    0.071023    1.265250
      4          6           0        3.201464    0.197439   -0.018727
      5          6           0        2.761171    1.164683   -0.920875
      6          6           0        1.749098    2.037851   -0.511199
      7          1           0        0.413296    2.618748    1.080815
      8          1           0        1.237081    0.873710    2.649780
      9          1           0        3.050763   -0.697985    1.928379
     10          1           0        3.204543    1.221061   -1.907618
     11          1           0        1.391363    2.799016   -1.198730
     12          7           0        4.272444   -0.732625   -0.441079
     13          8           0        4.721112   -0.600502   -1.577687
     14          8           0        4.642932   -1.576122    0.372486
     15          6           0       -4.426335   -0.075226   -0.434485
     16          6           0       -5.809265   -0.273133    0.187064
     17          6           0       -6.907870    0.480692   -0.563007
     18          1           0       -4.189835    0.997464   -0.453154
     19          1           0       -4.451506   -0.408018   -1.481392
     20          1           0       -5.781128    0.058644    1.232889
     21          1           0       -6.042419   -1.345492    0.204430
     22          1           0       -6.964979    0.143876   -1.603149
     23          1           0       -6.702202    1.555991   -0.568846
     24          1           0       -7.888159    0.325279   -0.101768
     25          6           0       -3.317544   -0.822629    0.304229
     26          6           0       -1.934615   -0.624722   -0.317320
     27          6           0       -0.836010   -1.378547    0.432751
     28          1           0       -3.292373   -0.489838    1.351135
     29          1           0       -3.554045   -1.895319    0.322897
     30          1           0       -1.701460    0.447637   -0.334687
     31          1           0       -1.962752   -0.956499   -1.363145
     32          1           0       -1.041678   -2.453846    0.438590
     33          1           0       -0.778900   -1.041732    1.472893
     34          1           0        0.144279   -1.223134   -0.028487
 ---------------------------------------------------------------------

 SCF Done:  E(RHF) =  -669.534749331     A.U. after   15 cycles
 E2 =    -0.2093180878D+01 EUMP2 =    -0.67162793020973D+03

 The electronic state is 1-A.
 Alpha  occ. eigenvalues --  -20.60802 -20.60797 -15.85857 -11.31251 -11.27804
 Alpha  occ. eigenvalues --  -11.27767 -11.27539 -11.26838 -11.26797 -11.21947
 Alpha  occ. eigenvalues --  -11.21944 -11.21783 -11.21723 -11.21387 -11.21251
 Alpha  occ. eigenvalues --   -1.59878  -1.39430  -1.19418  -1.08828  -1.08768
 Alpha  occ. eigenvalues --   -1.04816  -1.03846  -0.96289  -0.95637  -0.87310
 Alpha  occ. eigenvalues --   -0.86210  -0.82464  -0.79918  -0.78609  -0.77510
 Alpha  occ. eigenvalues --   -0.72072  -0.71204  -0.70513  -0.65434  -0.65062
 Alpha  occ. eigenvalues --   -0.64815  -0.62160  -0.61269  -0.59690  -0.57925
 Alpha  occ. eigenvalues --   -0.55642  -0.55314  -0.53533  -0.52912  -0.52760
 Alpha  occ. eigenvalues --   -0.52404  -0.50231  -0.48834  -0.48826  -0.48230
 Alpha  occ. eigenvalues --   -0.46973  -0.46147  -0.46089  -0.44829  -0.44102
 Alpha  occ. eigenvalues --   -0.37376  -0.36344
 Alpha virt. eigenvalues --    0.05005   0.11180   0.16440   0.20892   0.22635
 Alpha virt. eigenvalues --    0.24043   0.26164   0.26406   0.27259   0.28004
 Alpha virt. eigenvalues --    0.28348   0.30327   0.31234   0.31578   0.31809

 Mulliken charges:
               1
     1  C   -0.170144
     2  C   -0.212755
     3  C   -0.172206
     4  C    0.158551
     5  C   -0.172191
     6  C   -0.218034
     7  H    0.225482
     8  H    0.223235
     9  H    0.275998
    10  H    0.275899
    11  H    0.223918
    12  N    0.487979
    13  O   -0.460273
    14  O   -0.459950
    15  C   -0.297758
    16  C   -0.299689
    17  C   -0.475747
    18  H    0.146266
    19  H    0.150946
    20  H    0.151003
    21  H    0.153382
    22  H    0.156065
    23  H    0.154125
    24  H    0.161185
    25  C   -0.298165
    26  C   -0.299683
    27  C   -0.473988
    28  H    0.146284
    29  H    0.151914
    30  H    0.145113
    31  H    0.153910
    32  H    0.155830
    33  H    0.146121
    34  H    0.167376
 Sum of Mulliken charges =  -0.00000

 Dipole moment (field-independent basis, Debye):
    X=             -3.7263    Y=              3.2586    Z=              1.4713  Tot=              5.1642
 Quadrupole moment (field-independent basis, Debye-Ang):
   XX=           -120.4608   YY=            -92.5781   ZZ=            -90.8091
   XY=             10.5595   XZ=              4.5162   YZ=             -1.3074

 Normal termination of Gaussian 16 at Thu May  6 07:58:24 2021.
