 Gaussian 16, Revision A.03,
 Gaussian 16:  EM64L-G16RevA.03 25-Dec-2016

 -------------
 #p 6-31g* mp2
 -------------

 ------------------------------------------------------
 Input file generated by CHIRIPA (05-May-2021 14:51:12)
 ------------------------------------------------------
 Symbolic Z-matrix:
 Charge =  0 Multiplicity = 1

                         Standard orientation:
 ---------------------------------------------------------------------
 Center     Atomic      Atomic             Coordinates (Angstroms)
 Number     Number       Type             X           Y           Z
 ---------------------------------------------------------------------
      1          6           0       -4.052350    0.702072   -0.331132
      2          6           0       -4.163022    1.959379    0.531952
      3          6           0       -4.861334    3.112290   -0.189818
      4          1           0       -3.505523    0.944554   -1.252613
      5          1           0       -5.059119    0.387171   -0.638782
      6          1           0       -3.156443    2.271019    0.839028
      7          1           0       -4.709482    1.713830    1.451574
      8          1           0       -5.876588    2.825238   -0.482156
      9          1           0       -4.314726    3.385592   -1.098182
     10          1           0       -4.929650    4.000973    0.445348
     11          6           0       -3.356549   -0.459260    0.376610
     12          6           0       -3.245876   -1.716568   -0.486474
     13          6           0       -2.547564   -2.869478    0.235296
     14          1           0       -2.349780   -0.144360    0.684261
     15          1           0       -3.903375   -0.701742    1.298092
     16          1           0       -2.699417   -1.471018   -1.406095
     17          1           0       -4.252455   -2.028207   -0.793550
     18          1           0       -3.094173   -3.142781    1.143660
     19          1           0       -1.532310   -2.582426    0.527635
     20          1           0       -2.479249   -3.758161   -0.399869
     21          6           0        4.101661    0.438111   -0.358293
     22          6           0        5.230677    0.987656    0.514237
     23          6           0        6.016177    2.106360   -0.170809
     24          1           0        4.523823    0.066801   -1.302143
     25          1           0        3.419355    1.257995   -0.622194
     26          1           0        5.909893    0.166715    0.777558
     27          1           0        4.805802    1.357525    1.456199
     28          1           0        5.356504    2.944140   -0.418916
     29          1           0        6.466870    1.746564   -1.101413
     30          1           0        6.818330    2.484578    0.470567
     31          6           0        3.307238   -0.680923    0.312814
     32          6           0        2.178221   -1.230468   -0.559715
     33          6           0        1.392721   -2.349171    0.125330
     34          1           0        3.989544   -1.500806    0.576715
     35          1           0        2.885076   -0.309613    1.256664
     36          1           0        2.603097   -1.600337   -1.501677
     37          1           0        1.499005   -0.409528   -0.823037
     38          1           0        0.942029   -1.989376    1.055935
     39          1           0        2.052394   -3.186952    0.373438
     40          1           0        0.590569   -2.727389   -0.516046
 ---------------------------------------------------------------------

 SCF Done:  E(RHF) =  -470.732726354     A.U. after   11 cycles
 E2 =    -0.1582733445D+01 EUMP2 =    -0.47231545979935D+03

 The electronic state is 1-A.
 Alpha  occ. eigenvalues --  -11.21654 -11.21627 -11.21602 -11.21551 -11.21441
 Alpha  occ. eigenvalues --  -11.21390 -11.21381 -11.21330 -11.21100 -11.21092
 Alpha  occ. eigenvalues --  -11.21073 -11.20905  -1.08470  -1.08406  -1.03584
 Alpha  occ. eigenvalues --   -1.03483  -0.96061  -0.95907  -0.87107  -0.86898
 Alpha  occ. eigenvalues --   -0.79684  -0.79514  -0.78282  -0.78219  -0.65122
 Alpha  occ. eigenvalues --   -0.65025  -0.61076  -0.60843  -0.59391  -0.59310
 Alpha  occ. eigenvalues --   -0.57638  -0.57553  -0.55454  -0.55118  -0.52813
 Alpha  occ. eigenvalues --   -0.52607  -0.52438  -0.52296  -0.50090  -0.49719
 Alpha  occ. eigenvalues --   -0.47948  -0.47867  -0.46738  -0.46506  -0.45833
 Alpha  occ. eigenvalues --   -0.45762  -0.45741  -0.45666  -0.43796  -0.43735
 Alpha virt. eigenvalues --    0.21540   0.23139   0.23642   0.25186   0.26233
 Alpha virt. eigenvalues --    0.26860   0.27100   0.27548   0.27591   0.29092
 Alpha virt. eigenvalues --    0.30453   0.31365   0.31707   0.31873   0.31982

 Mulliken charges:
               1
     1  C   -0.298266
     2  C   -0.299577
     3  C   -0.475687
     4  H    0.149500
     5  H    0.149619
     6  H    0.151564
     7  H    0.151970
     8  H    0.155253
     9  H    0.155120
    10  H    0.160185
    11  C   -0.298225
    12  C   -0.299435
    13  C   -0.483889
    14  H    0.148943
    15  H    0.149665
    16  H    0.151212
    17  H    0.151691
    18  H    0.154247
    19  H    0.165918
    20  H    0.158786
    21  C   -0.298295
    22  C   -0.299681
    23  C   -0.475723
    24  H    0.149749
    25  H    0.149389
    26  H    0.152029
    27  H    0.151979
    28  H    0.155171
    29  H    0.155222
    30  H    0.160359
    31  C   -0.298637
    32  C   -0.299637
    33  C   -0.480830
    34  H    0.149804
    35  H    0.149749
    36  H    0.152243
    37  H    0.151349
    38  H    0.155345
    39  H    0.155955
    40  H    0.165868
 Sum of Mulliken charges =  -0.00000

 Dipole moment (field-independent basis, Debye):
    X=              0.0502    Y=             -0.0143    Z=              0.0040  Tot=              0.0524
 Quadrupole moment (field-independent basis, Debye-Ang):
   XX=            -84.3232   YY=            -85.7344   ZZ=            -84.8013
   XY=             -0.3668   XZ=             -0.5526   YZ=              0.8142

 Normal termination of Gaussian 16 at Wed May  5 21:31:58 2021.
