 Gaussian 16, Revision A.03,
 Gaussian 16:  EM64L-G16RevA.03 25-Dec-2016

 -------------
 #p 6-31g* mp2
 -------------

 ------------------------------------------------------
 Input file generated by CHIRIPA (05-May-2021 14:55:21)
 ------------------------------------------------------
 Symbolic Z-matrix:
 Charge =  0 Multiplicity = 1

                         Standard orientation:
 ---------------------------------------------------------------------
 Center     Atomic      Atomic             Coordinates (Angstroms)
 Number     Number       Type             X           Y           Z
 ---------------------------------------------------------------------
      1          6           0       -2.762652   -0.980464   -2.032411
      2          6           0       -2.986875    0.283898   -1.477764
      3          6           0       -2.506382    0.595066   -0.202285
      4          6           0       -1.802471   -0.386433    0.493746
      5          6           0       -1.562863   -1.655180   -0.031762
      6          6           0       -2.052614   -1.944269   -1.308915
      7          1           0       -3.139507   -1.213611   -3.023884
      8          1           0       -3.537975    1.034366   -2.037346
      9          1           0       -2.665664    1.565924    0.251016
     10          1           0       -1.010069   -2.382587    0.550232
     11          1           0       -1.876980   -2.927025   -1.737154
     12          7           0       -1.288894   -0.068701    1.844925
     13          8           0       -0.671644   -0.950877    2.437719
     14          8           0       -1.513328    1.056497    2.285601
     15          6           0        2.503589   -0.145623   -0.072325
     16          6           0        3.799541   -0.816393   -0.529009
     17          6           0        3.961429   -2.230830    0.028623
     18          1           0        2.482169   -0.113125    1.025596
     19          1           0        1.649785   -0.763368   -0.383462
     20          1           0        4.650582   -0.196867   -0.218312
     21          1           0        3.817965   -0.847125   -1.625974
     22          1           0        3.131628   -2.868789   -0.292374
     23          1           0        3.968976   -2.214837    1.123286
     24          1           0        4.894471   -2.691667   -0.310380
     25          6           0        2.327427    1.268950   -0.621578
     26          6           0        1.031474    1.939720   -0.164892
     27          6           0        0.869586    3.354157   -0.722525
     28          1           0        3.181230    1.886694   -0.310440
     29          1           0        2.348845    1.236452   -1.719498
     30          1           0        1.013050    1.970452    0.932073
     31          1           0        0.180433    1.320194   -0.475590
     32          1           0        0.862039    3.338163   -1.817189
     33          1           0        1.699386    3.992116   -0.401528
     34          1           0       -0.063455    3.814994   -0.383521
 ---------------------------------------------------------------------

 SCF Done:  E(RHF) =  -669.534452473     A.U. after   15 cycles
 E2 =    -0.2095700100D+01 EUMP2 =    -0.67163015257327D+03

 The electronic state is 1-A.
 Alpha  occ. eigenvalues --  -20.60866 -20.60858 -15.85870 -11.31227 -11.27834
 Alpha  occ. eigenvalues --  -11.27801 -11.27583 -11.26865 -11.26853 -11.21343
 Alpha  occ. eigenvalues --  -11.21079 -11.21020 -11.20959 -11.20851 -11.20822
 Alpha  occ. eigenvalues --   -1.59910  -1.39467  -1.19455  -1.08838  -1.08085
 Alpha  occ. eigenvalues --   -1.04856  -1.03221  -0.95691  -0.95661  -0.86711
 Alpha  occ. eigenvalues --   -0.86244  -0.82503  -0.79315  -0.77958  -0.77523
 Alpha  occ. eigenvalues --   -0.72115  -0.71192  -0.70547  -0.65097  -0.64851
 Alpha  occ. eigenvalues --   -0.64730  -0.62197  -0.60649  -0.59060  -0.57301
 Alpha  occ. eigenvalues --   -0.55346  -0.54984  -0.53276  -0.52932  -0.52384
 Alpha  occ. eigenvalues --   -0.52113  -0.49631  -0.48881  -0.48874  -0.47656
 Alpha  occ. eigenvalues --   -0.46324  -0.45437  -0.45334  -0.44767  -0.43459
 Alpha  occ. eigenvalues --   -0.37319  -0.36417
 Alpha virt. eigenvalues --    0.04932   0.11082   0.16451   0.21195   0.23213
 Alpha virt. eigenvalues --    0.24384   0.26656   0.27118   0.27411   0.27990
 Alpha virt. eigenvalues --    0.28802   0.30710   0.31390   0.31919   0.32218

 Mulliken charges:
               1
     1  C   -0.171206
     2  C   -0.216229
     3  C   -0.173856
     4  C    0.159488
     5  C   -0.171425
     6  C   -0.218919
     7  H    0.226049
     8  H    0.224192
     9  H    0.276202
    10  H    0.276470
    11  H    0.223951
    12  N    0.492364
    13  O   -0.459502
    14  O   -0.459731
    15  C   -0.303069
    16  C   -0.299302
    17  C   -0.474629
    18  H    0.160950
    19  H    0.143954
    20  H    0.152585
    21  H    0.148570
    22  H    0.149969
    23  H    0.160066
    24  H    0.158587
    25  C   -0.296052
    26  C   -0.315104
    27  C   -0.474490
    28  H    0.149564
    29  H    0.145052
    30  H    0.168236
    31  H    0.152413
    32  H    0.150238
    33  H    0.156727
    34  H    0.157885
 Sum of Mulliken charges =  -0.00000

 Dipole moment (field-independent basis, Debye):
    X=             -1.9006    Y=             -1.1331    Z=             -4.5697  Tot=              5.0773
 Quadrupole moment (field-independent basis, Debye-Ang):
   XX=            -87.9844   YY=            -90.9160   ZZ=            -99.5667
   XY=              1.2374   XZ=              8.7662   YZ=              1.7924

 Normal termination of Gaussian 16 at Thu May  6 10:55:29 2021.
