 Gaussian 16, Revision A.03,
 Gaussian 16:  EM64L-G16RevA.03 25-Dec-2016

 -------------
 #p 6-31g* mp2
 -------------

 ------------------------------------------------------
 Input file generated by CHIRIPA (05-May-2021 14:55:21)
 ------------------------------------------------------
 Symbolic Z-matrix:
 Charge =  0 Multiplicity = 1

                         Standard orientation:
 ---------------------------------------------------------------------
 Center     Atomic      Atomic             Coordinates (Angstroms)
 Number     Number       Type             X           Y           Z
 ---------------------------------------------------------------------
      1          6           0       -1.319934   -2.582451    0.276300
      2          6           0       -2.718441   -2.602999    0.259624
      3          6           0       -3.444139   -1.418137    0.104664
      4          6           0       -2.735874   -0.225207   -0.031605
      5          6           0       -1.342922   -0.172138   -0.018985
      6          6           0       -0.637841   -1.369225    0.137188
      7          1           0       -0.764202   -3.507629    0.397148
      8          1           0       -3.250816   -3.543741    0.367445
      9          1           0       -4.527182   -1.405281    0.088229
     10          1           0       -0.840174    0.781076   -0.128739
     11          1           0        0.448219   -1.350253    0.149769
     12          7           0       -3.493225    1.035624   -0.196297
     13          8           0       -2.845646    2.073565   -0.314432
     14          8           0       -4.720076    0.962049   -0.204128
     15          6           0        3.326439    1.306110    0.139471
     16          6           0        1.920250    1.903546    0.078759
     17          6           0        1.905194    3.408481    0.348459
     18          1           0        3.761010    1.507233    1.128229
     19          1           0        3.966382    1.817253   -0.593059
     20          1           0        1.282791    1.390486    0.810218
     21          1           0        1.488901    1.700810   -0.909903
     22          1           0        2.518152    3.938001   -0.388082
     23          1           0        2.310870    3.625913    1.341813
     24          1           0        0.890119    3.814866    0.300144
     25          6           0        3.357857   -0.197611   -0.128047
     26          6           0        4.764048   -0.795046   -0.067336
     27          6           0        4.779102   -2.299981   -0.337035
     28          1           0        2.717914   -0.708753    0.604482
     29          1           0        2.923287   -0.398734   -1.116805
     30          1           0        5.195394   -0.592310    0.921327
     31          1           0        5.401505   -0.281986   -0.798794
     32          1           0        4.373426   -2.517413   -1.330389
     33          1           0        4.166144   -2.829502    0.399506
     34          1           0        5.794177   -2.706366   -0.288721
 ---------------------------------------------------------------------

 SCF Done:  E(RHF) =  -669.535104088     A.U. after   15 cycles
 E2 =    -0.2093130196D+01 EUMP2 =    -0.67162823428382D+03

 The electronic state is 1-A.
 Alpha  occ. eigenvalues --  -20.60682 -20.60676 -15.85729 -11.31033 -11.27627
 Alpha  occ. eigenvalues --  -11.27516 -11.27352 -11.26639 -11.26532 -11.22411
 Alpha  occ. eigenvalues --  -11.22352 -11.22348 -11.22100 -11.21844 -11.21343
 Alpha  occ. eigenvalues --   -1.59756  -1.39311  -1.19210  -1.09241  -1.08620
 Alpha  occ. eigenvalues --   -1.04610  -1.04216  -0.96643  -0.95463  -0.87653
 Alpha  occ. eigenvalues --   -0.86007  -0.82311  -0.80338  -0.79172  -0.77302
 Alpha  occ. eigenvalues --   -0.71952  -0.71077  -0.70329  -0.65871  -0.64860
 Alpha  occ. eigenvalues --   -0.64623  -0.61989  -0.61597  -0.59992  -0.58277
 Alpha  occ. eigenvalues --   -0.55929  -0.55125  -0.53275  -0.53133  -0.52945
 Alpha  occ. eigenvalues --   -0.52623  -0.50572  -0.48747  -0.48710  -0.48538
 Alpha  occ. eigenvalues --   -0.47355  -0.46566  -0.46540  -0.44728  -0.44487
 Alpha  occ. eigenvalues --   -0.37204  -0.36200
 Alpha virt. eigenvalues --    0.05150   0.11419   0.16606   0.20343   0.22592
 Alpha virt. eigenvalues --    0.23318   0.24959   0.25825   0.26519   0.28375
 Alpha virt. eigenvalues --    0.29544   0.30670   0.30923   0.31491   0.32141

 Mulliken charges:
               1
     1  C   -0.172770
     2  C   -0.218928
     3  C   -0.170731
     4  C    0.159162
     5  C   -0.182886
     6  C   -0.230272
     7  H    0.225442
     8  H    0.222725
     9  H    0.274934
    10  H    0.287643
    11  H    0.236229
    12  N    0.487832
    13  O   -0.461342
    14  O   -0.460849
    15  C   -0.296338
    16  C   -0.311112
    17  C   -0.478396
    18  H    0.153042
    19  H    0.154178
    20  H    0.148519
    21  H    0.152950
    22  H    0.157442
    23  H    0.156567
    24  H    0.172726
    25  C   -0.306560
    26  C   -0.298771
    27  C   -0.476790
    28  H    0.144004
    29  H    0.150304
    30  H    0.154807
    31  H    0.155967
    32  H    0.155582
    33  H    0.151517
    34  H    0.164173
 Sum of Mulliken charges =  -0.00000

 Dipole moment (field-independent basis, Debye):
    X=              2.9340    Y=             -4.2448    Z=              0.5588  Tot=              5.1903
 Quadrupole moment (field-independent basis, Debye-Ang):
   XX=           -105.0483   YY=            -92.4451   ZZ=            -94.7055
   XY=             14.5921   XZ=             -2.0941   YZ=             -0.4685

 Normal termination of Gaussian 16 at Thu May  6 07:47:36 2021.
