 Gaussian 16, Revision A.03,
 Gaussian 16:  EM64L-G16RevA.03 25-Dec-2016

 -------------
 #p 6-31g* mp2
 -------------

 ------------------------------------------------------
 Input file generated by CHIRIPA (05-May-2021 14:53:15)
 ------------------------------------------------------
 Symbolic Z-matrix:
 Charge =  0 Multiplicity = 1

                         Standard orientation:
 ---------------------------------------------------------------------
 Center     Atomic      Atomic             Coordinates (Angstroms)
 Number     Number       Type             X           Y           Z
 ---------------------------------------------------------------------
      1          6           0       -4.075188   -0.578449   -0.520170
      2          6           0       -2.832459   -0.706558    0.361417
      3          6           0       -1.693580   -1.458551   -0.327971
      4          1           0       -4.417767   -1.581807   -0.808021
      5          1           0       -3.804045   -0.061682   -1.451206
      6          1           0       -3.106164   -1.221701    1.291110
      7          1           0       -2.492911    0.297215    0.647360
      8          1           0       -1.392268   -0.943842   -1.246060
      9          1           0       -2.009005   -2.471388   -0.598652
     10          1           0       -0.815190   -1.538564    0.320017
     11          6           0       -5.222394    0.170944    0.155150
     12          6           0       -6.465124    0.299052   -0.726437
     13          6           0       -7.604002    1.051045   -0.037049
     14          1           0       -5.493538   -0.345824    1.086186
     15          1           0       -4.879815    1.174301    0.443001
     16          1           0       -6.804672   -0.704721   -1.012380
     17          1           0       -6.191419    0.814195   -1.656130
     18          1           0       -7.288577    2.063882    0.233632
     19          1           0       -7.905315    0.536336    0.881040
     20          1           0       -8.482393    1.131058   -0.685036
     21          6           0        1.348435    0.084773    1.213247
     22          6           0        1.923630    1.314339    0.875847
     23          6           0        3.188269    1.367547    0.282209
     24          6           0        3.852622    0.166376    0.039078
     25          6           0        3.306059   -1.074255    0.363724
     26          6           0        2.040265   -1.103505    0.956561
     27          1           0        0.365583    0.052746    1.674088
     28          1           0        1.388651    2.238767    1.074025
     29          1           0        3.656967    2.305684    0.010845
     30          1           0        3.863654   -1.978949    0.153879
     31          1           0        1.596013   -2.059843    1.217526
     32          7           0        5.192050    0.210022   -0.588955
     33          8           0        5.756830   -0.862413   -0.792778
     34          8           0        5.651753    1.315843   -0.865494
 ---------------------------------------------------------------------

 SCF Done:  E(RHF) =  -669.534325631     A.U. after   15 cycles
 E2 =    -0.2092232189D+01 EUMP2 =    -0.67162655782078D+03

 The electronic state is 1-A.
 Alpha  occ. eigenvalues --  -20.60746 -20.60740 -15.85800 -11.31164 -11.27747
 Alpha  occ. eigenvalues --  -11.27740 -11.27463 -11.26749 -11.26739 -11.22572
 Alpha  occ. eigenvalues --  -11.22118 -11.22099 -11.21985 -11.21983 -11.21502
 Alpha  occ. eigenvalues --   -1.59821  -1.39375  -1.19346  -1.09136  -1.08743
 Alpha  occ. eigenvalues --   -1.04753  -1.04245  -0.96691  -0.95571  -0.87702
 Alpha  occ. eigenvalues --   -0.86152  -0.82407  -0.80322  -0.78921  -0.77453
 Alpha  occ. eigenvalues --   -0.72020  -0.71145  -0.70497  -0.65756  -0.65012
 Alpha  occ. eigenvalues --   -0.64789  -0.62118  -0.61630  -0.60092  -0.58316
 Alpha  occ. eigenvalues --   -0.55951  -0.55229  -0.53545  -0.53150  -0.52883
 Alpha  occ. eigenvalues --   -0.52790  -0.50595  -0.48779  -0.48774  -0.48630
 Alpha  occ. eigenvalues --   -0.47350  -0.46466  -0.46368  -0.44781  -0.44502
 Alpha  occ. eigenvalues --   -0.37270  -0.36346
 Alpha virt. eigenvalues --    0.05071   0.11201   0.16510   0.20090   0.22461
 Alpha virt. eigenvalues --    0.24014   0.25734   0.26281   0.26449   0.27402
 Alpha virt. eigenvalues --    0.29069   0.29958   0.30800   0.31348   0.31856

 Mulliken charges:
               1
     1  C   -0.298716
     2  C   -0.301940
     3  C   -0.477330
     4  H    0.152190
     5  H    0.151851
     6  H    0.151922
     7  H    0.146150
     8  H    0.161383
     9  H    0.158449
    10  H    0.151387
    11  C   -0.298640
    12  C   -0.300234
    13  C   -0.476034
    14  H    0.149908
    15  H    0.148924
    16  H    0.153062
    17  H    0.152993
    18  H    0.155274
    19  H    0.155554
    20  H    0.161973
    21  C   -0.169640
    22  C   -0.220612
    23  C   -0.170804
    24  C    0.158046
    25  C   -0.171516
    26  C   -0.217914
    27  H    0.229251
    28  H    0.223150
    29  H    0.275513
    30  H    0.275691
    31  H    0.223592
    32  N    0.488137
    33  O   -0.460444
    34  O   -0.460578
 Sum of Mulliken charges =  -0.00000

 Dipole moment (field-independent basis, Debye):
    X=             -4.8734    Y=             -0.1585    Z=              2.1334  Tot=              5.3223
 Quadrupole moment (field-independent basis, Debye-Ang):
   XX=           -131.8938   YY=            -89.2853   ZZ=            -95.4103
   XY=             -0.8481   XZ=              8.7952   YZ=             -0.2943

 Normal termination of Gaussian 16 at Thu May  6 05:52:08 2021.
