 Gaussian 16, Revision A.03,
 Gaussian 16:  EM64L-G16RevA.03 25-Dec-2016

 -------------
 #p 6-31g* mp2
 -------------

 ------------------------------------------------------
 Input file generated by CHIRIPA (05-May-2021 14:57:21)
 ------------------------------------------------------
 Symbolic Z-matrix:
 Charge =  0 Multiplicity = 1

                         Standard orientation:
 ---------------------------------------------------------------------
 Center     Atomic      Atomic             Coordinates (Angstroms)
 Number     Number       Type             X           Y           Z
 ---------------------------------------------------------------------
      1          6           0       -6.477180   -1.219754   -0.051538
      2          6           0       -6.215213   -0.209851   -0.983198
      3          6           0       -5.025020    0.521084   -0.922196
      4          6           0       -4.114899    0.214261    0.088165
      5          6           0       -4.347074   -0.785989    1.030972
      6          6           0       -5.543920   -1.504099    0.950806
      7          1           0       -7.404335   -1.782581   -0.106369
      8          1           0       -6.938173    0.013150   -1.762714
      9          1           0       -4.796776    1.308160   -1.630599
     10          1           0       -3.607183   -0.985363    1.796629
     11          1           0       -5.744700   -2.287854    1.675693
     12          7           0       -2.851373    0.981280    0.162888
     13          8           0       -2.065773    0.691614    1.062645
     14          8           0       -2.670547    1.857612   -0.679715
     15          6           0        1.865376    0.465000   -0.216081
     16          6           0        2.760464    1.388922    0.333198
     17          6           0        4.124388    1.093273    0.415956
     18          6           0        4.560751   -0.141293   -0.062293
     19          6           0        3.693749   -1.082684   -0.614906
     20          6           0        2.334050   -0.765685   -0.687548
     21          1           0        0.807487    0.702960   -0.276439
     22          1           0        2.399314    2.345465    0.700134
     23          1           0        4.839213    1.790133    0.836466
     24          1           0        4.083569   -2.028021   -0.972389
     25          1           0        1.641206   -1.485144   -1.114621
     26          7           0        6.002440   -0.465585    0.019966
     27          8           0        6.361709   -1.560157   -0.408376
     28          8           0        6.745870    0.380947    0.511222
 ---------------------------------------------------------------------

 SCF Done:  E(RHF) =  -868.340746402     A.U. after   16 cycles
 E2 =    -0.2598109253D+01 EUMP2 =    -0.87093885565480D+03

 The electronic state is 1-A.
 Alpha  occ. eigenvalues --  -20.61991 -20.61985 -20.60037 -20.60030 -15.86989
 Alpha  occ. eigenvalues --  -15.85086 -11.32034 -11.30230 -11.28560 -11.28555
 Alpha  occ. eigenvalues --  -11.28235 -11.27494 -11.27484 -11.26834 -11.26788
 Alpha  occ. eigenvalues --  -11.26252 -11.25722 -11.25631  -1.61053  -1.59119
 Alpha  occ. eigenvalues --   -1.40607  -1.38679  -1.20174  -1.18374  -1.09630
 Alpha  occ. eigenvalues --   -1.07757  -1.05523  -1.03763  -0.96516  -0.94633
 Alpha  occ. eigenvalues --   -0.86935  -0.85142  -0.83354  -0.81495  -0.78441
 Alpha  occ. eigenvalues --   -0.76618  -0.73209  -0.72355  -0.71307  -0.71270
 Alpha  occ. eigenvalues --   -0.70442  -0.69336  -0.65824  -0.65517  -0.64003
 Alpha  occ. eigenvalues --   -0.63746  -0.62870  -0.61133  -0.56033  -0.54081
 Alpha  occ. eigenvalues --   -0.53866  -0.53605  -0.52088  -0.51837  -0.49985
 Alpha  occ. eigenvalues --   -0.49955  -0.48075  -0.48042  -0.46076  -0.44135
 Alpha  occ. eigenvalues --   -0.38134  -0.37112  -0.36261  -0.35396
 Alpha virt. eigenvalues --    0.04035   0.05938   0.10548   0.12282   0.15602
 Alpha virt. eigenvalues --    0.17511   0.20741   0.22635   0.26678   0.27603
 Alpha virt. eigenvalues --    0.28295   0.29622   0.30387   0.31803   0.32359

 Mulliken charges:
               1
     1  C   -0.169525
     2  C   -0.218608
     3  C   -0.170563
     4  C    0.157137
     5  C   -0.170959
     6  C   -0.218606
     7  H    0.228566
     8  H    0.226032
     9  H    0.276444
    10  H    0.276239
    11  H    0.226118
    12  N    0.487698
    13  O   -0.465474
    14  O   -0.460442
    15  C   -0.174280
    16  C   -0.220945
    17  C   -0.172088
    18  C    0.156657
    19  C   -0.172046
    20  C   -0.220905
    21  H    0.247695
    22  H    0.226498
    23  H    0.272639
    24  H    0.271497
    25  H    0.219382
    26  N    0.488363
    27  O   -0.463740
    28  O   -0.462784
 Sum of Mulliken charges =  -0.00000

 Dipole moment (field-independent basis, Debye):
    X=            -10.2048    Y=             -1.4955    Z=             -0.5366  Tot=             10.3277
 Quadrupole moment (field-independent basis, Debye-Ang):
   XX=           -115.3281   YY=           -101.5842   ZZ=           -101.7543
   XY=             16.9825   XZ=              1.5975   YZ=             -0.7703

 Normal termination of Gaussian 16 at Thu May  6 16:07:42 2021.
