 Gaussian 16, Revision A.03,
 Gaussian 16:  EM64L-G16RevA.03 25-Dec-2016

 -------------
 #p 6-31g* mp2
 -------------

 ------------------------------------------------------
 Input file generated by CHIRIPA (05-May-2021 14:55:23)
 ------------------------------------------------------
 Symbolic Z-matrix:
 Charge =  0 Multiplicity = 1

                         Standard orientation:
 ---------------------------------------------------------------------
 Center     Atomic      Atomic             Coordinates (Angstroms)
 Number     Number       Type             X           Y           Z
 ---------------------------------------------------------------------
      1          6           0        0.656754    0.314949    1.877532
      2          6           0        1.705188    1.216463    1.666391
      3          6           0        2.745281    0.902425    0.786542
      4          6           0        2.704965   -0.327481    0.131564
      5          6           0        1.674223   -1.246736    0.320860
      6          6           0        0.644639   -0.911610    1.205278
      7          1           0       -0.147133    0.567092    2.562795
      8          1           0        1.717209    2.169751    2.187103
      9          1           0        3.569155    1.581768    0.604492
     10          1           0        1.689768   -2.189367   -0.212641
     11          1           0       -0.168309   -1.613685    1.367304
     12          7           0        3.800502   -0.671101   -0.802312
     13          8           0        3.741742   -1.761112   -1.367166
     14          8           0        4.697200    0.156086   -0.951745
     15          6           0       -3.309645   -0.337231   -0.034440
     16          6           0       -4.579585   -1.074842   -0.460078
     17          6           0       -4.722317   -2.441499    0.210497
     18          1           0       -2.435197   -0.957756   -0.273680
     19          1           0       -3.314996   -0.212273    1.057234
     20          1           0       -4.572499   -1.197148   -1.550770
     21          1           0       -5.451099   -0.452407   -0.219973
     22          1           0       -4.754977   -2.334696    1.299592
     23          1           0       -3.871385   -3.083669   -0.038767
     24          1           0       -5.636894   -2.951390   -0.107966
     25          6           0       -3.152837    1.030603   -0.696383
     26          6           0       -1.882897    1.768214   -0.270744
     27          6           0       -1.740165    3.134870   -0.941320
     28          1           0       -3.147486    0.905645   -1.788057
     29          1           0       -4.027285    1.651128   -0.457143
     30          1           0       -1.011383    1.145779   -0.510850
     31          1           0       -1.889983    1.890520    0.819947
     32          1           0       -2.591097    3.777041   -0.692056
     33          1           0       -1.707505    3.028068   -2.030415
     34          1           0       -0.825588    3.644762   -0.622857
 ---------------------------------------------------------------------

 SCF Done:  E(RHF) =  -669.534765645     A.U. after   15 cycles
 E2 =    -0.2093392270D+01 EUMP2 =    -0.67162815791465D+03

 The electronic state is 1-A.
 Alpha  occ. eigenvalues --  -20.60770 -20.60765 -15.85826 -11.31184 -11.27783
 Alpha  occ. eigenvalues --  -11.27779 -11.27490 -11.26756 -11.26729 -11.22219
 Alpha  occ. eigenvalues --  -11.22143 -11.22078 -11.21929 -11.21699 -11.21515
 Alpha  occ. eigenvalues --   -1.59847  -1.39400  -1.19375  -1.09066  -1.08749
 Alpha  occ. eigenvalues --   -1.04775  -1.04098  -0.96559  -0.95596  -0.87571
 Alpha  occ. eigenvalues --   -0.86166  -0.82430  -0.80172  -0.78905  -0.77471
 Alpha  occ. eigenvalues --   -0.72043  -0.71172  -0.70477  -0.65683  -0.65019
 Alpha  occ. eigenvalues --   -0.64766  -0.62122  -0.61490  -0.59943  -0.58182
 Alpha  occ. eigenvalues --   -0.55848  -0.55272  -0.53343  -0.53087  -0.52967
 Alpha  occ. eigenvalues --   -0.52832  -0.50494  -0.48805  -0.48798  -0.48469
 Alpha  occ. eigenvalues --   -0.47195  -0.46421  -0.46330  -0.44808  -0.44372
 Alpha  occ. eigenvalues --   -0.37230  -0.36377
 Alpha virt. eigenvalues --    0.05052   0.11157   0.16467   0.20191   0.22786
 Alpha virt. eigenvalues --    0.23398   0.25104   0.25936   0.27273   0.28057
 Alpha virt. eigenvalues --    0.29316   0.30289   0.31088   0.31367   0.31840

 Mulliken charges:
               1
     1  C   -0.164555
     2  C   -0.219700
     3  C   -0.170618
     4  C    0.157936
     5  C   -0.172354
     6  C   -0.220148
     7  H    0.226049
     8  H    0.223327
     9  H    0.275699
    10  H    0.275496
    11  H    0.225690
    12  N    0.488176
    13  O   -0.460669
    14  O   -0.460513
    15  C   -0.299876
    16  C   -0.299743
    17  C   -0.476216
    18  H    0.147653
    19  H    0.142564
    20  H    0.155147
    21  H    0.153860
    22  H    0.153491
    23  H    0.153335
    24  H    0.163690
    25  C   -0.298281
    26  C   -0.302456
    27  C   -0.475597
    28  H    0.152913
    29  H    0.150351
    30  H    0.162835
    31  H    0.140398
    32  H    0.154802
    33  H    0.158539
    34  H    0.158776
 Sum of Mulliken charges =  -0.00000

 Dipole moment (field-independent basis, Debye):
    X=             -3.9107    Y=              1.2207    Z=              3.2150  Tot=              5.2077
 Quadrupole moment (field-independent basis, Debye-Ang):
   XX=           -114.9716   YY=            -92.7741   ZZ=            -93.9071
   XY=              6.4702   XZ=              8.9480   YZ=              0.7546

 Normal termination of Gaussian 16 at Wed May  5 17:34:23 2021.
