 Gaussian 16, Revision A.03,
 Gaussian 16:  EM64L-G16RevA.03 25-Dec-2016

 -------------
 #p 6-31g* mp2
 -------------

 ------------------------------------------------------
 Input file generated by CHIRIPA (05-May-2021 14:57:26)
 ------------------------------------------------------
 Symbolic Z-matrix:
 Charge =  0 Multiplicity = 1

                         Standard orientation:
 ---------------------------------------------------------------------
 Center     Atomic      Atomic             Coordinates (Angstroms)
 Number     Number       Type             X           Y           Z
 ---------------------------------------------------------------------
      1          6           0        5.877569    0.377109    0.866456
      2          6           0        5.524600   -0.961589    0.666905
      3          6           0        4.262947   -1.296138    0.166050
      4          6           0        3.374940   -0.261965   -0.125874
      5          6           0        3.697095    1.081237    0.062048
      6          6           0        4.964301    1.392460    0.563924
      7          1           0        6.859808    0.627935    1.255928
      8          1           0        6.231830   -1.752209    0.900977
      9          1           0        3.963645   -2.324199    0.001952
     10          1           0        2.970745    1.847385   -0.180540
     11          1           0        5.235692    2.432982    0.717890
     12          7           0        2.036345   -0.603790   -0.656647
     13          8           0        1.272034    0.325876   -0.906020
     14          8           0        1.776812   -1.794906   -0.813244
     15          6           0       -4.898951   -1.875127    0.619383
     16          6           0       -3.851151   -1.940750   -0.304917
     17          6           0       -3.122160   -0.794206   -0.634394
     18          6           0       -3.469549    0.406788   -0.017771
     19          6           0       -4.508135    0.504348    0.906952
     20          6           0       -5.223527   -0.654938    1.221306
     21          1           0       -5.459967   -2.770740    0.869455
     22          1           0       -3.596861   -2.887005   -0.773942
     23          1           0       -2.306256   -0.816618   -1.346585
     24          1           0       -4.738227    1.461957    1.358018
     25          1           0       -6.036766   -0.600998    1.939482
     26          7           0       -2.704998    1.627327   -0.358569
     27          8           0       -3.030800    2.673301    0.198593
     28          8           0       -1.794416    1.514902   -1.176395
 ---------------------------------------------------------------------

 SCF Done:  E(RHF) =  -868.337311042     A.U. after   16 cycles
 E2 =    -0.2599682865D+01 EUMP2 =    -0.87093699390731D+03

 The electronic state is 1-A.
 Alpha  occ. eigenvalues --  -20.60411 -20.60299 -20.59663 -20.59521 -15.85383
 Alpha  occ. eigenvalues --  -15.84631 -11.30834 -11.30136 -11.27454 -11.27364
 Alpha  occ. eigenvalues --  -11.27195 -11.26811 -11.26617 -11.26574 -11.26481
 Alpha  occ. eigenvalues --  -11.26426 -11.25863 -11.25747  -1.59441  -1.58672
 Alpha  occ. eigenvalues --   -1.38982  -1.38210  -1.19023  -1.18345  -1.08410
 Alpha  occ. eigenvalues --   -1.07731  -1.04434  -1.03760  -0.95226  -0.94529
 Alpha  occ. eigenvalues --   -0.85829  -0.85156  -0.82048  -0.81345  -0.77082
 Alpha  occ. eigenvalues --   -0.76356  -0.71620  -0.70821  -0.70764  -0.70133
 Alpha  occ. eigenvalues --   -0.69986  -0.69460  -0.64669  -0.64441  -0.63992
 Alpha  occ. eigenvalues --   -0.63776  -0.61773  -0.61086  -0.54946  -0.54300
 Alpha  occ. eigenvalues --   -0.52767  -0.52525  -0.52102  -0.51852  -0.48420
 Alpha  occ. eigenvalues --   -0.48365  -0.47657  -0.47571  -0.44383  -0.43545
 Alpha  occ. eigenvalues --   -0.37019  -0.36368  -0.36043  -0.35371
 Alpha virt. eigenvalues --    0.05439   0.06169   0.11609   0.12277   0.16913
 Alpha virt. eigenvalues --    0.17604   0.21738   0.22363   0.27648   0.28279
 Alpha virt. eigenvalues --    0.28656   0.29317   0.31279   0.31868   0.32944

 Mulliken charges:
               1
     1  C   -0.171131
     2  C   -0.218812
     3  C   -0.171581
     4  C    0.157641
     5  C   -0.171363
     6  C   -0.218917
     7  H    0.224476
     8  H    0.221670
     9  H    0.273380
    10  H    0.281781
    11  H    0.223966
    12  N    0.487237
    13  O   -0.447517
    14  O   -0.470535
    15  C   -0.171765
    16  C   -0.219679
    17  C   -0.169453
    18  C    0.156575
    19  C   -0.172371
    20  C   -0.219511
    21  H    0.221844
    22  H    0.223547
    23  H    0.288724
    24  H    0.272233
    25  H    0.219174
    26  N    0.486537
    27  O   -0.470402
    28  O   -0.445748
 Sum of Mulliken charges =  -0.00000

 Dipole moment (field-independent basis, Debye):
    X=              2.2375    Y=             -2.9712    Z=              2.8530  Tot=              4.6877
 Quadrupole moment (field-independent basis, Debye-Ang):
   XX=            -55.7762   YY=           -103.8050   ZZ=           -104.7064
   XY=             14.4781   XZ=              0.1440   YZ=              1.4943

 Normal termination of Gaussian 16 at Thu May  6 16:26:24 2021.
