 Gaussian 16, Revision A.03,
 Gaussian 16:  EM64L-G16RevA.03 25-Dec-2016

 -------------
 #p 6-31g* mp2
 -------------

 ------------------------------------------------------
 Input file generated by CHIRIPA (05-May-2021 14:53:16)
 ------------------------------------------------------
 Symbolic Z-matrix:
 Charge =  0 Multiplicity = 1

                         Standard orientation:
 ---------------------------------------------------------------------
 Center     Atomic      Atomic             Coordinates (Angstroms)
 Number     Number       Type             X           Y           Z
 ---------------------------------------------------------------------
      1          6           0       -3.842578    0.231700   -0.408608
      2          6           0       -4.003087   -1.235361   -0.008663
      3          6           0       -5.440968   -1.734149   -0.155301
      4          1           0       -4.510799    0.848430    0.207889
      5          1           0       -4.171447    0.358890   -1.449311
      6          1           0       -3.672713   -1.360007    1.030535
      7          1           0       -3.334266   -1.848650   -0.626053
      8          1           0       -5.777959   -1.638648   -1.192565
      9          1           0       -6.118330   -1.147229    0.473435
     10          1           0       -5.532988   -2.785143    0.135911
     11          6           0       -2.410656    0.744927   -0.267447
     12          6           0       -2.250147    2.211987   -0.667393
     13          6           0       -0.812266    2.710776   -0.520755
     14          1           0       -2.081787    0.617737    0.773255
     15          1           0       -1.742435    0.128197   -0.883945
     16          1           0       -2.918969    2.825277   -0.050003
     17          1           0       -2.580521    2.336634   -1.706590
     18          1           0       -0.134905    2.123856   -1.149491
     19          1           0       -0.475275    2.615275    0.516509
     20          1           0       -0.720247    3.761770   -0.811966
     21          6           0        4.578234   -0.445891   -1.077981
     22          6           0        4.378750    0.560955   -0.127725
     23          6           0        3.199360    0.606436    0.621620
     24          6           0        2.236212   -0.375269    0.393830
     25          6           0        2.405562   -1.391125   -0.545663
     26          6           0        3.592741   -1.417007   -1.283555
     27          1           0        5.497439   -0.473610   -1.655643
     28          1           0        5.142366    1.316445    0.034051
     29          1           0        3.018985    1.374689    1.363691
     30          1           0        1.626106   -2.130435   -0.684542
     31          1           0        3.744943   -2.200112   -2.020864
     32          7           0        0.983521   -0.337495    1.181066
     33          8           0        0.150390   -1.214029    0.961481
     34          8           0        0.858512    0.567932    2.002779
 ---------------------------------------------------------------------

 SCF Done:  E(RHF) =  -669.536301843     A.U. after   15 cycles
 E2 =    -0.2093701222D+01 EUMP2 =    -0.67163000306541D+03

 The electronic state is 1-A.
 Alpha  occ. eigenvalues --  -20.61047 -20.61024 -15.86002 -11.31311 -11.27866
 Alpha  occ. eigenvalues --  -11.27857 -11.27596 -11.26864 -11.26851 -11.20546
 Alpha  occ. eigenvalues --  -11.20426 -11.20241 -11.20183 -11.20126 -11.19865
 Alpha  occ. eigenvalues --   -1.60059  -1.39622  -1.19469  -1.08881  -1.07239
 Alpha  occ. eigenvalues --   -1.04859  -1.02480  -0.95731  -0.94934  -0.86262
 Alpha  occ. eigenvalues --   -0.85964  -0.82573  -0.78532  -0.77630  -0.77026
 Alpha  occ. eigenvalues --   -0.72250  -0.71325  -0.70580  -0.65128  -0.64865
 Alpha  occ. eigenvalues --   -0.63878  -0.62208  -0.59887  -0.58306  -0.56553
 Alpha  occ. eigenvalues --   -0.55370  -0.54229  -0.53191  -0.52952  -0.51686
 Alpha  occ. eigenvalues --   -0.51401  -0.49092  -0.49023  -0.48862  -0.46835
 Alpha  occ. eigenvalues --   -0.45646  -0.45082  -0.44359  -0.44315  -0.42681
 Alpha  occ. eigenvalues --   -0.37435  -0.36456
 Alpha virt. eigenvalues --    0.04846   0.11191   0.16305   0.21302   0.24001
 Alpha virt. eigenvalues --    0.25162   0.27184   0.27757   0.28033   0.28742
 Alpha virt. eigenvalues --    0.29128   0.30981   0.32092   0.32441   0.32761

 Mulliken charges:
               1
     1  C   -0.298640
     2  C   -0.297566
     3  C   -0.475325
     4  H    0.146392
     5  H    0.142822
     6  H    0.160362
     7  H    0.150880
     8  H    0.151139
     9  H    0.153198
    10  H    0.157599
    11  C   -0.302860
    12  C   -0.297301
    13  C   -0.485529
    14  H    0.172854
    15  H    0.145818
    16  H    0.149681
    17  H    0.145236
    18  H    0.144420
    19  H    0.173213
    20  H    0.153834
    21  C   -0.170433
    22  C   -0.218623
    23  C   -0.169927
    24  C    0.160189
    25  C   -0.171361
    26  C   -0.218623
    27  H    0.226074
    28  H    0.224004
    29  H    0.276073
    30  H    0.275606
    31  H    0.223820
    32  N    0.489465
    33  O   -0.456140
    34  O   -0.460352
 Sum of Mulliken charges =  -0.00000

 Dipole moment (field-independent basis, Debye):
    X=              4.6941    Y=             -0.2869    Z=             -2.4929  Tot=              5.3227
 Quadrupole moment (field-independent basis, Debye-Ang):
   XX=            -76.9551   YY=            -92.3362   ZZ=            -95.6494
   XY=             -0.8934   XZ=             -4.6162   YZ=              3.9107

 Normal termination of Gaussian 16 at Thu May  6 20:27:14 2021.
