 Gaussian 16, Revision A.03,
 Gaussian 16:  EM64L-G16RevA.03 25-Dec-2016

 -------------
 #p 6-31g* mp2
 -------------

 ------------------------------------------------------
 Input file generated by CHIRIPA (05-May-2021 14:57:22)
 ------------------------------------------------------
 Symbolic Z-matrix:
 Charge =  0 Multiplicity = 1

                         Standard orientation:
 ---------------------------------------------------------------------
 Center     Atomic      Atomic             Coordinates (Angstroms)
 Number     Number       Type             X           Y           Z
 ---------------------------------------------------------------------
      1          6           0        2.875209   -2.148152    0.712309
      2          6           0        2.103094   -1.251814    1.458590
      3          6           0        2.067029    0.104799    1.122661
      4          6           0        2.818691    0.532654    0.029393
      5          6           0        3.597683   -0.335812   -0.733647
      6          6           0        3.618728   -1.688101   -0.379503
      7          1           0        2.897391   -3.200322    0.980341
      8          1           0        1.524661   -1.606274    2.307012
      9          1           0        1.477854    0.820402    1.683200
     10          1           0        4.163694    0.047261   -1.574066
     11          1           0        4.219262   -2.381936   -0.960879
     12          7           0        2.788461    1.966551   -0.335882
     13          8           0        3.459624    2.318392   -1.303552
     14          8           0        2.094176    2.711447    0.352402
     15          6           0       -4.294063    1.689236    0.421681
     16          6           0       -4.354179    1.078934   -0.835473
     17          6           0       -3.544096   -0.021828   -1.129815
     18          6           0       -2.681521   -0.488288   -0.139023
     19          6           0       -2.598701    0.098208    1.122902
     20          6           0       -3.418060    1.197792    1.395141
     21          1           0       -4.926958    2.543876    0.641749
     22          1           0       -5.033550    1.458452   -1.593409
     23          1           0       -3.570408   -0.513331   -2.094777
     24          1           0       -1.911521   -0.302704    1.858070
     25          1           0       -3.369253    1.669766    2.372332
     26          7           0       -1.819013   -1.652991   -0.438930
     27          8           0       -1.067483   -2.044872    0.451166
     28          8           0       -1.910840   -2.151952   -1.558413
 ---------------------------------------------------------------------

 SCF Done:  E(RHF) =  -868.338849501     A.U. after   16 cycles
 E2 =    -0.2600059516D+01 EUMP2 =    -0.87093890901659D+03

 The electronic state is 1-A.
 Alpha  occ. eigenvalues --  -20.61140 -20.61132 -20.60314 -20.60298 -15.86168
 Alpha  occ. eigenvalues --  -15.85351 -11.31369 -11.30455 -11.27966 -11.27881
 Alpha  occ. eigenvalues --  -11.27588 -11.26975 -11.26959 -11.26894 -11.26859
 Alpha  occ. eigenvalues --  -11.26568 -11.25935 -11.25882  -1.60197  -1.59388
 Alpha  occ. eigenvalues --   -1.39763  -1.38951  -1.19512  -1.18565  -1.08933
 Alpha  occ. eigenvalues --   -1.07994  -1.04897  -1.03938  -0.95806  -0.94890
 Alpha  occ. eigenvalues --   -0.86304  -0.85345  -0.82657  -0.81744  -0.77735
 Alpha  occ. eigenvalues --   -0.76840  -0.72421  -0.71580  -0.71502  -0.70705
 Alpha  occ. eigenvalues --   -0.70628  -0.69669  -0.65177  -0.64903  -0.64222
 Alpha  occ. eigenvalues --   -0.63939  -0.62268  -0.61319  -0.55390  -0.54411
 Alpha  occ. eigenvalues --   -0.53216  -0.52996  -0.52249  -0.52043  -0.49185
 Alpha  occ. eigenvalues --   -0.49132  -0.48350  -0.48307  -0.45206  -0.44416
 Alpha  occ. eigenvalues --   -0.37462  -0.36499  -0.36443  -0.35463
 Alpha virt. eigenvalues --    0.04785   0.05697   0.11151   0.12179   0.16332
 Alpha virt. eigenvalues --    0.17309   0.20903   0.22247   0.26362   0.27613
 Alpha virt. eigenvalues --    0.28848   0.29184   0.30944   0.31684   0.32927

 Mulliken charges:
               1
     1  C   -0.166018
     2  C   -0.198122
     3  C   -0.175789
     4  C    0.157634
     5  C   -0.172414
     6  C   -0.217398
     7  H    0.226835
     8  H    0.223284
     9  H    0.266264
    10  H    0.272586
    11  H    0.221794
    12  N    0.488300
    13  O   -0.461928
    14  O   -0.465857
    15  C   -0.169231
    16  C   -0.217483
    17  C   -0.170076
    18  C    0.159865
    19  C   -0.169938
    20  C   -0.216022
    21  H    0.227570
    22  H    0.224976
    23  H    0.276004
    24  H    0.267310
    25  H    0.224262
    26  N    0.490546
    27  O   -0.468390
    28  O   -0.458562
 Sum of Mulliken charges =  -0.00000

 Dipole moment (field-independent basis, Debye):
    X=             -3.1580    Y=             -1.1252    Z=              2.3015  Tot=              4.0664
 Quadrupole moment (field-independent basis, Debye-Ang):
   XX=            -86.1356   YY=           -115.2493   ZZ=            -98.3762
   XY=            -25.5630   XZ=              0.7583   YZ=              0.4247

 Normal termination of Gaussian 16 at Fri May  7 07:54:55 2021.
