 Gaussian 16, Revision A.03,
 Gaussian 16:  EM64L-G16RevA.03 25-Dec-2016

 -------------
 #p 6-31g* mp2
 -------------

 ------------------------------------------------------
 Input file generated by CHIRIPA (05-May-2021 14:57:23)
 ------------------------------------------------------
 Symbolic Z-matrix:
 Charge =  0 Multiplicity = 1

                         Standard orientation:
 ---------------------------------------------------------------------
 Center     Atomic      Atomic             Coordinates (Angstroms)
 Number     Number       Type             X           Y           Z
 ---------------------------------------------------------------------
      1          6           0       -1.946815    1.940675   -0.229313
      2          6           0       -2.762120    1.555988   -1.298806
      3          6           0       -3.679012    0.510786   -1.152484
      4          6           0       -3.754557   -0.130781    0.082819
      5          6           0       -2.955957    0.229316    1.167189
      6          6           0       -2.046160    1.277280    0.998107
      7          1           0       -1.237307    2.753685   -0.351820
      8          1           0       -2.687135    2.069396   -2.253182
      9          1           0       -4.322291    0.192527   -1.963854
     10          1           0       -3.053545   -0.301369    2.106480
     11          1           0       -1.414251    1.573889    1.830428
     12          7           0       -4.721474   -1.238752    0.249771
     13          8           0       -4.768747   -1.788021    1.348273
     14          8           0       -5.413762   -1.536931   -0.721035
     15          6           0        1.996183    1.897893    0.032286
     16          6           0        1.618084    0.710495   -0.603047
     17          6           0        2.495931   -0.376221   -0.657633
     18          6           0        3.749784   -0.240317   -0.063771
     19          6           0        4.155673    0.929531    0.576540
     20          6           0        3.261540    2.003435    0.619018
     21          1           0        1.307925    2.737104    0.069987
     22          1           0        0.636025    0.625685   -1.059569
     23          1           0        2.228966   -1.307099   -1.143034
     24          1           0        5.141317    0.984106    1.022573
     25          1           0        3.557875    2.924365    1.113103
     26          7           0        4.687742   -1.383994   -0.115150
     27          8           0        5.786750   -1.238961    0.415685
     28          8           0        4.306146   -2.403782   -0.685283
 ---------------------------------------------------------------------

 SCF Done:  E(RHF) =  -868.336276847     A.U. after   16 cycles
 E2 =    -0.2601527196D+01 EUMP2 =    -0.87093780404332D+03

 The electronic state is 1-A.
 Alpha  occ. eigenvalues --  -20.61410 -20.61403 -20.61151 -20.61144 -15.86468
 Alpha  occ. eigenvalues --  -15.86205 -11.32076 -11.31717 -11.28637 -11.28614
 Alpha  occ. eigenvalues --  -11.28564 -11.28275 -11.28241 -11.28188 -11.27785
 Alpha  occ. eigenvalues --  -11.27753 -11.27399 -11.27299  -1.60478  -1.60221
 Alpha  occ. eigenvalues --   -1.40024  -1.39770  -1.20284  -1.19902  -1.09681
 Alpha  occ. eigenvalues --   -1.09300  -1.05690  -1.05305  -0.96467  -0.96107
 Alpha  occ. eigenvalues --   -0.87095  -0.86717  -0.83258  -0.82924  -0.78230
 Alpha  occ. eigenvalues --   -0.77920  -0.72682  -0.72425  -0.71804  -0.71638
 Alpha  occ. eigenvalues --   -0.71545  -0.70951  -0.65935  -0.65705  -0.65551
 Alpha  occ. eigenvalues --   -0.65306  -0.63004  -0.62643  -0.56437  -0.55798
 Alpha  occ. eigenvalues --   -0.54133  -0.53781  -0.53634  -0.53304  -0.49460
 Alpha  occ. eigenvalues --   -0.49421  -0.49193  -0.49167  -0.45375  -0.45142
 Alpha  occ. eigenvalues --   -0.38403  -0.37912  -0.37293  -0.36843
 Alpha virt. eigenvalues --    0.04230   0.04579   0.10120   0.10934   0.15530
 Alpha virt. eigenvalues --    0.15992   0.18426   0.21954   0.24881   0.26413
 Alpha virt. eigenvalues --    0.27035   0.29382   0.29736   0.31487   0.32091

 Mulliken charges:
               1
     1  C   -0.182339
     2  C   -0.220998
     3  C   -0.170249
     4  C    0.159932
     5  C   -0.170173
     6  C   -0.216218
     7  H    0.221008
     8  H    0.226281
     9  H    0.279011
    10  H    0.279662
    11  H    0.225927
    12  N    0.487819
    13  O   -0.457083
    14  O   -0.457766
    15  C   -0.177491
    16  C   -0.220323
    17  C   -0.171425
    18  C    0.159812
    19  C   -0.171124
    20  C   -0.217774
    21  H    0.214716
    22  H    0.228463
    23  H    0.278554
    24  H    0.277231
    25  H    0.223932
    26  N    0.487790
    27  O   -0.459131
    28  O   -0.458044
 Sum of Mulliken charges =  -0.00000

 Dipole moment (field-independent basis, Debye):
    X=             -0.0693    Y=              7.6655    Z=             -0.3606  Tot=              7.6743
 Quadrupole moment (field-independent basis, Debye-Ang):
   XX=           -151.9232   YY=           -107.8378   ZZ=            -99.6611
   XY=              2.6939   XZ=              6.9376   YZ=              1.0834

 Normal termination of Gaussian 16 at Thu May  6 21:11:02 2021.
