 Gaussian 16, Revision A.03,
 Gaussian 16:  EM64L-G16RevA.03 25-Dec-2016

 -------------
 #p 6-31g* mp2
 -------------

 ------------------------------------------------------
 Input file generated by CHIRIPA (05-May-2021 14:57:25)
 ------------------------------------------------------
 Symbolic Z-matrix:
 Charge =  0 Multiplicity = 1

                         Standard orientation:
 ---------------------------------------------------------------------
 Center     Atomic      Atomic             Coordinates (Angstroms)
 Number     Number       Type             X           Y           Z
 ---------------------------------------------------------------------
      1          6           0       -2.407043    1.492626    1.315976
      2          6           0       -2.041440    0.326667    0.635244
      3          6           0       -2.994692   -0.409655   -0.074466
      4          6           0       -4.310387    0.050971   -0.082309
      5          6           0       -4.705707    1.208718    0.585996
      6          6           0       -3.735667    1.929161    1.289226
      7          1           0       -1.660013    2.058451    1.864778
      8          1           0       -1.010357   -0.014728    0.654279
      9          1           0       -2.739063   -1.315767   -0.610221
     10          1           0       -5.741384    1.523996    0.548693
     11          1           0       -4.022472    2.834297    1.816973
     12          7           0       -5.328438   -0.720135   -0.830217
     13          8           0       -6.480946   -0.293181   -0.821653
     14          8           0       -4.954603   -1.736881   -1.410831
     15          6           0        5.603308    1.597731   -1.079621
     16          6           0        4.214719    1.763281   -1.048989
     17          6           0        3.395619    0.785866   -0.476031
     18          6           0        4.001384   -0.349735    0.059460
     19          6           0        5.381768   -0.543626    0.044141
     20          6           0        6.181380    0.446835   -0.533920
     21          1           0        6.232035    2.362079   -1.526691
     22          1           0        3.763022    2.656060   -1.472028
     23          1           0        2.317886    0.888485   -0.438904
     24          1           0        5.802984   -1.444376    0.473843
     25          1           0        7.259489    0.315589   -0.556304
     26          7           0        3.144554   -1.391387    0.668726
     27          8           0        3.702765   -2.382747    1.133744
     28          8           0        1.930984   -1.196749    0.669713
 ---------------------------------------------------------------------

 SCF Done:  E(RHF) =  -868.339300143     A.U. after   16 cycles
 E2 =    -0.2598539268D+01 EUMP2 =    -0.87093783941140D+03

 The electronic state is 1-A.
 Alpha  occ. eigenvalues --  -20.61652 -20.61590 -20.60329 -20.60318 -15.86674
 Alpha  occ. eigenvalues --  -15.85373 -11.31867 -11.30666 -11.28459 -11.28378
 Alpha  occ. eigenvalues --  -11.28099 -11.27398 -11.27356 -11.27252 -11.27136
 Alpha  occ. eigenvalues --  -11.26950 -11.26288 -11.26055  -1.60680  -1.59403
 Alpha  occ. eigenvalues --   -1.40246  -1.38958  -1.20017  -1.18820  -1.09435
 Alpha  occ. eigenvalues --   -1.08237  -1.05398  -1.04189  -0.96304  -0.95087
 Alpha  occ. eigenvalues --   -0.86803  -0.85595  -0.83150  -0.81901  -0.78223
 Alpha  occ. eigenvalues --   -0.76953  -0.72903  -0.71989  -0.71594  -0.71123
 Alpha  occ. eigenvalues --   -0.70725  -0.69948  -0.65676  -0.65396  -0.64465
 Alpha  occ. eigenvalues --   -0.64156  -0.62756  -0.61512  -0.55890  -0.54726
 Alpha  occ. eigenvalues --   -0.53730  -0.53489  -0.52556  -0.52248  -0.49662
 Alpha  occ. eigenvalues --   -0.49609  -0.48353  -0.48343  -0.45687  -0.44379
 Alpha  occ. eigenvalues --   -0.37975  -0.36993  -0.36826  -0.35796
 Alpha virt. eigenvalues --    0.04317   0.05543   0.10664   0.11843   0.15851
 Alpha virt. eigenvalues --    0.17055   0.20427   0.21995   0.25929   0.27067
 Alpha virt. eigenvalues --    0.28597   0.28817   0.30195   0.31203   0.32366

 Mulliken charges:
               1
     1  C   -0.173103
     2  C   -0.228905
     3  C   -0.172746
     4  C    0.158442
     5  C   -0.172602
     6  C   -0.218542
     7  H    0.223016
     8  H    0.244752
     9  H    0.278278
    10  H    0.273535
    11  H    0.220573
    12  N    0.487989
    13  O   -0.462531
    14  O   -0.460027
    15  C   -0.170095
    16  C   -0.218212
    17  C   -0.170316
    18  C    0.158727
    19  C   -0.170361
    20  C   -0.218216
    21  H    0.227918
    22  H    0.224650
    23  H    0.269750
    24  H    0.277252
    25  H    0.225856
    26  N    0.494188
    27  O   -0.454453
    28  O   -0.474817
 Sum of Mulliken charges =  -0.00000

 Dipole moment (field-independent basis, Debye):
    X=              7.0689    Y=              6.2934    Z=              0.4643  Tot=              9.4759
 Quadrupole moment (field-independent basis, Debye-Ang):
   XX=           -105.7623   YY=           -104.2815   ZZ=           -106.4775
   XY=             -2.7043   XZ=            -20.3929   YZ=              1.0232

 Normal termination of Gaussian 16 at Fri May  7 12:38:51 2021.
