 Gaussian 16, Revision A.03,
 Gaussian 16:  EM64L-G16RevA.03 25-Dec-2016

 -------------
 #p 6-31g* mp2
 -------------

 ------------------------------------------------------
 Input file generated by CHIRIPA (05-May-2021 14:57:20)
 ------------------------------------------------------
 Symbolic Z-matrix:
 Charge =  0 Multiplicity = 1

                         Standard orientation:
 ---------------------------------------------------------------------
 Center     Atomic      Atomic             Coordinates (Angstroms)
 Number     Number       Type             X           Y           Z
 ---------------------------------------------------------------------
      1          6           0        3.248881    2.356002    1.141365
      2          6           0        2.468662    1.315421    1.656117
      3          6           0        2.484243    0.052649    1.056356
      4          6           0        3.295251   -0.135298   -0.061781
      5          6           0        4.083837    0.881438   -0.598129
      6          6           0        4.052562    2.136077    0.017865
      7          1           0        3.230682    3.333795    1.613579
      8          1           0        1.843562    1.483335    2.528528
      9          1           0        1.890137   -0.770599    1.434135
     10          1           0        4.696948    0.683677   -1.468994
     11          1           0        4.659529    2.942355   -0.384071
     12          7           0        3.320054   -1.467834   -0.705314
     13          8           0        4.043013   -1.607770   -1.689379
     14          8           0        2.616065   -2.347106   -0.213464
     15          6           0       -2.267136   -2.224720    0.813610
     16          6           0       -3.656063   -2.059559    0.824864
     17          6           0       -4.234409   -0.877843    0.351988
     18          6           0       -3.390163    0.122606   -0.127219
     19          6           0       -2.002870   -0.012008   -0.151483
     20          6           0       -1.446421   -1.202220    0.326332
     21          1           0       -1.826368   -3.146005    1.182869
     22          1           0       -4.295897   -2.851953    1.202709
     23          1           0       -5.306606   -0.723563    0.349184
     24          1           0       -1.390922    0.795717   -0.534259
     25          1           0       -0.367440   -1.327718    0.316385
     26          7           0       -3.990842    1.378133   -0.630445
     27          8           0       -3.225218    2.244480   -1.047461
     28          8           0       -5.215904    1.472096   -0.598330
 ---------------------------------------------------------------------

 SCF Done:  E(RHF) =  -868.339022207     A.U. after   16 cycles
 E2 =    -0.2599776978D+01 EUMP2 =    -0.87093879918546D+03

 The electronic state is 1-A.
 Alpha  occ. eigenvalues --  -20.61658 -20.61599 -20.60755 -20.60745 -15.86655
 Alpha  occ. eigenvalues --  -15.85803 -11.31910 -11.31090 -11.28511 -11.28377
 Alpha  occ. eigenvalues --  -11.28073 -11.27651 -11.27642 -11.27425 -11.27358
 Alpha  occ. eigenvalues --  -11.27316 -11.26631 -11.26561  -1.60685  -1.59830
 Alpha  occ. eigenvalues --   -1.40249  -1.39386  -1.20044  -1.19245  -1.09441
 Alpha  occ. eigenvalues --   -1.08641  -1.05427  -1.04636  -0.96306  -0.95494
 Alpha  occ. eigenvalues --   -0.86827  -0.86025  -0.83142  -0.82333  -0.78237
 Alpha  occ. eigenvalues --   -0.77396  -0.72874  -0.72023  -0.71996  -0.71153
 Alpha  occ. eigenvalues --   -0.71130  -0.70324  -0.65687  -0.65432  -0.64888
 Alpha  occ. eigenvalues --   -0.64609  -0.62801  -0.61948  -0.55881  -0.55095
 Alpha  occ. eigenvalues --   -0.53756  -0.53522  -0.52972  -0.52679  -0.49650
 Alpha  occ. eigenvalues --   -0.49607  -0.48783  -0.48770  -0.45663  -0.44809
 Alpha  occ. eigenvalues --   -0.37979  -0.37207  -0.37029  -0.36243
 Alpha virt. eigenvalues --    0.04250   0.05129   0.10517   0.11388   0.15829
 Alpha virt. eigenvalues --    0.16635   0.20205   0.21908   0.25683   0.27254
 Alpha virt. eigenvalues --    0.28358   0.28731   0.30112   0.31139   0.32125

 Mulliken charges:
               1
     1  C   -0.169626
     2  C   -0.218091
     3  C   -0.178956
     4  C    0.159514
     5  C   -0.170289
     6  C   -0.217072
     7  H    0.230078
     8  H    0.226919
     9  H    0.269775
    10  H    0.277849
    11  H    0.227327
    12  N    0.489363
    13  O   -0.453774
    14  O   -0.468936
    15  C   -0.171979
    16  C   -0.218729
    17  C   -0.171498
    18  C    0.158534
    19  C   -0.173785
    20  C   -0.228615
    21  H    0.230098
    22  H    0.223480
    23  H    0.274972
    24  H    0.274060
    25  H    0.234154
    26  N    0.488135
    27  O   -0.462269
    28  O   -0.460639
 Sum of Mulliken charges =  -0.00000

 Dipole moment (field-independent basis, Debye):
    X=              2.3280    Y=              0.3787    Z=              4.0077  Tot=              4.6502
 Quadrupole moment (field-independent basis, Debye-Ang):
   XX=           -113.1302   YY=           -106.5977   ZZ=           -104.1161
   XY=             34.9326   XZ=             -2.6563   YZ=             -1.3451

 Normal termination of Gaussian 16 at Thu May  6 12:47:26 2021.
