 Gaussian 16, Revision A.03,
 Gaussian 16:  EM64L-G16RevA.03 25-Dec-2016

 -------------
 #p 6-31g* mp2
 -------------

 ------------------------------------------------------
 Input file generated by CHIRIPA (05-May-2021 14:57:24)
 ------------------------------------------------------
 Symbolic Z-matrix:
 Charge =  0 Multiplicity = 1

                         Standard orientation:
 ---------------------------------------------------------------------
 Center     Atomic      Atomic             Coordinates (Angstroms)
 Number     Number       Type             X           Y           Z
 ---------------------------------------------------------------------
      1          6           0        4.488541    1.813395    1.026400
      2          6           0        3.255070    1.369753    1.514513
      3          6           0        2.617147    0.268383    0.936079
      4          6           0        3.243945   -0.368625   -0.133798
      5          6           0        4.472574    0.049496   -0.642654
      6          6           0        5.092292    1.153014   -0.048729
      7          1           0        4.977023    2.669800    1.481758
      8          1           0        2.783853    1.880676    2.349352
      9          1           0        1.661964   -0.096149    1.294072
     10          1           0        4.917685   -0.480229   -1.476131
     11          1           0        6.050193    1.495343   -0.429888
     12          7           0        2.578241   -1.535733   -0.754359
     13          8           0        3.151239   -2.079704   -1.695851
     14          8           0        1.496070   -1.884443   -0.287514
     15          6           0       -3.390535   -2.149995    1.007764
     16          6           0       -2.184816   -1.446254    0.921099
     17          6           0       -2.152538   -0.156726    0.382002
     18          6           0       -3.350096    0.401166   -0.062857
     19          6           0       -4.567209   -0.274571    0.009989
     20          6           0       -4.575793   -1.562942    0.552735
     21          1           0       -3.406407   -3.151281    1.427966
     22          1           0       -1.262787   -1.899669    1.273695
     23          1           0       -1.233074    0.410514    0.302995
     24          1           0       -5.470099    0.203732   -0.349778
     25          1           0       -5.513635   -2.107125    0.618792
     26          7           0       -3.328466    1.765720   -0.635507
     27          8           0       -4.397220    2.235006   -1.020438
     28          8           0       -2.243168    2.340131   -0.688576
 ---------------------------------------------------------------------

 SCF Done:  E(RHF) =  -868.339324337     A.U. after   15 cycles
 E2 =    -0.2599161192D+01 EUMP2 =    -0.87093848552904D+03

 The electronic state is 1-A.
 Alpha  occ. eigenvalues --  -20.61376 -20.61315 -20.60457 -20.60446 -15.86388
 Alpha  occ. eigenvalues --  -15.85499 -11.31559 -11.30701 -11.28170 -11.28053
 Alpha  occ. eigenvalues --  -11.27754 -11.27249 -11.27213 -11.27064 -11.27033
 Alpha  occ. eigenvalues --  -11.26907 -11.26255 -11.26089  -1.60402  -1.59530
 Alpha  occ. eigenvalues --   -1.39971  -1.39090  -1.19695  -1.18836  -1.09116
 Alpha  occ. eigenvalues --   -1.08260  -1.05076  -1.04201  -0.95995  -0.95132
 Alpha  occ. eigenvalues --   -0.86485  -0.85610  -0.82847  -0.81958  -0.77935
 Alpha  occ. eigenvalues --   -0.77028  -0.72623  -0.71728  -0.71701  -0.70847
 Alpha  occ. eigenvalues --   -0.70812  -0.69955  -0.65358  -0.65077  -0.64483
 Alpha  occ. eigenvalues --   -0.64180  -0.62456  -0.61540  -0.55564  -0.54714
 Alpha  occ. eigenvalues --   -0.53394  -0.53172  -0.52548  -0.52277  -0.49388
 Alpha  occ. eigenvalues --   -0.49330  -0.48489  -0.48462  -0.45416  -0.44532
 Alpha  occ. eigenvalues --   -0.37637  -0.36807  -0.36659  -0.35786
 Alpha virt. eigenvalues --    0.04596   0.05478   0.10960   0.11861   0.16166
 Alpha virt. eigenvalues --    0.17026   0.19753   0.22151   0.25161   0.27432
 Alpha virt. eigenvalues --    0.28629   0.29283   0.30986   0.31480   0.32576

 Mulliken charges:
               1
     1  C   -0.169619
     2  C   -0.216303
     3  C   -0.170817
     4  C    0.160217
     5  C   -0.170072
     6  C   -0.217652
     7  H    0.228089
     8  H    0.225861
     9  H    0.266810
    10  H    0.276604
    11  H    0.225411
    12  N    0.492280
    13  O   -0.455084
    14  O   -0.473846
    15  C   -0.171559
    16  C   -0.216985
    17  C   -0.171376
    18  C    0.158597
    19  C   -0.172266
    20  C   -0.218362
    21  H    0.225702
    22  H    0.235665
    23  H    0.270454
    24  H    0.273524
    25  H    0.221675
    26  N    0.488348
    27  O   -0.461550
    28  O   -0.463746
 Sum of Mulliken charges =  -0.00000

 Dipole moment (field-independent basis, Debye):
    X=              2.6332    Y=             -0.7340    Z=              4.1771  Tot=              4.9920
 Quadrupole moment (field-independent basis, Debye-Ang):
   XX=            -80.9981   YY=           -112.8452   ZZ=           -104.6327
   XY=             29.4069   XZ=             -2.0232   YZ=              0.3092

 Normal termination of Gaussian 16 at Thu May  6 05:02:59 2021.
