 Gaussian 16, Revision A.03,
 Gaussian 16:  EM64L-G16RevA.03 25-Dec-2016

 -------------
 #p 6-31g* mp2
 -------------

 ------------------------------------------------------
 Input file generated by CHIRIPA (05-May-2021 14:57:27)
 ------------------------------------------------------
 Symbolic Z-matrix:
 Charge =  0 Multiplicity = 1

                         Standard orientation:
 ---------------------------------------------------------------------
 Center     Atomic      Atomic             Coordinates (Angstroms)
 Number     Number       Type             X           Y           Z
 ---------------------------------------------------------------------
      1          6           0        0.561978   -0.732225   -0.107195
      2          6           0        1.446236   -1.215180   -1.077434
      3          6           0        2.801999   -0.876715   -1.033889
      4          6           0        3.241332   -0.049458   -0.001454
      5          6           0        2.385047    0.447643    0.979849
      6          6           0        1.033375    0.096184    0.916545
      7          1           0       -0.489622   -1.000200   -0.148696
      8          1           0        1.082948   -1.858709   -1.873636
      9          1           0        3.508376   -1.236554   -1.772107
     10          1           0        2.776750    1.087300    1.761402
     11          1           0        0.348936    0.472726    1.671399
     12          7           0        4.674452    0.315738    0.055103
     13          8           0        5.036549    1.046110    0.974929
     14          8           0        5.408499   -0.135309   -0.821463
     15          6           0       -2.970645   -2.324263    0.674718
     16          6           0       -2.878614   -1.330084    1.654340
     17          6           0       -2.896719    0.021669    1.297992
     18          6           0       -3.008471    0.344947   -0.053412
     19          6           0       -3.101932   -0.622486   -1.052724
     20          6           0       -3.081814   -1.967919   -0.673311
     21          1           0       -2.955797   -3.371882    0.960496
     22          1           0       -2.792187   -1.603888    2.702007
     23          1           0       -2.827033    0.811704    2.035832
     24          1           0       -3.187121   -0.318598   -2.088973
     25          1           0       -3.153449   -2.737876   -1.436253
     26          7           0       -3.028704    1.772643   -0.442870
     27          8           0       -3.127974    2.031324   -1.640312
     28          8           0       -2.944909    2.605955    0.456688
 ---------------------------------------------------------------------

 SCF Done:  E(RHF) =  -868.336266022     A.U. after   16 cycles
 E2 =    -0.2604478445D+01 EUMP2 =    -0.87094074446752D+03

 The electronic state is 1-A.
 Alpha  occ. eigenvalues --  -20.61856 -20.61844 -20.60625 -20.60619 -15.86921
 Alpha  occ. eigenvalues --  -15.85681 -11.32634 -11.31014 -11.29222 -11.29178
 Alpha  occ. eigenvalues --  -11.28945 -11.28268 -11.28254 -11.27629 -11.27600
 Alpha  occ. eigenvalues --  -11.27139 -11.26607 -11.26557  -1.60921  -1.59702
 Alpha  occ. eigenvalues --   -1.40465  -1.39256  -1.20897  -1.19190  -1.10151
 Alpha  occ. eigenvalues --   -1.08576  -1.06286  -1.04607  -0.96921  -0.95420
 Alpha  occ. eigenvalues --   -0.87609  -0.86003  -0.83725  -0.82273  -0.78739
 Alpha  occ. eigenvalues --   -0.77330  -0.73118  -0.72292  -0.71898  -0.71843
 Alpha  occ. eigenvalues --   -0.71025  -0.70342  -0.66440  -0.66187  -0.64841
 Alpha  occ. eigenvalues --   -0.64661  -0.63561  -0.61976  -0.56663  -0.56172
 Alpha  occ. eigenvalues --   -0.54282  -0.53372  -0.52927  -0.52698  -0.49906
 Alpha  occ. eigenvalues --   -0.49861  -0.48656  -0.48652  -0.45792  -0.44669
 Alpha  occ. eigenvalues --   -0.38965  -0.37991  -0.37025  -0.36227
 Alpha virt. eigenvalues --    0.03755   0.05225   0.09642   0.11450   0.15202
 Alpha virt. eigenvalues --    0.16712   0.20006   0.21966   0.25577   0.26837
 Alpha virt. eigenvalues --    0.27758   0.29065   0.29909   0.31038   0.32146

 Mulliken charges:
               1
     1  C   -0.175253
     2  C   -0.224344
     3  C   -0.169885
     4  C    0.157403
     5  C   -0.169233
     6  C   -0.223830
     7  H    0.240810
     8  H    0.218400
     9  H    0.274540
    10  H    0.275579
    11  H    0.219460
    12  N    0.488119
    13  O   -0.460488
    14  O   -0.461320
    15  C   -0.174107
    16  C   -0.218952
    17  C   -0.180925
    18  C    0.160507
    19  C   -0.179750
    20  C   -0.225859
    21  H    0.232554
    22  H    0.230252
    23  H    0.279363
    24  H    0.281064
    25  H    0.229194
    26  N    0.489372
    27  O   -0.455175
    28  O   -0.457497
 Sum of Mulliken charges =  -0.00000

 Dipole moment (field-independent basis, Debye):
    X=             -5.4037    Y=             -6.2846    Z=              1.1828  Tot=              8.3723
 Quadrupole moment (field-independent basis, Debye-Ang):
   XX=           -138.5025   YY=           -107.0441   ZZ=            -96.9921
   XY=             11.2282   XZ=             -5.1161   YZ=              4.5958

 Normal termination of Gaussian 16 at Fri May  7 06:39:35 2021.
