 Gaussian 16, Revision A.03,
 Gaussian 16:  EM64L-G16RevA.03 25-Dec-2016

 -------------
 #p 6-31g* mp2
 -------------

 ------------------------------------------------------
 Input file generated by CHIRIPA (05-May-2021 14:55:25)
 ------------------------------------------------------
 Symbolic Z-matrix:
 Charge =  0 Multiplicity = 1

                         Standard orientation:
 ---------------------------------------------------------------------
 Center     Atomic      Atomic             Coordinates (Angstroms)
 Number     Number       Type             X           Y           Z
 ---------------------------------------------------------------------
      1          6           0        0.642214   -0.280657    1.329106
      2          6           0        0.724182    0.348123    0.082335
      3          6           0        1.946083    0.431433   -0.591880
      4          6           0        3.071112   -0.127338    0.012583
      5          6           0        3.021632   -0.760247    1.253658
      6          6           0        1.789178   -0.831864    1.909764
      7          1           0       -0.311088   -0.340832    1.845818
      8          1           0       -0.164926    0.777085   -0.371011
      9          1           0        2.037942    0.912532   -1.558070
     10          1           0        3.925210   -1.178511    1.680298
     11          1           0        1.728497   -1.320779    2.877920
     12          7           0        4.370271   -0.045331   -0.691593
     13          8           0        5.346843   -0.545500   -0.137719
     14          8           0        4.387379    0.517561   -1.784066
     15          6           0       -3.112938    0.711127   -0.089205
     16          6           0       -3.666186    2.118178    0.139067
     17          6           0       -2.565685    3.169117    0.288117
     18          1           0       -2.457390    0.441163    0.750034
     19          1           0       -2.483000    0.713966   -0.989519
     20          1           0       -4.296009    2.112372    1.037903
     21          1           0       -4.320644    2.384749   -0.700719
     22          1           0       -1.942169    3.204199   -0.611103
     23          1           0       -1.917394    2.930275    1.137396
     24          1           0       -2.983425    4.167615    0.450464
     25          6           0       -4.200971   -0.350541   -0.240112
     26          6           0       -3.647722   -1.757592   -0.468384
     27          6           0       -4.748224   -2.808533   -0.617434
     28          1           0       -4.830909   -0.353381    0.660202
     29          1           0       -4.856519   -0.080576   -1.079351
     30          1           0       -2.993264   -2.024164    0.371402
     31          1           0       -3.017899   -1.751786   -1.367219
     32          1           0       -5.396514   -2.569689   -1.466713
     33          1           0       -5.371740   -2.843614    0.281786
     34          1           0       -4.330483   -3.807029   -0.779781
 ---------------------------------------------------------------------

 SCF Done:  E(RHF) =  -669.534807098     A.U. after   15 cycles
 E2 =    -0.2092864675D+01 EUMP2 =    -0.67162767177271D+03

 The electronic state is 1-A.
 Alpha  occ. eigenvalues --  -20.60677 -20.60672 -15.85727 -11.31067 -11.27631
 Alpha  occ. eigenvalues --  -11.27600 -11.27351 -11.26658 -11.26523 -11.22787
 Alpha  occ. eigenvalues --  -11.22660 -11.22503 -11.22388 -11.22115 -11.21771
 Alpha  occ. eigenvalues --   -1.59753  -1.39307  -1.19227  -1.09546  -1.08627
 Alpha  occ. eigenvalues --   -1.04629  -1.04500  -0.96973  -0.95474  -0.87983
 Alpha  occ. eigenvalues --   -0.86032  -0.82306  -0.80590  -0.79427  -0.77338
 Alpha  occ. eigenvalues --   -0.71947  -0.71075  -0.70365  -0.66168  -0.64875
 Alpha  occ. eigenvalues --   -0.64639  -0.62000  -0.61887  -0.60321  -0.58584
 Alpha  occ. eigenvalues --   -0.56284  -0.55136  -0.53603  -0.53424  -0.52951
 Alpha  occ. eigenvalues --   -0.52716  -0.50907  -0.48894  -0.48706  -0.48681
 Alpha  occ. eigenvalues --   -0.47624  -0.46856  -0.46797  -0.44802  -0.44719
 Alpha  occ. eigenvalues --   -0.37209  -0.36220
 Alpha virt. eigenvalues --    0.05164   0.11375   0.16650   0.19385   0.22394
 Alpha virt. eigenvalues --    0.23076   0.24073   0.25615   0.26889   0.28407
 Alpha virt. eigenvalues --    0.29893   0.30351   0.30943   0.31176   0.31465

 Mulliken charges:
               1
     1  C   -0.177457
     2  C   -0.223863
     3  C   -0.173439
     4  C    0.158895
     5  C   -0.171552
     6  C   -0.218228
     7  H    0.226803
     8  H    0.236183
     9  H    0.275123
    10  H    0.274983
    11  H    0.222713
    12  N    0.488030
    13  O   -0.460852
    14  O   -0.460747
    15  C   -0.307179
    16  C   -0.299291
    17  C   -0.479291
    18  H    0.143360
    19  H    0.148200
    20  H    0.155208
    21  H    0.156862
    22  H    0.153728
    23  H    0.154180
    24  H    0.166918
    25  C   -0.297718
    26  C   -0.300246
    27  C   -0.476430
    28  H    0.152028
    29  H    0.154244
    30  H    0.147843
    31  H    0.154114
    32  H    0.157552
    33  H    0.156055
    34  H    0.163271
 Sum of Mulliken charges =  -0.00000

 Dipole moment (field-independent basis, Debye):
    X=             -4.9120    Y=             -0.2521    Z=              2.4200  Tot=              5.4816
 Quadrupole moment (field-independent basis, Debye-Ang):
   XX=           -121.8906   YY=            -94.3401   ZZ=            -91.1672
   XY=             -2.2571   XZ=              9.6251   YZ=             -2.6571

 Normal termination of Gaussian 16 at Wed May  5 22:27:42 2021.
