 Gaussian 16, Revision A.03,
 Gaussian 16:  EM64L-G16RevA.03 25-Dec-2016

 -------------
 #p 6-31g* mp2
 -------------

 ------------------------------------------------------
 Input file generated by CHIRIPA (05-May-2021 14:53:13)
 ------------------------------------------------------
 Symbolic Z-matrix:
 Charge =  0 Multiplicity = 1

                         Standard orientation:
 ---------------------------------------------------------------------
 Center     Atomic      Atomic             Coordinates (Angstroms)
 Number     Number       Type             X           Y           Z
 ---------------------------------------------------------------------
      1          6           0       -1.855997    1.000299   -0.346562
      2          6           0       -2.335218    2.416127   -0.668683
      3          6           0       -1.202341    3.332672   -1.131640
      4          1           0       -1.081720    1.050187    0.431224
      5          1           0       -1.376873    0.571280   -1.237504
      6          1           0       -2.814528    2.841836    0.222187
      7          1           0       -3.108580    2.362849   -1.445657
      8          1           0       -0.728680    2.933820   -2.034503
      9          1           0       -0.432957    3.415529   -0.357183
     10          1           0       -1.567169    4.339738   -1.356537
     11          6           0       -2.977095    0.072191    0.117638
     12          6           0       -2.497873   -1.343637    0.439760
     13          6           0       -3.630750   -2.260182    0.902716
     14          1           0       -3.456218    0.501211    1.008580
     15          1           0       -3.751371    0.022304   -0.660148
     16          1           0       -1.724511   -1.290358    1.216733
     17          1           0       -2.018563   -1.769346   -0.451111
     18          1           0       -4.400135   -2.343039    0.128259
     19          1           0       -4.104411   -1.861329    1.805580
     20          1           0       -3.265923   -3.267248    1.127613
     21          6           0        1.441567   -2.098514   -1.739708
     22          6           0        0.889693   -2.285191   -0.468052
     23          6           0        1.130318   -1.361031    0.553015
     24          6           0        1.931079   -0.256567    0.266257
     25          6           0        2.495133   -0.042787   -0.990497
     26          6           0        2.241116   -0.979881   -1.996419
     27          1           0        1.249443   -2.821448   -2.527014
     28          1           0        0.268369   -3.153006   -0.265820
     29          1           0        0.715613   -1.481029    1.546512
     30          1           0        3.110455    0.832096   -1.161890
     31          1           0        2.671022   -0.832336   -2.983058
     32          7           0        2.192906    0.728646    1.339198
     33          8           0        2.901792    1.693405    1.061066
     34          8           0        1.684284    0.517441    2.437985
 ---------------------------------------------------------------------

 SCF Done:  E(RHF) =  -669.533891292     A.U. after   15 cycles
 E2 =    -0.2095497769D+01 EUMP2 =    -0.67162938906169D+03

 The electronic state is 1-A.
 Alpha  occ. eigenvalues --  -20.60838 -20.60832 -15.85875 -11.31165 -11.27736
 Alpha  occ. eigenvalues --  -11.27716 -11.27491 -11.26763 -11.26722 -11.21956
 Alpha  occ. eigenvalues --  -11.21525 -11.21483 -11.21458 -11.21326 -11.20865
 Alpha  occ. eigenvalues --   -1.59905  -1.39461  -1.19355  -1.08766  -1.08532
 Alpha  occ. eigenvalues --   -1.04761  -1.03639  -0.96072  -0.95609  -0.87093
 Alpha  occ. eigenvalues --   -0.86160  -0.82457  -0.79766  -0.78368  -0.77453
 Alpha  occ. eigenvalues --   -0.72097  -0.71223  -0.70482  -0.65215  -0.65012
 Alpha  occ. eigenvalues --   -0.64719  -0.62133  -0.61027  -0.59478  -0.57694
 Alpha  occ. eigenvalues --   -0.55341  -0.55266  -0.53235  -0.52868  -0.52697
 Alpha  occ. eigenvalues --   -0.52499  -0.50002  -0.48858  -0.48850  -0.48060
 Alpha  occ. eigenvalues --   -0.46767  -0.45846  -0.45760  -0.44844  -0.43879
 Alpha  occ. eigenvalues --   -0.37307  -0.36219
 Alpha virt. eigenvalues --    0.05029   0.11145   0.16496   0.20593   0.22933
 Alpha virt. eigenvalues --    0.24031   0.25565   0.26571   0.27444   0.28164
 Alpha virt. eigenvalues --    0.28880   0.30249   0.31158   0.31828   0.32306

 Mulliken charges:
               1
     1  C   -0.301772
     2  C   -0.299573
     3  C   -0.477566
     4  H    0.153122
     5  H    0.148661
     6  H    0.154317
     7  H    0.149571
     8  H    0.150999
     9  H    0.162983
    10  H    0.160497
    11  C   -0.297515
    12  C   -0.302788
    13  C   -0.475299
    14  H    0.152802
    15  H    0.148751
    16  H    0.148863
    17  H    0.149023
    18  H    0.156025
    19  H    0.159183
    20  H    0.154675
    21  C   -0.173189
    22  C   -0.214620
    23  C   -0.168121
    24  C    0.159900
    25  C   -0.171270
    26  C   -0.218710
    27  H    0.225359
    28  H    0.224634
    29  H    0.275440
    30  H    0.275548
    31  H    0.223272
    32  N    0.488099
    33  O   -0.459871
    34  O   -0.461431
 Sum of Mulliken charges =  -0.00000

 Dipole moment (field-independent basis, Debye):
    X=             -0.8959    Y=             -3.3902    Z=             -3.7421  Tot=              5.1284
 Quadrupole moment (field-independent basis, Debye-Ang):
   XX=            -97.8777   YY=            -92.5785   ZZ=            -94.5072
   XY=             -5.4306   XZ=             -9.3802   YZ=             -1.1448

 Normal termination of Gaussian 16 at Thu May  6 08:54:30 2021.
