 Gaussian 16, Revision A.03,
 Gaussian 16:  EM64L-G16RevA.03 25-Dec-2016

 -------------
 #p 6-31g* mp2
 -------------

 ------------------------------------------------------
 Input file generated by CHIRIPA (05-May-2021 14:55:24)
 ------------------------------------------------------
 Symbolic Z-matrix:
 Charge =  0 Multiplicity = 1

                         Standard orientation:
 ---------------------------------------------------------------------
 Center     Atomic      Atomic             Coordinates (Angstroms)
 Number     Number       Type             X           Y           Z
 ---------------------------------------------------------------------
      1          6           0       -2.068135   -2.735089    0.756228
      2          6           0       -1.408121   -1.672387    1.381983
      3          6           0       -1.647695   -0.354087    0.982937
      4          6           0       -2.557687   -0.133771   -0.049858
      5          6           0       -3.230953   -1.171338   -0.692865
      6          6           0       -2.975844   -2.481619   -0.277376
      7          1           0       -1.875994   -3.756061    1.072603
      8          1           0       -0.702662   -1.866255    2.184970
      9          1           0       -1.150568    0.487352    1.450123
     10          1           0       -3.928713   -0.946679   -1.490409
     11          1           0       -3.489869   -3.304964   -0.765154
     12          7           0       -2.819537    1.257609   -0.481014
     13          8           0       -3.625864    1.425196   -1.393367
     14          8           0       -2.213489    2.154240    0.101564
     15          6           0        2.759478    0.833405    0.459415
     16          6           0        2.234082    2.160199   -0.089733
     17          6           0        1.316983    2.885942    0.895164
     18          1           0        1.908700    0.187011    0.714947
     19          1           0        3.301708    1.021396    1.396452
     20          1           0        1.694189    1.969931   -1.026178
     21          1           0        3.086212    2.803435   -0.344166
     22          1           0        1.848466    3.104583    1.827002
     23          1           0        0.448533    2.266343    1.141115
     24          1           0        0.952854    3.831890    0.482304
     25          6           0        3.677723    0.096099   -0.513691
     26          6           0        4.203119   -1.230695    0.035457
     27          6           0        5.120216   -1.956438   -0.949440
     28          1           0        3.135492   -0.091891   -1.450729
     29          1           0        4.528501    0.742493   -0.769223
     30          1           0        3.350988   -1.873931    0.289890
     31          1           0        4.743012   -1.040426    0.971902
     32          1           0        5.988667   -1.336839   -1.195392
     33          1           0        4.588735   -2.175079   -1.881278
     34          1           0        5.484346   -2.902386   -0.536580
 ---------------------------------------------------------------------

 SCF Done:  E(RHF) =  -669.535421923     A.U. after   15 cycles
 E2 =    -0.2092397101D+01 EUMP2 =    -0.67162781902409D+03

 The electronic state is 1-A.
 Alpha  occ. eigenvalues --  -20.60869 -20.60862 -15.85907 -11.31277 -11.27845
 Alpha  occ. eigenvalues --  -11.27841 -11.27580 -11.26863 -11.26853 -11.21782
 Alpha  occ. eigenvalues --  -11.21451 -11.21392 -11.21280 -11.21234 -11.20497
 Alpha  occ. eigenvalues --   -1.59938  -1.39493  -1.19450  -1.08843  -1.08417
 Alpha  occ. eigenvalues --   -1.04853  -1.03431  -0.95874  -0.95670  -0.86883
 Alpha  occ. eigenvalues --   -0.86251  -0.82509  -0.79516  -0.78249  -0.77551
 Alpha  occ. eigenvalues --   -0.72134  -0.71257  -0.70561  -0.65110  -0.65071
 Alpha  occ. eigenvalues --   -0.64840  -0.62234  -0.60798  -0.59259  -0.57477
 Alpha  occ. eigenvalues --   -0.55369  -0.55141  -0.53179  -0.52959  -0.52511
 Alpha  occ. eigenvalues --   -0.52291  -0.49858  -0.48888  -0.48858  -0.47808
 Alpha  occ. eigenvalues --   -0.46546  -0.45777  -0.45686  -0.44861  -0.43690
 Alpha  occ. eigenvalues --   -0.37426  -0.36446
 Alpha virt. eigenvalues --    0.04931   0.11160   0.16396   0.20458   0.22962
 Alpha virt. eigenvalues --    0.24026   0.25744   0.27135   0.27234   0.28027
 Alpha virt. eigenvalues --    0.29337   0.30294   0.31471   0.31841   0.32223

 Mulliken charges:
               1
     1  C   -0.170497
     2  C   -0.221954
     3  C   -0.172422
     4  C    0.155191
     5  C   -0.170261
     6  C   -0.218641
     7  H    0.226118
     8  H    0.225121
     9  H    0.284196
    10  H    0.275920
    11  H    0.223853
    12  N    0.488701
    13  O   -0.459754
    14  O   -0.462232
    15  C   -0.297802
    16  C   -0.300772
    17  C   -0.479290
    18  H    0.140505
    19  H    0.148273
    20  H    0.155335
    21  H    0.151374
    22  H    0.148464
    23  H    0.161580
    24  H    0.169685
    25  C   -0.297907
    26  C   -0.298847
    27  C   -0.475618
    28  H    0.150645
    29  H    0.151145
    30  H    0.147452
    31  H    0.151481
    32  H    0.156504
    33  H    0.155453
    34  H    0.159003
 Sum of Mulliken charges =  -0.00000

 Dipole moment (field-independent basis, Debye):
    X=              0.8050    Y=             -4.8121    Z=              1.4360  Tot=              5.0859
 Quadrupole moment (field-independent basis, Debye-Ang):
   XX=            -97.8053   YY=            -93.1867   ZZ=            -93.3087
   XY=             14.7290   XZ=             -0.8352   YZ=              1.0081

 Normal termination of Gaussian 16 at Thu May  6 20:53:06 2021.
