 Gaussian 16, Revision A.03,
 Gaussian 16:  EM64L-G16RevA.03 25-Dec-2016

 -------------
 #p 6-31g* mp2
 -------------

 ------------------------------------------------------
 Input file generated by CHIRIPA (05-May-2021 14:51:13)
 ------------------------------------------------------
 Symbolic Z-matrix:
 Charge =  0 Multiplicity = 1

                         Standard orientation:
 ---------------------------------------------------------------------
 Center     Atomic      Atomic             Coordinates (Angstroms)
 Number     Number       Type             X           Y           Z
 ---------------------------------------------------------------------
      1          6           0        2.635090    0.084976   -0.238821
      2          6           0        3.974595    0.791456   -0.027639
      3          6           0        3.953421    2.248985   -0.489108
      4          1           0        2.367795    0.130152   -1.303461
      5          1           0        1.850950    0.630983    0.303761
      6          1           0        4.756211    0.243491   -0.569328
      7          1           0        4.238826    0.744425    1.036591
      8          1           0        3.194115    2.815736    0.059388
      9          1           0        3.714440    2.311956   -1.555656
     10          1           0        4.920949    2.734891   -0.328964
     11          6           0        2.640483   -1.372872    0.217663
     12          6           0        1.300978   -2.079352    0.006481
     13          6           0        1.322152   -3.536882    0.467949
     14          1           0        3.424623   -1.918879   -0.324920
     15          1           0        2.907778   -1.418049    1.282302
     16          1           0        1.036747   -2.032322   -1.057750
     17          1           0        0.519362   -1.531388    0.548170
     18          1           0        1.561133   -3.599853    1.534497
     19          1           0        2.081458   -4.103633   -0.080547
     20          1           0        0.354624   -4.022787    0.307806
     21          6           0       -3.080938    0.126096   -0.334208
     22          6           0       -2.839921   -1.301662    0.157117
     23          6           0       -3.733913   -2.326253   -0.542016
     24          1           0       -4.135785    0.388658   -0.175147
     25          1           0       -2.908689    0.167230   -1.418659
     26          1           0       -3.011228   -1.339785    1.240545
     27          1           0       -1.785479   -1.560788   -0.002958
     28          1           0       -3.557767   -2.317542   -1.622524
     29          1           0       -4.790481   -2.095283   -0.371956
     30          1           0       -3.545046   -3.340139   -0.175651
     31          6           0       -2.194636    1.161800    0.355367
     32          6           0       -2.435652    2.589559   -0.135958
     33          6           0       -1.541660    3.614149    0.563175
     34          1           0       -2.366884    1.120666    1.439818
     35          1           0       -1.139787    0.899238    0.196305
     36          1           0       -3.490094    2.848685    0.024117
     37          1           0       -2.264345    2.627682   -1.219386
     38          1           0       -0.485092    3.383179    0.393115
     39          1           0       -1.717806    3.605438    1.643682
     40          1           0       -1.730528    4.628036    0.196810
 ---------------------------------------------------------------------

 SCF Done:  E(RHF) =  -470.733235625     A.U. after   11 cycles
 E2 =    -0.1583771048D+01 EUMP2 =    -0.47231700667257D+03

 The electronic state is 1-A.
 Alpha  occ. eigenvalues --  -11.21645 -11.21639 -11.21593 -11.21518 -11.21463
 Alpha  occ. eigenvalues --  -11.21400 -11.21384 -11.21322 -11.21109 -11.21108
 Alpha  occ. eigenvalues --  -11.21076 -11.21044  -1.08491  -1.08400  -1.03588
 Alpha  occ. eigenvalues --   -1.03495  -0.96025  -0.95958  -0.87040  -0.86974
 Alpha  occ. eigenvalues --   -0.79720  -0.79513  -0.78413  -0.78116  -0.65187
 Alpha  occ. eigenvalues --   -0.64968  -0.61038  -0.60860  -0.59450  -0.59269
 Alpha  occ. eigenvalues --   -0.57684  -0.57521  -0.55319  -0.55234  -0.52723
 Alpha  occ. eigenvalues --   -0.52647  -0.52458  -0.52376  -0.49990  -0.49880
 Alpha  occ. eigenvalues --   -0.48145  -0.47780  -0.46820  -0.46474  -0.46270
 Alpha  occ. eigenvalues --   -0.45799  -0.45720  -0.45125  -0.43827  -0.43756
 Alpha virt. eigenvalues --    0.20561   0.22358   0.23492   0.24322   0.25334
 Alpha virt. eigenvalues --    0.26423   0.26828   0.27079   0.28213   0.29620
 Alpha virt. eigenvalues --    0.30990   0.31320   0.31462   0.31742   0.32300

 Mulliken charges:
               1
     1  C   -0.301346
     2  C   -0.299636
     3  C   -0.475989
     4  H    0.149377
     5  H    0.151646
     6  H    0.152240
     7  H    0.152295
     8  H    0.155262
     9  H    0.155160
    10  H    0.160630
    11  C   -0.297409
    12  C   -0.306364
    13  C   -0.476530
    14  H    0.149729
    15  H    0.149951
    16  H    0.151204
    17  H    0.158374
    18  H    0.155512
    19  H    0.155486
    20  H    0.160995
    21  C   -0.297366
    22  C   -0.309400
    23  C   -0.475150
    24  H    0.149453
    25  H    0.149341
    26  H    0.150893
    27  H    0.163284
    28  H    0.154938
    29  H    0.155001
    30  H    0.159682
    31  C   -0.303329
    32  C   -0.299348
    33  C   -0.476151
    34  H    0.148945
    35  H    0.153893
    36  H    0.152051
    37  H    0.152190
    38  H    0.155070
    39  H    0.154941
    40  H    0.160474
 Sum of Mulliken charges =  -0.00000

 Dipole moment (field-independent basis, Debye):
    X=              0.0405    Y=             -0.0117    Z=              0.0013  Tot=              0.0422
 Quadrupole moment (field-independent basis, Debye-Ang):
   XX=            -84.5929   YY=            -86.5656   ZZ=            -83.6320
   XY=             -0.8667   XZ=             -0.9680   YZ=              0.2893

 Normal termination of Gaussian 16 at Wed May  5 16:51:14 2021.
