 Gaussian 16, Revision A.03,
 Gaussian 16:  EM64L-G16RevA.03 25-Dec-2016

 -------------
 #p 6-31g* mp2
 -------------

 ------------------------------------------------------
 Input file generated by CHIRIPA (05-May-2021 14:55:23)
 ------------------------------------------------------
 Symbolic Z-matrix:
 Charge =  0 Multiplicity = 1

                         Standard orientation:
 ---------------------------------------------------------------------
 Center     Atomic      Atomic             Coordinates (Angstroms)
 Number     Number       Type             X           Y           Z
 ---------------------------------------------------------------------
      1          6           0       -1.598300    0.373321   -0.161568
      2          6           0       -2.523189    1.414318   -0.293581
      3          6           0       -3.896017    1.155399   -0.240189
      4          6           0       -4.310798   -0.162220   -0.052764
      5          6           0       -3.413933   -1.220874    0.082048
      6          6           0       -2.045834   -0.938639    0.025495
      7          1           0       -0.533691    0.583512   -0.204272
      8          1           0       -2.178505    2.434173   -0.438954
      9          1           0       -4.633764    1.942347   -0.339490
     10          1           0       -3.787850   -2.227303    0.225941
     11          1           0       -1.329831   -1.749078    0.128322
     12          7           0       -5.761646   -0.448668    0.005433
     13          8           0       -6.101471   -1.618114    0.171418
     14          8           0       -6.531524    0.501685   -0.116040
     15          6           0        4.731667    0.732615   -0.021459
     16          6           0        3.353761    0.501243    0.599692
     17          6           0        2.404536    1.681184    0.388730
     18          1           0        5.173084    1.641724    0.409374
     19          1           0        4.614019    0.921926   -1.097431
     20          1           0        3.474091    0.311055    1.673919
     21          1           0        2.915656   -0.407527    0.167471
     22          1           0        2.254971    1.869084   -0.679411
     23          1           0        2.816580    2.591750    0.835598
     24          1           0        1.425395    1.494533    0.840728
     25          6           0        5.691835   -0.438190    0.181089
     26          6           0        7.069740   -0.206818   -0.440062
     27          6           0        8.018965   -1.386759   -0.229100
     28          1           0        5.809483   -0.627501    1.257061
     29          1           0        5.250418   -1.347299   -0.249743
     30          1           0        7.507846    0.701953   -0.007841
     31          1           0        6.949410   -0.016630   -1.514289
     32          1           0        7.606922   -2.297325   -0.675968
     33          1           0        8.168530   -1.574660    0.839041
     34          1           0        8.998107   -1.200108   -0.681098
 ---------------------------------------------------------------------

 SCF Done:  E(RHF) =  -669.535594591     A.U. after   15 cycles
 E2 =    -0.2090726747D+01 EUMP2 =    -0.67162632133799D+03

 The electronic state is 1-A.
 Alpha  occ. eigenvalues --  -20.60724 -20.60719 -15.85777 -11.31134 -11.27703
 Alpha  occ. eigenvalues --  -11.27699 -11.27391 -11.26711 -11.26700 -11.22647
 Alpha  occ. eigenvalues --  -11.22357 -11.22194 -11.22143 -11.22026 -11.21524
 Alpha  occ. eigenvalues --   -1.59800  -1.39353  -1.19303  -1.09208  -1.08696
 Alpha  occ. eigenvalues --   -1.04707  -1.04346  -0.96809  -0.95533  -0.87829
 Alpha  occ. eigenvalues --   -0.86102  -0.82369  -0.80418  -0.78973  -0.77420
 Alpha  occ. eigenvalues --   -0.71995  -0.71123  -0.70425  -0.65833  -0.64953
 Alpha  occ. eigenvalues --   -0.64713  -0.62056  -0.61736  -0.60249  -0.58409
 Alpha  occ. eigenvalues --   -0.56103  -0.55215  -0.53472  -0.53207  -0.53026
 Alpha  occ. eigenvalues --   -0.52796  -0.50732  -0.48763  -0.48751  -0.48715
 Alpha  occ. eigenvalues --   -0.47436  -0.46526  -0.46420  -0.44761  -0.44585
 Alpha  occ. eigenvalues --   -0.37276  -0.36315
 Alpha virt. eigenvalues --    0.05102   0.11339   0.16548   0.19893   0.22440
 Alpha virt. eigenvalues --    0.23721   0.25872   0.26391   0.26678   0.27404
 Alpha virt. eigenvalues --    0.29194   0.30566   0.30774   0.31303   0.31910

 Mulliken charges:
               1
     1  C   -0.178225
     2  C   -0.220850
     3  C   -0.170846
     4  C    0.158324
     5  C   -0.170793
     6  C   -0.220359
     7  H    0.236848
     8  H    0.223769
     9  H    0.275401
    10  H    0.275326
    11  H    0.223362
    12  N    0.488040
    13  O   -0.460603
    14  O   -0.460568
    15  C   -0.298948
    16  C   -0.299928
    17  C   -0.483105
    18  H    0.152011
    19  H    0.150457
    20  H    0.155801
    21  H    0.148652
    22  H    0.155024
    23  H    0.162480
    24  H    0.154575
    25  C   -0.298854
    26  C   -0.300240
    27  C   -0.476110
    28  H    0.150809
    29  H    0.149639
    30  H    0.152959
    31  H    0.152551
    32  H    0.155557
    33  H    0.155931
    34  H    0.161911
 Sum of Mulliken charges =  -0.00000

 Dipole moment (field-independent basis, Debye):
    X=              5.3876    Y=              1.0373    Z=             -0.1892  Tot=              5.4898
 Quadrupole moment (field-independent basis, Debye-Ang):
   XX=           -138.8032   YY=            -90.7030   ZZ=            -94.7582
   XY=             -5.4760   XZ=              1.0962   YZ=             -0.3158

 Normal termination of Gaussian 16 at Thu May  6 01:32:14 2021.
