 Gaussian 16, Revision A.03,
 Gaussian 16:  EM64L-G16RevA.03 25-Dec-2016

 -------------
 #p 6-31g* mp2
 -------------

 ------------------------------------------------------
 Input file generated by CHIRIPA (05-May-2021 14:57:24)
 ------------------------------------------------------
 Symbolic Z-matrix:
 Charge =  0 Multiplicity = 1

                         Standard orientation:
 ---------------------------------------------------------------------
 Center     Atomic      Atomic             Coordinates (Angstroms)
 Number     Number       Type             X           Y           Z
 ---------------------------------------------------------------------
      1          6           0       -1.800215    0.386134   -0.595163
      2          6           0       -2.734690    1.426939   -0.594088
      3          6           0       -4.073845    1.178463   -0.278697
      4          6           0       -4.445543   -0.128630    0.032167
      5          6           0       -3.538076   -1.186806    0.039683
      6          6           0       -2.204178   -0.915123   -0.278832
      7          1           0       -0.761969    0.588170   -0.841379
      8          1           0       -2.423814    2.438495   -0.839357
      9          1           0       -4.818086    1.965517   -0.270289
     10          1           0       -3.877971   -2.184826    0.288373
     11          1           0       -1.480632   -1.725386   -0.278872
     12          7           0       -5.860464   -0.403965    0.367710
     13          8           0       -6.162604   -1.564254    0.638042
     14          8           0       -6.640548    0.545729    0.354025
     15          6           0        3.070379    2.332949    0.049476
     16          6           0        2.537517    1.286295   -0.710189
     17          6           0        3.161844    0.035584   -0.732240
     18          6           0        4.322748   -0.134241    0.020588
     19          6           0        4.878062    0.888960    0.787385
     20          6           0        4.236896    2.131297    0.794524
     21          1           0        2.578847    3.301279    0.060814
     22          1           0        1.631707    1.440025   -1.289776
     23          1           0        2.770856   -0.792002   -1.311591
     24          1           0        5.782308    0.705417    1.354896
     25          1           0        4.652982    2.942330    1.385408
     26          7           0        4.992609   -1.453880    0.005137
     27          8           0        6.014279   -1.577918    0.677031
     28          8           0        4.483294   -2.339187   -0.678578
 ---------------------------------------------------------------------

 SCF Done:  E(RHF) =  -868.336617378     A.U. after   16 cycles
 E2 =    -0.2599610997D+01 EUMP2 =    -0.87093622837519D+03

 The electronic state is 1-A.
 Alpha  occ. eigenvalues --  -20.61462 -20.61448 -20.61079 -20.61071 -15.86520
 Alpha  occ. eigenvalues --  -15.86135 -11.32021 -11.31606 -11.28700 -11.28581
 Alpha  occ. eigenvalues --  -11.28411 -11.28197 -11.28153 -11.28058 -11.27798
 Alpha  occ. eigenvalues --  -11.27590 -11.27299 -11.27219  -1.60531  -1.60151
 Alpha  occ. eigenvalues --   -1.40081  -1.39701  -1.20226  -1.19798  -1.09592
 Alpha  occ. eigenvalues --   -1.09198  -1.05667  -1.05210  -0.96398  -0.96012
 Alpha  occ. eigenvalues --   -0.87058  -0.86618  -0.83246  -0.82831  -0.78268
 Alpha  occ. eigenvalues --   -0.77839  -0.72734  -0.72352  -0.71857  -0.71474
 Alpha  occ. eigenvalues --   -0.71327  -0.70991  -0.65885  -0.65703  -0.65461
 Alpha  occ. eigenvalues --   -0.65222  -0.63022  -0.62549  -0.56176  -0.55802
 Alpha  occ. eigenvalues --   -0.53957  -0.53747  -0.53539  -0.53312  -0.49504
 Alpha  occ. eigenvalues --   -0.49480  -0.49120  -0.49099  -0.45457  -0.45082
 Alpha  occ. eigenvalues --   -0.38199  -0.37818  -0.37268  -0.36802
 Alpha virt. eigenvalues --    0.04291   0.04688   0.10318   0.10842   0.15627
 Alpha virt. eigenvalues --    0.16147   0.18208   0.21895   0.24729   0.26657
 Alpha virt. eigenvalues --    0.27590   0.28774   0.29787   0.31443   0.32146

 Mulliken charges:
               1
     1  C   -0.172036
     2  C   -0.219433
     3  C   -0.170301
     4  C    0.159058
     5  C   -0.169973
     6  C   -0.219545
     7  H    0.219099
     8  H    0.220099
     9  H    0.276496
    10  H    0.278117
    11  H    0.226916
    12  N    0.487899
    13  O   -0.458504
    14  O   -0.459787
    15  C   -0.169627
    16  C   -0.222387
    17  C   -0.171512
    18  C    0.159213
    19  C   -0.168902
    20  C   -0.218194
    21  H    0.226592
    22  H    0.216732
    23  H    0.274053
    24  H    0.278700
    25  H    0.226801
    26  N    0.488125
    27  O   -0.457405
    28  O   -0.460297
 Sum of Mulliken charges =  -0.00000

 Dipole moment (field-independent basis, Debye):
    X=              2.7516    Y=              5.5617    Z=             -0.9837  Tot=              6.2826
 Quadrupole moment (field-independent basis, Debye-Ang):
   XX=           -165.9691   YY=           -101.3537   ZZ=           -104.3250
   XY=             16.1195   XZ=              8.5821   YZ=              0.9514

 Normal termination of Gaussian 16 at Wed May  5 17:53:47 2021.
