 Gaussian 16, Revision A.03,
 Gaussian 16:  EM64L-G16RevA.03 25-Dec-2016

 -------------
 #p 6-31g* mp2
 -------------

 ------------------------------------------------------
 Input file generated by CHIRIPA (05-May-2021 14:55:20)
 ------------------------------------------------------
 Symbolic Z-matrix:
 Charge =  0 Multiplicity = 1

                         Standard orientation:
 ---------------------------------------------------------------------
 Center     Atomic      Atomic             Coordinates (Angstroms)
 Number     Number       Type             X           Y           Z
 ---------------------------------------------------------------------
      1          6           0       -1.641445   -2.278017    1.211702
      2          6           0       -0.758820   -1.237659    0.903239
      3          6           0       -1.217888   -0.084215    0.260301
      4          6           0       -2.571987   -0.004177   -0.061103
      5          6           0       -3.476116   -1.023669    0.232966
      6          6           0       -2.994890   -2.167896    0.876172
      7          1           0       -1.276223   -3.170460    1.711256
      8          1           0        0.292804   -1.320436    1.162624
      9          1           0       -0.556426    0.736233    0.009799
     10          1           0       -4.518943   -0.912229   -0.038166
     11          1           0       -3.682638   -2.974275    1.114502
     12          7           0       -3.069711    1.212044   -0.741895
     13          8           0       -4.267304    1.258137   -1.014445
     14          8           0       -2.252809    2.096195   -0.990060
     15          6           0        3.676593   -0.301210   -0.228978
     16          6           0        2.999703   -1.543512   -0.809056
     17          6           0        3.991927   -2.661337   -1.131168
     18          1           0        4.426693    0.066698   -0.942377
     19          1           0        4.222943   -0.581616    0.682214
     20          1           0        2.453654   -1.260581   -1.718119
     21          1           0        2.250994   -1.908394   -0.094276
     22          1           0        4.528607   -2.971896   -0.228877
     23          1           0        4.732417   -2.320402   -1.861947
     24          1           0        3.486711   -3.539768   -1.544659
     25          6           0        2.697694    0.825050    0.098163
     26          6           0        3.374584    2.067352    0.678241
     27          6           0        2.382361    3.185177    1.000352
     28          1           0        2.151344    1.105456   -0.813029
     29          1           0        1.947595    0.457142    0.811563
     30          1           0        4.123294    2.432234   -0.036540
     31          1           0        3.920635    1.784421    1.587304
     32          1           0        1.641870    2.844242    1.731132
     33          1           0        1.845681    3.495736    0.098062
     34          1           0        2.887578    4.063607    1.413844
 ---------------------------------------------------------------------

 SCF Done:  E(RHF) =  -669.534848169     A.U. after   15 cycles
 E2 =    -0.2093105994D+01 EUMP2 =    -0.67162795416280D+03

 The electronic state is 1-A.
 Alpha  occ. eigenvalues --  -20.60697 -20.60692 -15.85748 -11.31082 -11.27670
 Alpha  occ. eigenvalues --  -11.27601 -11.27410 -11.26683 -11.26620 -11.22384
 Alpha  occ. eigenvalues --  -11.22225 -11.22079 -11.22058 -11.21694 -11.21297
 Alpha  occ. eigenvalues --   -1.59772  -1.39326  -1.19260  -1.09133  -1.08664
 Alpha  occ. eigenvalues --   -1.04659  -1.04103  -0.96540  -0.95501  -0.87552
 Alpha  occ. eigenvalues --   -0.86065  -0.82351  -0.80180  -0.79034  -0.77346
 Alpha  occ. eigenvalues --   -0.71968  -0.71094  -0.70373  -0.65848  -0.64911
 Alpha  occ. eigenvalues --   -0.64634  -0.62019  -0.61490  -0.59922  -0.58154
 Alpha  occ. eigenvalues --   -0.55819  -0.55179  -0.53208  -0.53005  -0.52969
 Alpha  occ. eigenvalues --   -0.52739  -0.50483  -0.48734  -0.48724  -0.48465
 Alpha  occ. eigenvalues --   -0.47214  -0.46455  -0.46382  -0.44738  -0.44395
 Alpha  occ. eigenvalues --   -0.37249  -0.36249
 Alpha virt. eigenvalues --    0.05137   0.11331   0.16583   0.19681   0.22897
 Alpha virt. eigenvalues --    0.23141   0.24834   0.25861   0.27189   0.28191
 Alpha virt. eigenvalues --    0.29911   0.30589   0.31356   0.31466   0.32008

 Mulliken charges:
               1
     1  C   -0.171768
     2  C   -0.223910
     3  C   -0.176471
     4  C    0.158530
     5  C   -0.170556
     6  C   -0.218940
     7  H    0.225094
     8  H    0.229824
     9  H    0.281228
    10  H    0.275170
    11  H    0.222959
    12  N    0.488153
    13  O   -0.460871
    14  O   -0.460805
    15  C   -0.298547
    16  C   -0.302687
    17  C   -0.475911
    18  H    0.154761
    19  H    0.149970
    20  H    0.157223
    21  H    0.142811
    22  H    0.155125
    23  H    0.158799
    24  H    0.161523
    25  C   -0.307282
    26  C   -0.299242
    27  C   -0.479241
    28  H    0.156145
    29  H    0.140742
    30  H    0.155514
    31  H    0.152051
    32  H    0.153832
    33  H    0.163440
    34  H    0.163336
 Sum of Mulliken charges =  -0.00000

 Dipole moment (field-independent basis, Debye):
    X=              1.9627    Y=             -4.1582    Z=              2.2874  Tot=              5.1356
 Quadrupole moment (field-independent basis, Debye-Ang):
   XX=            -99.3270   YY=            -94.7759   ZZ=            -95.0104
   XY=             13.9795   XZ=             -6.5305   YZ=             -0.3118

 Normal termination of Gaussian 16 at Thu May  6 10:50:39 2021.
