 Gaussian 16, Revision A.03,
 Gaussian 16:  EM64L-G16RevA.03 25-Dec-2016

 -------------
 #p 6-31g* mp2
 -------------

 ------------------------------------------------------
 Input file generated by CHIRIPA (05-May-2021 14:57:21)
 ------------------------------------------------------
 Symbolic Z-matrix:
 Charge =  0 Multiplicity = 1

                         Standard orientation:
 ---------------------------------------------------------------------
 Center     Atomic      Atomic             Coordinates (Angstroms)
 Number     Number       Type             X           Y           Z
 ---------------------------------------------------------------------
      1          6           0        1.755003    1.999927   -1.050843
      2          6           0        3.002159    2.092840   -0.424354
      3          6           0        3.654047    0.943964    0.033550
      4          6           0        3.027107   -0.287162   -0.152363
      5          6           0        1.785033   -0.412353   -0.772742
      6          6           0        1.151484    0.749831   -1.222735
      7          1           0        1.255724    2.897570   -1.403481
      8          1           0        3.473231    3.062351   -0.289505
      9          1           0        4.619994    0.987113    0.521917
     10          1           0        1.340432   -1.392819   -0.892885
     11          1           0        0.182972    0.674656   -1.708923
     12          7           0        3.707524   -1.510469    0.328212
     13          8           0        3.134093   -2.583266    0.152365
     14          8           0        4.801381   -1.373338    0.871633
     15          6           0       -1.695225    2.006785    1.321064
     16          6           0       -2.164164    0.943645    2.099749
     17          6           0       -2.841298   -0.126138    1.506787
     18          6           0       -3.032886   -0.100192    0.126240
     19          6           0       -2.577640    0.944595   -0.676544
     20          6           0       -1.903093    2.003872   -0.062159
     21          1           0       -1.170217    2.833736    1.790011
     22          1           0       -2.004167    0.943238    3.174199
     23          1           0       -3.214896   -0.961932    2.085831
     24          1           0       -2.752255    0.916886   -1.745262
     25          1           0       -1.540016    2.828184   -0.669390
     26          7           0       -3.748367   -1.227161   -0.512842
     27          8           0       -3.904390   -1.180567   -1.731088
     28          8           0       -4.139591   -2.135736    0.216592
 ---------------------------------------------------------------------

 SCF Done:  E(RHF) =  -868.335293275     A.U. after   16 cycles
 E2 =    -0.2602942606D+01 EUMP2 =    -0.87093823588153D+03

 The electronic state is 1-A.
 Alpha  occ. eigenvalues --  -20.61364 -20.61340 -20.60996 -20.60981 -15.86414
 Alpha  occ. eigenvalues --  -15.86044 -11.31933 -11.31511 -11.28554 -11.28418
 Alpha  occ. eigenvalues --  -11.28218 -11.28074 -11.27997 -11.27916 -11.27640
 Alpha  occ. eigenvalues --  -11.27451 -11.27190 -11.27068  -1.60430  -1.60065
 Alpha  occ. eigenvalues --   -1.39979  -1.39615  -1.20112  -1.19686  -1.09466
 Alpha  occ. eigenvalues --   -1.09093  -1.05566  -1.05076  -0.96274  -0.95910
 Alpha  occ. eigenvalues --   -0.86934  -0.86502  -0.83119  -0.82723  -0.78164
 Alpha  occ. eigenvalues --   -0.77729  -0.72623  -0.72261  -0.71763  -0.71391
 Alpha  occ. eigenvalues --   -0.71183  -0.70865  -0.65768  -0.65590  -0.65323
 Alpha  occ. eigenvalues --   -0.65118  -0.62903  -0.62417  -0.55994  -0.55696
 Alpha  occ. eigenvalues --   -0.54113  -0.53634  -0.53331  -0.53004  -0.49397
 Alpha  occ. eigenvalues --   -0.49373  -0.49030  -0.49009  -0.45350  -0.44997
 Alpha  occ. eigenvalues --   -0.38343  -0.37676  -0.37166  -0.36345
 Alpha virt. eigenvalues --    0.04342   0.04774   0.10149   0.11242   0.15764
 Alpha virt. eigenvalues --    0.16195   0.19116   0.21980   0.25282   0.26184
 Alpha virt. eigenvalues --    0.28024   0.28722   0.29996   0.31180   0.32653

 Mulliken charges:
               1
     1  C   -0.176877
     2  C   -0.218876
     3  C   -0.172274
     4  C    0.159069
     5  C   -0.174122
     6  C   -0.209092
     7  H    0.217216
     8  H    0.222395
     9  H    0.275924
    10  H    0.279242
    11  H    0.223902
    12  N    0.487670
    13  O   -0.457623
    14  O   -0.460490
    15  C   -0.166725
    16  C   -0.216969
    17  C   -0.169654
    18  C    0.159744
    19  C   -0.181967
    20  C   -0.216573
    21  H    0.226803
    22  H    0.227831
    23  H    0.279578
    24  H    0.274066
    25  H    0.216843
    26  N    0.487776
    27  O   -0.461052
    28  O   -0.455765
 Sum of Mulliken charges =  -0.00000

 Dipole moment (field-independent basis, Debye):
    X=             -0.0032    Y=              8.0638    Z=              0.8052  Tot=              8.1039
 Quadrupole moment (field-independent basis, Debye-Ang):
   XX=           -132.5043   YY=           -106.8243   ZZ=            -99.8371
   XY=              4.1855   XZ=            -10.8465   YZ=             -0.7926

 Normal termination of Gaussian 16 at Wed May  5 20:54:16 2021.
