 Gaussian 16, Revision A.03,
 Gaussian 16:  EM64L-G16RevA.03 25-Dec-2016

 -------------
 #p 6-31g* mp2
 -------------

 ------------------------------------------------------
 Input file generated by CHIRIPA (05-May-2021 14:53:18)
 ------------------------------------------------------
 Symbolic Z-matrix:
 Charge =  0 Multiplicity = 1

                         Standard orientation:
 ---------------------------------------------------------------------
 Center     Atomic      Atomic             Coordinates (Angstroms)
 Number     Number       Type             X           Y           Z
 ---------------------------------------------------------------------
      1          6           0       -4.987112   -0.332808   -0.227607
      2          6           0       -6.057648    0.636189    0.275366
      3          6           0       -7.403078    0.446553   -0.425813
      4          1           0       -4.859924   -0.198753   -1.310565
      5          1           0       -5.336859   -1.363854   -0.079226
      6          1           0       -5.705402    1.665086    0.127350
      7          1           0       -6.182167    0.499945    1.357285
      8          1           0       -7.780155   -0.569024   -0.267649
      9          1           0       -7.300682    0.602737   -1.504573
     10          1           0       -8.153707    1.149357   -0.051004
     11          6           0       -3.636496   -0.155539    0.463869
     12          6           0       -2.565960   -1.124536   -0.039105
     13          6           0       -1.220531   -0.934900    0.662075
     14          1           0       -3.286750    0.875507    0.315488
     15          1           0       -3.763685   -0.289594    1.546826
     16          1           0       -2.441441   -0.988292   -1.121024
     17          1           0       -2.918206   -2.153433    0.108912
     18          1           0       -1.322927   -1.091084    1.740835
     19          1           0       -0.843453    0.080677    0.503911
     20          1           0       -0.469901   -1.637704    0.287266
     21          6           0        3.940143   -2.266562   -0.121024
     22          6           0        2.630077   -1.849525   -0.378568
     23          6           0        2.301982   -0.490583   -0.365279
     24          6           0        3.313342    0.428325   -0.089512
     25          6           0        4.627796    0.044104    0.171017
     26          6           0        4.933071   -1.320084    0.152464
     27          1           0        4.186151   -3.324258   -0.133392
     28          1           0        1.856914   -2.582344   -0.591266
     29          1           0        1.295893   -0.140125   -0.561192
     30          1           0        5.377003    0.798092    0.379845
     31          1           0        5.951336   -1.641066    0.352840
     32          7           0        2.978082    1.869754   -0.072656
     33          8           0        3.887261    2.659492    0.172995
     34          8           0        1.812474    2.182514   -0.305418
 ---------------------------------------------------------------------

 SCF Done:  E(RHF) =  -669.534775804     A.U. after   15 cycles
 E2 =    -0.2092091505D+01 EUMP2 =    -0.67162686730869D+03

 The electronic state is 1-A.
 Alpha  occ. eigenvalues --  -20.60751 -20.60745 -15.85796 -11.31093 -11.27697
 Alpha  occ. eigenvalues --  -11.27593 -11.27444 -11.26699 -11.26679 -11.21923
 Alpha  occ. eigenvalues --  -11.21585 -11.21581 -11.21488 -11.21414 -11.21050
 Alpha  occ. eigenvalues --   -1.59819  -1.39376  -1.19285  -1.08695  -1.08555
 Alpha  occ. eigenvalues --   -1.04693  -1.03713  -0.96193  -0.95529  -0.87224
 Alpha  occ. eigenvalues --   -0.86083  -0.82376  -0.79794  -0.78338  -0.77416
 Alpha  occ. eigenvalues --   -0.72020  -0.71138  -0.70414  -0.65193  -0.64949
 Alpha  occ. eigenvalues --   -0.64701  -0.62166  -0.61059  -0.59538  -0.57774
 Alpha  occ. eigenvalues --   -0.55512  -0.55146  -0.53136  -0.52894  -0.52724
 Alpha  occ. eigenvalues --   -0.52529  -0.50064  -0.48775  -0.48769  -0.48087
 Alpha  occ. eigenvalues --   -0.46776  -0.45888  -0.45783  -0.44790  -0.43963
 Alpha  occ. eigenvalues --   -0.37277  -0.36263
 Alpha virt. eigenvalues --    0.05092   0.11346   0.16541   0.20503   0.22921
 Alpha virt. eigenvalues --    0.24070   0.26211   0.26440   0.27131   0.27880
 Alpha virt. eigenvalues --    0.28728   0.30150   0.31388   0.31819   0.32559

 Mulliken charges:
               1
     1  C   -0.298557
     2  C   -0.300145
     3  C   -0.475844
     4  H    0.150218
     5  H    0.148413
     6  H    0.154303
     7  H    0.152044
     8  H    0.154444
     9  H    0.155479
    10  H    0.160929
    11  C   -0.300185
    12  C   -0.299637
    13  C   -0.487884
    14  H    0.155900
    15  H    0.150286
    16  H    0.151994
    17  H    0.151143
    18  H    0.160722
    19  H    0.169584
    20  H    0.147936
    21  C   -0.170479
    22  C   -0.223553
    23  C   -0.170404
    24  C    0.155705
    25  C   -0.170339
    26  C   -0.219242
    27  H    0.225298
    28  H    0.223574
    29  H    0.284448
    30  H    0.275219
    31  H    0.223073
    32  N    0.488547
    33  O   -0.460230
    34  O   -0.462762
 Sum of Mulliken charges =  -0.00000

 Dipole moment (field-independent basis, Debye):
    X=              1.0517    Y=             -4.9794    Z=             -0.0119  Tot=              5.0892
 Quadrupole moment (field-independent basis, Debye-Ang):
   XX=            -83.1926   YY=            -99.2272   ZZ=            -94.9953
   XY=            -15.3618   XZ=              0.2258   YZ=              0.2112

 Normal termination of Gaussian 16 at Thu May  6 12:18:03 2021.
