 Gaussian 16, Revision A.03,
 Gaussian 16:  EM64L-G16RevA.03 25-Dec-2016

 -------------
 #p 6-31g* mp2
 -------------

 ------------------------------------------------------
 Input file generated by CHIRIPA (05-May-2021 14:53:15)
 ------------------------------------------------------
 Symbolic Z-matrix:
 Charge =  0 Multiplicity = 1

                         Standard orientation:
 ---------------------------------------------------------------------
 Center     Atomic      Atomic             Coordinates (Angstroms)
 Number     Number       Type             X           Y           Z
 ---------------------------------------------------------------------
      1          6           0       -3.607617    0.111481    0.497070
      2          6           0       -4.048047   -1.248211   -0.046295
      3          6           0       -4.709991   -2.123905    1.018028
      4          1           0       -2.910811   -0.042794    1.332297
      5          1           0       -4.481313    0.633497    0.911256
      6          1           0       -3.174025   -1.766927   -0.460581
      7          1           0       -4.743737   -1.090679   -0.880450
      8          1           0       -5.598488   -1.630350    1.424942
      9          1           0       -4.019856   -2.310441    1.847196
     10          1           0       -5.017008   -3.091116    0.608025
     11          6           0       -2.944130    0.998305   -0.555098
     12          6           0       -2.503700    2.357996   -0.011734
     13          6           0       -1.841756    3.233690   -1.076057
     14          1           0       -2.070434    0.476289   -0.969284
     15          1           0       -3.640936    1.152580   -1.390325
     16          1           0       -1.808010    2.200464    0.822422
     17          1           0       -3.377722    2.876713    0.402553
     18          1           0       -2.531891    3.420227   -1.905224
     19          1           0       -0.953259    2.740136   -1.482970
     20          1           0       -1.534739    4.200902   -0.666054
     21          6           0        4.582202    0.884035    0.755994
     22          6           0        4.708166   -0.102312   -0.227762
     23          6           0        3.594102   -0.838496   -0.641819
     24          6           0        2.363707   -0.560886   -0.048228
     25          6           0        2.206079    0.415425    0.934249
     26          6           0        3.333762    1.139305    1.332843
     27          1           0        5.452924    1.451142    1.071636
     28          1           0        5.676477   -0.302711   -0.677494
     29          1           0        3.663271   -1.607750   -1.401347
     30          1           0        1.227704    0.592507    1.364183
     31          1           0        3.232966    1.904722    2.097055
     32          7           0        1.177089   -1.333738   -0.478387
     33          8           0        0.104182   -1.070010    0.060088
     34          8           0        1.342394   -2.188593   -1.345873
 ---------------------------------------------------------------------

 SCF Done:  E(RHF) =  -669.536558747     A.U. after   15 cycles
 E2 =    -0.2091785170D+01 EUMP2 =    -0.67162834391704D+03

 The electronic state is 1-A.
 Alpha  occ. eigenvalues --  -20.61086 -20.61080 -15.86102 -11.31368 -11.27924
 Alpha  occ. eigenvalues --  -11.27919 -11.27649 -11.26917 -11.26907 -11.20950
 Alpha  occ. eigenvalues --  -11.20621 -11.20303 -11.20232 -11.20171 -11.20028
 Alpha  occ. eigenvalues --   -1.60137  -1.39695  -1.19530  -1.08945  -1.07371
 Alpha  occ. eigenvalues --   -1.04917  -1.02609  -0.95797  -0.95064  -0.86320
 Alpha  occ. eigenvalues --   -0.86100  -0.82633  -0.78681  -0.77694  -0.77150
 Alpha  occ. eigenvalues --   -0.72335  -0.71446  -0.70638  -0.65194  -0.64919
 Alpha  occ. eigenvalues --   -0.63949  -0.62265  -0.59999  -0.58473  -0.56677
 Alpha  occ. eigenvalues --   -0.55423  -0.54340  -0.53250  -0.53008  -0.51833
 Alpha  occ. eigenvalues --   -0.51510  -0.49116  -0.49075  -0.49009  -0.47014
 Alpha  occ. eigenvalues --   -0.45727  -0.45189  -0.44726  -0.44379  -0.42812
 Alpha  occ. eigenvalues --   -0.37504  -0.36514
 Alpha virt. eigenvalues --    0.04799   0.11133   0.16284   0.20837   0.23367
 Alpha virt. eigenvalues --    0.25032   0.26490   0.27465   0.28346   0.28881
 Alpha virt. eigenvalues --    0.29092   0.30993   0.31743   0.32392   0.32621

 Mulliken charges:
               1
     1  C   -0.294527
     2  C   -0.304015
     3  C   -0.475173
     4  H    0.152042
     5  H    0.141744
     6  H    0.170578
     7  H    0.146166
     8  H    0.149781
     9  H    0.155390
    10  H    0.157965
    11  C   -0.304621
    12  C   -0.297301
    13  C   -0.475081
    14  H    0.170317
    15  H    0.144061
    16  H    0.144943
    17  H    0.148779
    18  H    0.155470
    19  H    0.153939
    20  H    0.154595
    21  C   -0.170354
    22  C   -0.218568
    23  C   -0.170541
    24  C    0.157761
    25  C   -0.171200
    26  C   -0.218477
    27  H    0.226367
    28  H    0.224109
    29  H    0.275973
    30  H    0.276225
    31  H    0.224373
    32  N    0.489952
    33  O   -0.462706
    34  O   -0.457965
 Sum of Mulliken charges =  -0.00000

 Dipole moment (field-independent basis, Debye):
    X=              4.5111    Y=              2.5145    Z=              1.4425  Tot=              5.3623
 Quadrupole moment (field-independent basis, Debye-Ang):
   XX=            -74.2160   YY=            -98.0605   ZZ=            -93.7807
   XY=              2.1460   XZ=              2.1615   YZ=              1.5642

 Normal termination of Gaussian 16 at Thu May  6 01:07:35 2021.
