 Gaussian 16, Revision A.03,
 Gaussian 16:  EM64L-G16RevA.03 25-Dec-2016

 -------------
 #p 6-31g* mp2
 -------------

 ------------------------------------------------------
 Input file generated by CHIRIPA (05-May-2021 14:55:21)
 ------------------------------------------------------
 Symbolic Z-matrix:
 Charge =  0 Multiplicity = 1

                         Standard orientation:
 ---------------------------------------------------------------------
 Center     Atomic      Atomic             Coordinates (Angstroms)
 Number     Number       Type             X           Y           Z
 ---------------------------------------------------------------------
      1          6           0        1.807606    2.623135   -0.904172
      2          6           0        1.472205    2.412469    0.437337
      3          6           0        1.780033    1.201463    1.064437
      4          6           0        2.426525    0.218444    0.316765
      5          6           0        2.773735    0.398228   -1.021298
      6          6           0        2.456157    1.617116   -1.627932
      7          1           0        1.564691    3.566935   -1.383369
      8          1           0        0.968502    3.191971    1.001876
      9          1           0        1.531885    1.011806    2.101678
     10          1           0        3.275535   -0.397630   -1.558163
     11          1           0        2.717840    1.777937   -2.669903
     12          7           0        2.757570   -1.067766    0.969815
     13          8           0        3.327397   -1.917925    0.289253
     14          8           0        2.440947   -1.201385    2.149871
     15          6           0       -3.774808   -0.502769   -0.079428
     16          6           0       -4.177827    0.875150    0.446784
     17          6           0       -5.658570    0.955828    0.819188
     18          1           0       -4.388909   -0.747100   -0.956997
     19          1           0       -4.003881   -1.260120    0.683028
     20          1           0       -3.946785    1.629840   -0.315894
     21          1           0       -3.562563    1.116310    1.323088
     22          1           0       -5.900557    0.224477    1.597114
     23          1           0       -6.286962    0.740924   -0.051180
     24          1           0       -5.924980    1.949401    1.192951
     25          6           0       -2.297422   -0.599123   -0.455957
     26          6           0       -1.894403   -1.977042   -0.982169
     27          6           0       -0.413660   -2.057720   -1.354574
     28          1           0       -2.068348    0.158227   -1.218414
     29          1           0       -1.683320   -0.354793    0.421612
     30          1           0       -2.509667   -2.218203   -1.858472
     31          1           0       -2.125445   -2.731733   -0.219491
     32          1           0        0.214732   -1.842817   -0.484205
     33          1           0       -0.171672   -1.326369   -2.132500
     34          1           0       -0.147251   -3.051293   -1.728337
 ---------------------------------------------------------------------

 SCF Done:  E(RHF) =  -669.535488252     A.U. after   15 cycles
 E2 =    -0.2092615629D+01 EUMP2 =    -0.67162810388109D+03

 The electronic state is 1-A.
 Alpha  occ. eigenvalues --  -20.60801 -20.60787 -15.85838 -11.31174 -11.27766
 Alpha  occ. eigenvalues --  -11.27745 -11.27501 -11.26775 -11.26765 -11.21758
 Alpha  occ. eigenvalues --  -11.21467 -11.21423 -11.21343 -11.21202 -11.20866
 Alpha  occ. eigenvalues --   -1.59874  -1.39425  -1.19360  -1.08764  -1.08437
 Alpha  occ. eigenvalues --   -1.04760  -1.03520  -0.95963  -0.95600  -0.86982
 Alpha  occ. eigenvalues --   -0.86159  -0.82431  -0.79598  -0.78253  -0.77479
 Alpha  occ. eigenvalues --   -0.72061  -0.71217  -0.70471  -0.65066  -0.65015
 Alpha  occ. eigenvalues --   -0.64767  -0.62110  -0.60914  -0.59335  -0.57583
 Alpha  occ. eigenvalues --   -0.55273  -0.55245  -0.53142  -0.52856  -0.52643
 Alpha  occ. eigenvalues --   -0.52352  -0.49914  -0.48821  -0.48817  -0.47905
 Alpha  occ. eigenvalues --   -0.46638  -0.45785  -0.45715  -0.44818  -0.43769
 Alpha  occ. eigenvalues --   -0.37313  -0.36344
 Alpha virt. eigenvalues --    0.05033   0.11261   0.16526   0.21393   0.22820
 Alpha virt. eigenvalues --    0.24218   0.26454   0.27249   0.27296   0.27932
 Alpha virt. eigenvalues --    0.28378   0.30659   0.31379   0.31794   0.32064

 Mulliken charges:
               1
     1  C   -0.170586
     2  C   -0.217588
     3  C   -0.171734
     4  C    0.155974
     5  C   -0.168691
     6  C   -0.219091
     7  H    0.225538
     8  H    0.223578
     9  H    0.275327
    10  H    0.276010
    11  H    0.223359
    12  N    0.490269
    13  O   -0.458884
    14  O   -0.460876
    15  C   -0.298381
    16  C   -0.298904
    17  C   -0.475598
    18  H    0.149452
    19  H    0.151589
    20  H    0.149123
    21  H    0.150091
    22  H    0.156649
    23  H    0.155498
    24  H    0.159003
    25  C   -0.297707
    26  C   -0.300464
    27  C   -0.474379
    28  H    0.146439
    29  H    0.149343
    30  H    0.150393
    31  H    0.155405
    32  H    0.155662
    33  H    0.149649
    34  H    0.164533
 Sum of Mulliken charges =  -0.00000

 Dipole moment (field-independent basis, Debye):
    X=             -1.1191    Y=              4.4719    Z=             -2.3035  Tot=              5.1533
 Quadrupole moment (field-independent basis, Debye-Ang):
   XX=           -101.4276   YY=            -92.5847   ZZ=            -92.0416
   XY=             10.3366   XZ=             -7.6130   YZ=              2.1419

 Normal termination of Gaussian 16 at Thu May  6 07:45:18 2021.
