 Gaussian 16, Revision A.03,
 Gaussian 16:  EM64L-G16RevA.03 25-Dec-2016

 -------------
 #p 6-31g* mp2
 -------------

 ------------------------------------------------------
 Input file generated by CHIRIPA (05-May-2021 14:53:12)
 ------------------------------------------------------
 Symbolic Z-matrix:
 Charge =  0 Multiplicity = 1

                         Standard orientation:
 ---------------------------------------------------------------------
 Center     Atomic      Atomic             Coordinates (Angstroms)
 Number     Number       Type             X           Y           Z
 ---------------------------------------------------------------------
      1          6           0       -3.275923   -0.416116    0.087921
      2          6           0       -3.416776   -1.651292   -0.802296
      3          6           0       -3.561069   -2.944858   -0.000011
      4          1           0       -2.403320   -0.541989    0.743410
      5          1           0       -4.153245   -0.344806    0.745656
      6          1           0       -2.540107   -1.719480   -1.459120
      7          1           0       -4.289032   -1.522380   -1.455875
      8          1           0       -4.445688   -2.902348    0.643606
      9          1           0       -2.686825   -3.100568    0.640343
     10          1           0       -3.660375   -3.815226   -0.656104
     11          6           0       -3.130768    0.884846   -0.699580
     12          6           0       -2.989915    2.120022    0.190636
     13          6           0       -2.845622    3.413588   -0.611648
     14          1           0       -2.253446    0.813537   -1.357316
     15          1           0       -4.003371    1.010719   -1.355069
     16          1           0       -2.117659    1.991110    0.844216
     17          1           0       -3.866584    2.188210    0.847460
     18          1           0       -3.719866    3.569298   -1.252003
     19          1           0       -1.961003    3.371078   -1.255265
     20          1           0       -2.746316    4.283956    0.044445
     21          6           0        0.411671   -0.591628    1.590589
     22          6           0        1.201267    0.534410    1.845733
     23          6           0        2.361904    0.770805    1.103042
     24          6           0        2.704758   -0.143602    0.108256
     25          6           0        1.938777   -1.274656   -0.169739
     26          6           0        0.782292   -1.490981    0.585441
     27          1           0       -0.488327   -0.767470    2.172380
     28          1           0        0.915880    1.234557    2.625728
     29          1           0        2.991459    1.634468    1.279574
     30          1           0        2.248998   -1.954705   -0.953776
     31          1           0        0.170997   -2.366323    0.385093
     32          7           0        3.931274    0.096035   -0.684608
     33          8           0        4.211605   -0.724665   -1.555528
     34          8           0        4.589062    1.100026   -0.420121
 ---------------------------------------------------------------------

 SCF Done:  E(RHF) =  -669.535266352     A.U. after   15 cycles
 E2 =    -0.2093036590D+01 EUMP2 =    -0.67162830294146D+03

 The electronic state is 1-A.
 Alpha  occ. eigenvalues --  -20.60823 -20.60818 -15.85878 -11.31270 -11.27843
 Alpha  occ. eigenvalues --  -11.27839 -11.27578 -11.26863 -11.26852 -11.22416
 Alpha  occ. eigenvalues --  -11.22198 -11.22188 -11.22037 -11.21964 -11.21500
 Alpha  occ. eigenvalues --   -1.59898  -1.39451  -1.19449  -1.09156  -1.08831
 Alpha  occ. eigenvalues --   -1.04851  -1.04232  -0.96682  -0.95670  -0.87693
 Alpha  occ. eigenvalues --   -0.86247  -0.82500  -0.80301  -0.78966  -0.77537
 Alpha  occ. eigenvalues --   -0.72095  -0.71222  -0.70584  -0.65824  -0.65095
 Alpha  occ. eigenvalues --   -0.64811  -0.62219  -0.61599  -0.60054  -0.58295
 Alpha  occ. eigenvalues --   -0.56056  -0.55314  -0.53365  -0.53193  -0.53086
 Alpha  occ. eigenvalues --   -0.52923  -0.50621  -0.48855  -0.48849  -0.48616
 Alpha  occ. eigenvalues --   -0.47343  -0.46502  -0.46390  -0.44850  -0.44477
 Alpha  occ. eigenvalues --   -0.37383  -0.36450
 Alpha virt. eigenvalues --    0.04955   0.11070   0.16336   0.18849   0.22916
 Alpha virt. eigenvalues --    0.23135   0.25572   0.26138   0.26672   0.27906
 Alpha virt. eigenvalues --    0.29740   0.29870   0.31043   0.31106   0.31534

 Mulliken charges:
               1
     1  C   -0.301169
     2  C   -0.301448
     3  C   -0.476025
     4  H    0.142580
     5  H    0.150431
     6  H    0.152410
     7  H    0.156629
     8  H    0.158778
     9  H    0.144574
    10  H    0.164354
    11  C   -0.298274
    12  C   -0.300026
    13  C   -0.476397
    14  H    0.153730
    15  H    0.152001
    16  H    0.147068
    17  H    0.151536
    18  H    0.156794
    19  H    0.158307
    20  H    0.160496
    21  C   -0.170353
    22  C   -0.220283
    23  C   -0.170929
    24  C    0.158749
    25  C   -0.171327
    26  C   -0.220970
    27  H    0.227375
    28  H    0.224345
    29  H    0.276075
    30  H    0.276150
    31  H    0.227088
    32  N    0.488031
    33  O   -0.460168
    34  O   -0.460131
 Sum of Mulliken charges =  -0.00000

 Dipole moment (field-independent basis, Debye):
    X=             -4.3793    Y=             -0.7925    Z=              2.6903  Tot=              5.2004
 Quadrupole moment (field-independent basis, Debye-Ang):
   XX=           -117.2492   YY=            -92.1595   ZZ=            -93.4759
   XY=             -1.0356   XZ=              8.0368   YZ=              2.5039

 Normal termination of Gaussian 16 at Wed May  5 20:08:24 2021.
