 Gaussian 16, Revision A.03,
 Gaussian 16:  EM64L-G16RevA.03 25-Dec-2016

 -------------
 #p 6-31g* mp2
 -------------

 ------------------------------------------------------
 Input file generated by CHIRIPA (05-May-2021 14:51:10)
 ------------------------------------------------------
 Symbolic Z-matrix:
 Charge =  0 Multiplicity = 1

                         Standard orientation:
 ---------------------------------------------------------------------
 Center     Atomic      Atomic             Coordinates (Angstroms)
 Number     Number       Type             X           Y           Z
 ---------------------------------------------------------------------
      1          6           0       -3.935509    0.354848   -0.370813
      2          6           0       -3.278830    1.577553    0.270864
      3          6           0       -1.874731    1.847100   -0.271028
      4          1           0       -3.300443   -0.525534   -0.201798
      5          1           0       -3.983263    0.501590   -1.458738
      6          1           0       -3.233583    1.429149    1.357393
      7          1           0       -3.915627    2.455090    0.100467
      8          1           0       -1.905614    2.021073   -1.351482
      9          1           0       -1.219695    0.989303   -0.087414
     10          1           0       -1.423897    2.725466    0.201286
     11          6           0       -5.339634    0.072470    0.160621
     12          6           0       -5.996313   -1.150236   -0.481056
     13          6           0       -7.400412   -1.419783    0.060835
     14          1           0       -5.291880   -0.074272    1.248546
     15          1           0       -5.974700    0.952851   -0.008394
     16          1           0       -5.359516   -2.027772   -0.310659
     17          1           0       -6.041560   -1.001831   -1.567585
     18          1           0       -8.055448   -0.561986   -0.122778
     19          1           0       -7.369529   -1.593756    1.141289
     20          1           0       -7.851246   -2.298149   -0.411478
     21          6           0        3.930553   -0.015462   -0.105321
     22          6           0        2.870612   -0.342339    0.947135
     23          6           0        1.461290    0.060069    0.511618
     24          1           0        3.905088    1.061683   -0.319922
     25          1           0        3.675594   -0.527234   -1.043660
     26          1           0        3.128240    0.168786    1.883614
     27          1           0        2.898733   -1.418801    1.159395
     28          1           0        1.179512   -0.460066   -0.409610
     29          1           0        1.410322    1.136542    0.318724
     30          1           0        0.719371   -0.182631    1.278764
     31          6           0        5.344590   -0.411855    0.315513
     32          6           0        6.404531   -0.084978   -0.736942
     33          6           0        7.813852   -0.487386   -0.301425
     34          1           0        5.599548    0.099918    1.253852
     35          1           0        5.370055   -1.489000    0.530115
     36          1           0        6.376409    0.991484   -0.949203
     37          1           0        6.146903   -0.596104   -1.673422
     38          1           0        7.864820   -1.563859   -0.108531
     39          1           0        8.095630    0.032748    0.619803
     40          1           0        8.555772   -0.244688   -1.068572
 ---------------------------------------------------------------------

 SCF Done:  E(RHF) =  -470.733035804     A.U. after   11 cycles
 E2 =    -0.1582401967D+01 EUMP2 =    -0.47231543777149D+03

 The electronic state is 1-A.
 Alpha  occ. eigenvalues --  -11.21597 -11.21592 -11.21572 -11.21512 -11.21400
 Alpha  occ. eigenvalues --  -11.21356 -11.21341 -11.21294 -11.21068 -11.21068
 Alpha  occ. eigenvalues --  -11.21049 -11.20882  -1.08428  -1.08372  -1.03541
 Alpha  occ. eigenvalues --   -1.03451  -0.96025  -0.95870  -0.87088  -0.86847
 Alpha  occ. eigenvalues --   -0.79675  -0.79452  -0.78246  -0.78177  -0.65057
 Alpha  occ. eigenvalues --   -0.65005  -0.60935  -0.60862  -0.59358  -0.59278
 Alpha  occ. eigenvalues --   -0.57599  -0.57514  -0.55302  -0.55188  -0.52799
 Alpha  occ. eigenvalues --   -0.52599  -0.52446  -0.52194  -0.49946  -0.49792
 Alpha  occ. eigenvalues --   -0.47972  -0.47773  -0.46635  -0.46545  -0.45812
 Alpha  occ. eigenvalues --   -0.45705  -0.45694  -0.45634  -0.43760  -0.43714
 Alpha virt. eigenvalues --    0.22530   0.22957   0.23720   0.24750   0.26325
 Alpha virt. eigenvalues --    0.26603   0.26986   0.27507   0.27678   0.29066
 Alpha virt. eigenvalues --    0.30195   0.31091   0.31515   0.31808   0.32262

 Mulliken charges:
               1
     1  C   -0.298285
     2  C   -0.299428
     3  C   -0.483601
     4  H    0.149490
     5  H    0.149364
     6  H    0.151214
     7  H    0.151254
     8  H    0.153980
     9  H    0.168463
    10  H    0.158604
    11  C   -0.298197
    12  C   -0.299599
    13  C   -0.475665
    14  H    0.149346
    15  H    0.149578
    16  H    0.151823
    17  H    0.151857
    18  H    0.155143
    19  H    0.155112
    20  H    0.160125
    21  C   -0.298452
    22  C   -0.300823
    23  C   -0.477223
    24  H    0.149833
    25  H    0.149561
    26  H    0.151920
    27  H    0.151637
    28  H    0.155105
    29  H    0.158747
    30  H    0.159144
    31  C   -0.298309
    32  C   -0.299619
    33  C   -0.475701
    34  H    0.149506
    35  H    0.149596
    36  H    0.151983
    37  H    0.151938
    38  H    0.155152
    39  H    0.155171
    40  H    0.160257
 Sum of Mulliken charges =  -0.00000

 Dipole moment (field-independent basis, Debye):
    X=              0.0399    Y=             -0.0063    Z=             -0.0034  Tot=              0.0405
 Quadrupole moment (field-independent basis, Debye-Ang):
   XX=            -87.0515   YY=            -83.7996   ZZ=            -84.2188
   XY=             -0.1102   XZ=              0.4553   YZ=              0.0993

 Normal termination of Gaussian 16 at Wed May  5 21:25:48 2021.
