 Gaussian 16, Revision A.03,
 Gaussian 16:  EM64L-G16RevA.03 25-Dec-2016

 -------------
 #p 6-31g* mp2
 -------------

 ------------------------------------------------------
 Input file generated by CHIRIPA (05-May-2021 14:53:15)
 ------------------------------------------------------
 Symbolic Z-matrix:
 Charge =  0 Multiplicity = 1

                         Standard orientation:
 ---------------------------------------------------------------------
 Center     Atomic      Atomic             Coordinates (Angstroms)
 Number     Number       Type             X           Y           Z
 ---------------------------------------------------------------------
      1          6           0       -2.728365    0.624515    0.517077
      2          6           0       -2.862667    2.135531    0.708857
      3          6           0       -1.641476    2.756063    1.388142
      4          1           0       -2.570324    0.149796    1.495141
      5          1           0       -1.829965    0.416172   -0.080306
      6          1           0       -3.761307    2.341042    1.304531
      7          1           0       -3.020597    2.606689   -0.269756
      8          1           0       -0.739114    2.580247    0.793640
      9          1           0       -1.484032    2.313090    2.376873
     10          1           0       -1.758725    3.836773    1.515337
     11          6           0       -3.941329   -0.010307   -0.160749
     12          6           0       -3.807027   -1.521322   -0.352530
     13          6           0       -5.028217   -2.141854   -1.031815
     14          1           0       -4.839728    0.198037    0.436634
     15          1           0       -4.099369    0.464413   -1.138813
     16          1           0       -3.649096   -1.992480    0.626084
     17          1           0       -2.908387   -1.726833   -0.948204
     18          1           0       -5.185661   -1.698882   -2.020545
     19          1           0       -5.930579   -1.966038   -0.437313
     20          1           0       -4.910969   -3.222564   -1.159009
     21          6           0        2.682432   -2.551145    0.869891
     22          6           0        3.867147   -1.835171    0.669013
     23          6           0        3.836388   -0.553818    0.110679
     24          6           0        2.597897   -0.016485   -0.236745
     25          6           0        1.400283   -0.704803   -0.049048
     26          6           0        1.454945   -1.984674    0.510853
     27          1           0        2.715610   -3.545955    1.304227
     28          1           0        4.821865   -2.272597    0.946894
     29          1           0        4.738332    0.022546   -0.055814
     30          1           0        0.463695   -0.242388   -0.336087
     31          1           0        0.533284   -2.538395    0.665707
     32          7           0        2.552681    1.339242   -0.828657
     33          8           0        1.448803    1.790371   -1.126267
     34          8           0        3.621976    1.925060   -0.983780
 ---------------------------------------------------------------------

 SCF Done:  E(RHF) =  -669.536165573     A.U. after   15 cycles
 E2 =    -0.2092223045D+01 EUMP2 =    -0.67162838861809D+03

 The electronic state is 1-A.
 Alpha  occ. eigenvalues --  -20.60903 -20.60889 -15.85923 -11.31203 -11.27773
 Alpha  occ. eigenvalues --  -11.27741 -11.27506 -11.26777 -11.26750 -11.21983
 Alpha  occ. eigenvalues --  -11.21597 -11.21532 -11.21360 -11.21346 -11.20490
 Alpha  occ. eigenvalues --   -1.59953  -1.39511  -1.19373  -1.08786  -1.08546
 Alpha  occ. eigenvalues --   -1.04764  -1.03528  -0.95960  -0.95634  -0.86981
 Alpha  occ. eigenvalues --   -0.86170  -0.82468  -0.79633  -0.78402  -0.77509
 Alpha  occ. eigenvalues --   -0.72149  -0.71260  -0.70495  -0.65200  -0.65029
 Alpha  occ. eigenvalues --   -0.64749  -0.62125  -0.60898  -0.59379  -0.57582
 Alpha  occ. eigenvalues --   -0.55311  -0.55192  -0.53100  -0.52886  -0.52635
 Alpha  occ. eigenvalues --   -0.52372  -0.49904  -0.48911  -0.48895  -0.47928
 Alpha  occ. eigenvalues --   -0.46669  -0.45894  -0.45806  -0.44873  -0.43820
 Alpha  occ. eigenvalues --   -0.37356  -0.36361
 Alpha virt. eigenvalues --    0.04963   0.11275   0.16445   0.19948   0.22999
 Alpha virt. eigenvalues --    0.23999   0.24981   0.26612   0.27868   0.28172
 Alpha virt. eigenvalues --    0.30149   0.30450   0.31556   0.31733   0.32143

 Mulliken charges:
               1
     1  C   -0.305614
     2  C   -0.297701
     3  C   -0.486131
     4  H    0.146342
     5  H    0.148659
     6  H    0.150134
     7  H    0.156400
     8  H    0.174883
     9  H    0.148826
    10  H    0.161300
    11  C   -0.297283
    12  C   -0.299796
    13  C   -0.475493
    14  H    0.151240
    15  H    0.153474
    16  H    0.148706
    17  H    0.146440
    18  H    0.157659
    19  H    0.156656
    20  H    0.159079
    21  C   -0.170365
    22  C   -0.219130
    23  C   -0.169852
    24  C    0.157421
    25  C   -0.178743
    26  C   -0.223413
    27  H    0.225744
    28  H    0.223476
    29  H    0.275546
    30  H    0.289800
    31  H    0.225118
    32  N    0.487617
    33  O   -0.462434
    34  O   -0.458567
 Sum of Mulliken charges =  -0.00000

 Dipole moment (field-independent basis, Debye):
    X=              0.1839    Y=             -4.6693    Z=              2.0177  Tot=              5.0900
 Quadrupole moment (field-independent basis, Debye-Ang):
   XX=            -89.0332   YY=            -95.3375   ZZ=            -96.1328
   XY=            -12.7496   XZ=              5.3066   YZ=              0.4689

 Normal termination of Gaussian 16 at Thu May  6 17:11:14 2021.
