 Gaussian 16, Revision A.03,
 Gaussian 16:  EM64L-G16RevA.03 25-Dec-2016

 -------------
 #p 6-31g* mp2
 -------------

 ------------------------------------------------------
 Input file generated by CHIRIPA (05-May-2021 14:57:25)
 ------------------------------------------------------
 Symbolic Z-matrix:
 Charge =  0 Multiplicity = 1

                         Standard orientation:
 ---------------------------------------------------------------------
 Center     Atomic      Atomic             Coordinates (Angstroms)
 Number     Number       Type             X           Y           Z
 ---------------------------------------------------------------------
      1          6           0       -0.958171    0.485968   -0.866905
      2          6           0       -1.996205    1.317092   -1.300769
      3          6           0       -3.323986    1.022779   -0.976847
      4          6           0       -3.578834   -0.115840   -0.214030
      5          6           0       -2.566444   -0.963451    0.233084
      6          6           0       -1.246096   -0.649649   -0.102710
      7          1           0        0.070394    0.722167   -1.123147
      8          1           0       -1.775560    2.199691   -1.894386
      9          1           0       -4.146858    1.648966   -1.299631
     10          1           0       -2.817598   -1.836276    0.823437
     11          1           0       -0.441964   -1.296919    0.235608
     12          7           0       -4.980561   -0.437732    0.135176
     13          8           0       -5.178738   -1.446761    0.808395
     14          8           0       -5.854517    0.325093   -0.270947
     15          6           0        1.728985    1.504386    1.562753
     16          6           0        1.670281    0.111494    1.676451
     17          6           0        2.562216   -0.697113    0.965708
     18          6           0        3.504314   -0.076580    0.146758
     19          6           0        3.587942    1.308439    0.012521
     20          6           0        2.685942    2.097367    0.732616
     21          1           0        1.032200    2.124888    2.118507
     22          1           0        0.928144   -0.351773    2.320393
     23          1           0        2.538949   -1.777873    1.035236
     24          1           0        4.338792    1.741271   -0.637323
     25          1           0        2.733858    3.178851    0.642379
     26          7           0        4.453894   -0.922200   -0.610623
     27          8           0        5.274553   -0.351048   -1.325424
     28          8           0        4.359534   -2.140138   -0.475116
 ---------------------------------------------------------------------

 SCF Done:  E(RHF) =  -868.336439537     A.U. after   16 cycles
 E2 =    -0.2602962634D+01 EUMP2 =    -0.87093940217119D+03

 The electronic state is 1-A.
 Alpha  occ. eigenvalues --  -20.61690 -20.61685 -20.61094 -20.61089 -15.86752
 Alpha  occ. eigenvalues --  -15.86151 -11.32337 -11.31549 -11.28899 -11.28877
 Alpha  occ. eigenvalues --  -11.28568 -11.28147 -11.28140 -11.27906 -11.27895
 Alpha  occ. eigenvalues --  -11.27794 -11.27123 -11.27098  -1.60765  -1.60171
 Alpha  occ. eigenvalues --   -1.40311  -1.39723  -1.20525  -1.19734  -1.09849
 Alpha  occ. eigenvalues --   -1.09099  -1.05952  -1.05148  -0.96640  -0.95929
 Alpha  occ. eigenvalues --   -0.87302  -0.86531  -0.83475  -0.82768  -0.78514
 Alpha  occ. eigenvalues --   -0.77822  -0.72954  -0.72365  -0.72102  -0.71523
 Alpha  occ. eigenvalues --   -0.71499  -0.70798  -0.66138  -0.65926  -0.65374
 Alpha  occ. eigenvalues --   -0.65158  -0.63266  -0.62479  -0.56328  -0.55673
 Alpha  occ. eigenvalues --   -0.54280  -0.53985  -0.53413  -0.53169  -0.49732
 Alpha  occ. eigenvalues --   -0.49705  -0.49128  -0.49120  -0.45669  -0.45122
 Alpha  occ. eigenvalues --   -0.38746  -0.37777  -0.37300  -0.36651
 Alpha virt. eigenvalues --    0.03926   0.04765   0.09692   0.11244   0.15259
 Alpha virt. eigenvalues --    0.16298   0.19873   0.21509   0.25284   0.27148
 Alpha virt. eigenvalues --    0.27818   0.28074   0.29907   0.30976   0.31518

 Mulliken charges:
               1
     1  C   -0.171746
     2  C   -0.221707
     3  C   -0.170594
     4  C    0.158096
     5  C   -0.173305
     6  C   -0.221078
     7  H    0.232093
     8  H    0.223277
     9  H    0.276243
    10  H    0.275135
    11  H    0.219594
    12  N    0.488085
    13  O   -0.460263
    14  O   -0.459751
    15  C   -0.171558
    16  C   -0.221529
    17  C   -0.179908
    18  C    0.158400
    19  C   -0.173080
    20  C   -0.222985
    21  H    0.232218
    22  H    0.227830
    23  H    0.277192
    24  H    0.279081
    25  H    0.227474
    26  N    0.488035
    27  O   -0.457253
    28  O   -0.457996
 Sum of Mulliken charges =  -0.00000

 Dipole moment (field-independent basis, Debye):
    X=              1.8098    Y=              4.2366    Z=              1.4709  Tot=              4.8361
 Quadrupole moment (field-independent basis, Debye-Ang):
   XX=           -162.9477   YY=            -99.1128   ZZ=           -102.5434
   XY=              6.7523   XZ=             12.2862   YZ=             -3.8753

 Normal termination of Gaussian 16 at Wed May  5 18:00:00 2021.
