 Gaussian 16, Revision A.03,
 Gaussian 16:  EM64L-G16RevA.03 25-Dec-2016

 -------------
 #p 6-31g* mp2
 -------------

 ------------------------------------------------------
 Input file generated by CHIRIPA (05-May-2021 14:57:23)
 ------------------------------------------------------
 Symbolic Z-matrix:
 Charge =  0 Multiplicity = 1

                         Standard orientation:
 ---------------------------------------------------------------------
 Center     Atomic      Atomic             Coordinates (Angstroms)
 Number     Number       Type             X           Y           Z
 ---------------------------------------------------------------------
      1          6           0        4.490988    1.850694    0.796347
      2          6           0        3.277624    1.524725    1.411175
      3          6           0        2.578427    0.373579    1.036295
      4          6           0        3.124114   -0.432655    0.038546
      5          6           0        4.330761   -0.134761   -0.592763
      6          6           0        5.012764    1.021372   -0.201899
      7          1           0        5.027463    2.746869    1.093771
      8          1           0        2.870017    2.166934    2.186719
      9          1           0        1.637089    0.097509    1.495737
     10          1           0        4.711912   -0.794476   -1.362774
     11          1           0        5.954870    1.272038   -0.681116
     12          7           0        2.393006   -1.653962   -0.366783
     13          8           0        2.895008   -2.347766   -1.248410
     14          8           0        1.331806   -1.894292    0.204822
     15          6           0       -2.680367    2.548957   -0.927748
     16          6           0       -3.899823    2.311895   -0.284904
     17          6           0       -4.222993    1.031776    0.174884
     18          6           0       -3.299158    0.007313   -0.025843
     19          6           0       -2.076101    0.211877   -0.662692
     20          6           0       -1.773996    1.500040   -1.114262
     21          1           0       -2.437502    3.546508   -1.281731
     22          1           0       -4.605645    3.124592   -0.138677
     23          1           0       -5.159925    0.820345    0.675758
     24          1           0       -1.392770   -0.618334   -0.793938
     25          1           0       -0.826203    1.681220   -1.613167
     26          7           0       -3.630134   -1.352149    0.456564
     27          8           0       -2.799122   -2.237755    0.267464
     28          8           0       -4.714298   -1.506349    1.014640
 ---------------------------------------------------------------------

 SCF Done:  E(RHF) =  -868.337542214     A.U. after   16 cycles
 E2 =    -0.2599683442D+01 EUMP2 =    -0.87093722565611D+03

 The electronic state is 1-A.
 Alpha  occ. eigenvalues --  -20.61101 -20.61088 -20.60147 -20.60080 -15.86129
 Alpha  occ. eigenvalues --  -15.85173 -11.31551 -11.30715 -11.28115 -11.28112
 Alpha  occ. eigenvalues --  -11.27865 -11.27376 -11.27203 -11.27179 -11.27140
 Alpha  occ. eigenvalues --  -11.27129 -11.26433 -11.26384  -1.60166  -1.59199
 Alpha  occ. eigenvalues --   -1.39715  -1.38739  -1.19729  -1.18935  -1.09112
 Alpha  occ. eigenvalues --   -1.08312  -1.05129  -1.04357  -0.95931  -0.95100
 Alpha  occ. eigenvalues --   -0.86523  -0.85747  -0.82752  -0.81921  -0.77801
 Alpha  occ. eigenvalues --   -0.76916  -0.72322  -0.71508  -0.71377  -0.70819
 Alpha  occ. eigenvalues --   -0.70536  -0.70034  -0.65370  -0.65120  -0.64581
 Alpha  occ. eigenvalues --   -0.64366  -0.62466  -0.61667  -0.55621  -0.54888
 Alpha  occ. eigenvalues --   -0.53473  -0.53210  -0.52703  -0.52440  -0.49103
 Alpha  occ. eigenvalues --   -0.49086  -0.48181  -0.48116  -0.45096  -0.44105
 Alpha  occ. eigenvalues --   -0.37720  -0.36968  -0.36744  -0.35979
 Alpha virt. eigenvalues --    0.04682   0.05598   0.10902   0.11664   0.16145
 Alpha virt. eigenvalues --    0.17023   0.21061   0.21812   0.26975   0.27533
 Alpha virt. eigenvalues --    0.27997   0.28801   0.30651   0.31333   0.32113

 Mulliken charges:
               1
     1  C   -0.171296
     2  C   -0.219254
     3  C   -0.174276
     4  C    0.156378
     5  C   -0.171395
     6  C   -0.218756
     7  H    0.226298
     8  H    0.224408
     9  H    0.277851
    10  H    0.276684
    11  H    0.224461
    12  N    0.486477
    13  O   -0.457365
    14  O   -0.457300
    15  C   -0.171874
    16  C   -0.219676
    17  C   -0.171356
    18  C    0.156219
    19  C   -0.176924
    20  C   -0.222475
    21  H    0.222247
    22  H    0.221068
    23  H    0.274520
    24  H    0.292803
    25  H    0.221182
    26  N    0.486441
    27  O   -0.449943
    28  O   -0.465145
 Sum of Mulliken charges =  -0.00000

 Dipole moment (field-independent basis, Debye):
    X=              3.9665    Y=              8.8490    Z=             -0.2558  Tot=              9.7007
 Quadrupole moment (field-independent basis, Debye-Ang):
   XX=            -90.9078   YY=           -108.9401   ZZ=           -103.0337
   XY=             -5.5553   XZ=              5.7839   YZ=              1.0442

 Normal termination of Gaussian 16 at Thu May  6 12:59:07 2021.
