 Gaussian 16, Revision A.03,
 Gaussian 16:  EM64L-G16RevA.03 25-Dec-2016

 -------------
 #p 6-31g* mp2
 -------------

 ------------------------------------------------------
 Input file generated by CHIRIPA (05-May-2021 14:53:15)
 ------------------------------------------------------
 Symbolic Z-matrix:
 Charge =  0 Multiplicity = 1

                         Standard orientation:
 ---------------------------------------------------------------------
 Center     Atomic      Atomic             Coordinates (Angstroms)
 Number     Number       Type             X           Y           Z
 ---------------------------------------------------------------------
      1          6           0        4.224159   -0.119307   -0.051230
      2          6           0        3.337624   -0.976640    0.852663
      3          6           0        1.846760   -0.708523    0.644742
      4          1           0        4.011260    0.941917    0.136978
      5          1           0        3.959208   -0.309963   -1.100442
      6          1           0        3.605113   -0.785452    1.899808
      7          1           0        3.552795   -2.035943    0.662418
      8          1           0        1.558444   -0.917647   -0.390507
      9          1           0        1.611059    0.339949    0.853914
     10          1           0        1.231401   -1.332003    1.300842
     11          6           0        5.717266   -0.375936    0.144987
     12          6           0        6.603800    0.481396   -0.758906
     13          6           0        8.094664    0.213279   -0.550986
     14          1           0        5.982216   -0.185281    1.194199
     15          1           0        5.930164   -1.437161   -0.043222
     16          1           0        6.388629    1.540700   -0.568661
     17          1           0        6.336311    0.290209   -1.806052
     18          1           0        8.330365   -0.835193   -0.760157
     19          1           0        8.382980    0.422403    0.484264
     20          1           0        8.710023    0.836759   -1.207085
     21          6           0       -2.203175    2.026609    0.390478
     22          6           0       -1.817961    0.685941    0.494111
     23          6           0       -2.740494   -0.338028    0.259662
     24          6           0       -4.045803    0.016232   -0.077914
     25          6           0       -4.460098    1.342621   -0.188996
     26          6           0       -3.520692    2.350101    0.049855
     27          1           0       -1.479975    2.815648    0.574314
     28          1           0       -0.795441    0.431758    0.758477
     29          1           0       -2.469183   -1.384179    0.332982
     30          1           0       -5.486575    1.564860   -0.454278
     31          1           0       -3.822676    3.390416   -0.031352
     32          7           0       -5.031381   -1.059069   -0.328445
     33          8           0       -6.175299   -0.720672   -0.624374
     34          8           0       -4.641295   -2.219927   -0.224140
 ---------------------------------------------------------------------

 SCF Done:  E(RHF) =  -669.535441566     A.U. after   15 cycles
 E2 =    -0.2091074213D+01 EUMP2 =    -0.67162651577895D+03

 The electronic state is 1-A.
 Alpha  occ. eigenvalues --  -20.60682 -20.60677 -15.85733 -11.31073 -11.27639
 Alpha  occ. eigenvalues --  -11.27610 -11.27364 -11.26662 -11.26543 -11.22437
 Alpha  occ. eigenvalues --  -11.22279 -11.22064 -11.22045 -11.21895 -11.21434
 Alpha  occ. eigenvalues --   -1.59758  -1.39312  -1.19235  -1.09071  -1.08637
 Alpha  occ. eigenvalues --   -1.04632  -1.04216  -0.96705  -0.95479  -0.87750
 Alpha  occ. eigenvalues --   -0.86026  -0.82310  -0.80306  -0.78846  -0.77354
 Alpha  occ. eigenvalues --   -0.71952  -0.71080  -0.70354  -0.65700  -0.64885
 Alpha  occ. eigenvalues --   -0.64645  -0.62017  -0.61589  -0.60078  -0.58277
 Alpha  occ. eigenvalues --   -0.55998  -0.55147  -0.53511  -0.53177  -0.52963
 Alpha  occ. eigenvalues --   -0.52555  -0.50628  -0.48728  -0.48709  -0.48571
 Alpha  occ. eigenvalues --   -0.47296  -0.46396  -0.46291  -0.44723  -0.44454
 Alpha  occ. eigenvalues --   -0.37222  -0.36230
 Alpha virt. eigenvalues --    0.05164   0.11412   0.16658   0.20665   0.22333
 Alpha virt. eigenvalues --    0.23760   0.25661   0.26038   0.26893   0.27960
 Alpha virt. eigenvalues --    0.28849   0.30498   0.30655   0.30973   0.32003

 Mulliken charges:
               1
     1  C   -0.299163
     2  C   -0.299154
     3  C   -0.484403
     4  H    0.148353
     5  H    0.151238
     6  H    0.154386
     7  H    0.156621
     8  H    0.160794
     9  H    0.147347
    10  H    0.160836
    11  C   -0.299002
    12  C   -0.300034
    13  C   -0.476066
    14  H    0.150296
    15  H    0.151479
    16  H    0.151590
    17  H    0.152812
    18  H    0.156223
    19  H    0.155604
    20  H    0.161412
    21  C   -0.173989
    22  C   -0.228643
    23  C   -0.175140
    24  C    0.158975
    25  C   -0.171744
    26  C   -0.218325
    27  H    0.224896
    28  H    0.243325
    29  H    0.275218
    30  H    0.275060
    31  H    0.222739
    32  N    0.488070
    33  O   -0.460899
    34  O   -0.460711
 Sum of Mulliken charges =  -0.00000

 Dipole moment (field-independent basis, Debye):
    X=              3.7626    Y=              3.7264    Z=              0.8685  Tot=              5.3664
 Quadrupole moment (field-independent basis, Debye-Ang):
   XX=           -121.2914   YY=            -92.0584   ZZ=            -95.0849
   XY=            -18.2196   XZ=             -3.1534   YZ=             -0.4898

 Normal termination of Gaussian 16 at Thu May  6 12:11:32 2021.
