 Gaussian 16, Revision A.03,
 Gaussian 16:  EM64L-G16RevA.03 25-Dec-2016

 -------------
 #p 6-31g* mp2
 -------------

 ------------------------------------------------------
 Input file generated by CHIRIPA (05-May-2021 14:55:25)
 ------------------------------------------------------
 Symbolic Z-matrix:
 Charge =  0 Multiplicity = 1

                         Standard orientation:
 ---------------------------------------------------------------------
 Center     Atomic      Atomic             Coordinates (Angstroms)
 Number     Number       Type             X           Y           Z
 ---------------------------------------------------------------------
      1          6           0        1.095494   -0.020598    0.690548
      2          6           0        2.032095    0.719508    1.419618
      3          6           0        3.395664    0.625262    1.125771
      4          6           0        3.789342   -0.222653    0.091678
      5          6           0        2.880394   -0.972863   -0.652827
      6          6           0        1.521881   -0.862936   -0.341528
      7          1           0        0.038205    0.058705    0.925595
      8          1           0        1.703838    1.374481    2.221680
      9          1           0        4.142111    1.186912    1.674208
     10          1           0        3.237967   -1.617321   -1.446700
     11          1           0        0.796744   -1.438899   -0.909409
     12          7           0        5.230215   -0.330727   -0.228643
     13          8           0        5.551424   -1.084876   -1.144460
     14          8           0        6.011080    0.340761    0.442172
     15          6           0       -3.792896    0.367472   -0.252689
     16          6           0       -3.416228    1.777527   -0.708596
     17          6           0       -1.905406    1.972652   -0.839510
     18          1           0       -3.309951    0.159614    0.711936
     19          1           0       -3.388685   -0.361931   -0.968215
     20          1           0       -3.822211    2.504129    0.006836
     21          1           0       -3.900281    1.982124   -1.672156
     22          1           0       -1.487978    1.270312   -1.568259
     23          1           0       -1.409465    1.795284    0.120274
     24          1           0       -1.658523    2.987527   -1.166519
     25          6           0       -5.299889    0.156921   -0.117156
     26          6           0       -5.676557   -1.253135    0.338751
     27          6           0       -7.187379   -1.448259    0.469665
     28          1           0       -5.704100    0.886325    0.598371
     29          1           0       -5.782834    0.364779   -1.081782
     30          1           0       -5.192504   -1.457731    1.302310
     31          1           0       -5.270573   -1.979736   -0.376681
     32          1           0       -7.683320   -1.270891   -0.490119
     33          1           0       -7.604807   -0.745920    1.198414
     34          1           0       -7.434262   -2.463135    0.796674
 ---------------------------------------------------------------------

 SCF Done:  E(RHF) =  -669.535243579     A.U. after   15 cycles
 E2 =    -0.2091284522D+01 EUMP2 =    -0.67162652810150D+03

 The electronic state is 1-A.
 Alpha  occ. eigenvalues --  -20.60712 -20.60707 -15.85766 -11.31116 -11.27696
 Alpha  occ. eigenvalues --  -11.27692 -11.27393 -11.26697 -11.26686 -11.22492
 Alpha  occ. eigenvalues --  -11.22356 -11.22268 -11.22119 -11.22112 -11.21612
 Alpha  occ. eigenvalues --   -1.59788  -1.39342  -1.19292  -1.09263  -1.08685
 Alpha  occ. eigenvalues --   -1.04696  -1.04330  -0.96795  -0.95522  -0.87807
 Alpha  occ. eigenvalues --   -0.86092  -0.82362  -0.80399  -0.79077  -0.77409
 Alpha  occ. eigenvalues --   -0.71984  -0.71112  -0.70415  -0.65890  -0.64943
 Alpha  occ. eigenvalues --   -0.64703  -0.62048  -0.61725  -0.60162  -0.58415
 Alpha  occ. eigenvalues --   -0.56140  -0.55187  -0.53456  -0.53263  -0.52935
 Alpha  occ. eigenvalues --   -0.52788  -0.50731  -0.48760  -0.48740  -0.48681
 Alpha  occ. eigenvalues --   -0.47429  -0.46611  -0.46527  -0.44751  -0.44583
 Alpha  occ. eigenvalues --   -0.37239  -0.36304
 Alpha virt. eigenvalues --    0.05114   0.11321   0.16554   0.19734   0.22449
 Alpha virt. eigenvalues --    0.23828   0.25002   0.26232   0.27123   0.27298
 Alpha virt. eigenvalues --    0.29301   0.30011   0.31113   0.31285   0.32098

 Mulliken charges:
               1
     1  C   -0.168709
     2  C   -0.220105
     3  C   -0.170698
     4  C    0.158273
     5  C   -0.170931
     6  C   -0.220413
     7  H    0.229013
     8  H    0.222767
     9  H    0.275336
    10  H    0.275265
    11  H    0.223239
    12  N    0.488110
    13  O   -0.460690
    14  O   -0.460678
    15  C   -0.298837
    16  C   -0.300450
    17  C   -0.476603
    18  H    0.143642
    19  H    0.147799
    20  H    0.154282
    21  H    0.155987
    22  H    0.155108
    23  H    0.146276
    24  H    0.166626
    25  C   -0.298526
    26  C   -0.300141
    27  C   -0.476157
    28  H    0.151310
    29  H    0.152264
    30  H    0.151237
    31  H    0.151874
    32  H    0.156476
    33  H    0.156169
    34  H    0.161886
 Sum of Mulliken charges =  -0.00000

 Dipole moment (field-independent basis, Debye):
    X=             -5.2957    Y=              0.4382    Z=              1.0668  Tot=              5.4199
 Quadrupole moment (field-independent basis, Debye-Ang):
   XX=           -134.0086   YY=            -93.0840   ZZ=            -91.3206
   XY=              2.9797   XZ=              5.0638   YZ=              2.7968

 Normal termination of Gaussian 16 at Thu May  6 06:25:35 2021.
