 Gaussian 16, Revision A.03,
 Gaussian 16:  EM64L-G16RevA.03 25-Dec-2016

 -------------
 #p 6-31g* mp2
 -------------

 ------------------------------------------------------
 Input file generated by CHIRIPA (05-May-2021 14:51:12)
 ------------------------------------------------------
 Symbolic Z-matrix:
 Charge =  0 Multiplicity = 1

                         Standard orientation:
 ---------------------------------------------------------------------
 Center     Atomic      Atomic             Coordinates (Angstroms)
 Number     Number       Type             X           Y           Z
 ---------------------------------------------------------------------
      1          6           0       -2.907286   -0.722229    0.683433
      2          6           0       -1.472104   -1.177557    0.949731
      3          6           0       -1.403627   -2.506952    1.701938
      4          1           0       -3.439973   -0.631773    1.639993
      5          1           0       -3.429726   -1.498144    0.106886
      6          1           0       -0.952115   -0.400406    1.524416
      7          1           0       -0.942716   -1.266754   -0.007561
      8          1           0       -1.897813   -3.299036    1.130111
      9          1           0       -1.907265   -2.427765    2.670792
     10          1           0       -0.368506   -2.813644    1.881725
     11          6           0       -2.992175    0.605246   -0.067788
     12          6           0       -4.427356    1.060574   -0.334086
     13          6           0       -4.495833    2.389969   -1.086293
     14          1           0       -2.469735    1.381161    0.508759
     15          1           0       -2.459487    0.514790   -1.024348
     16          1           0       -4.956745    1.149771    0.623206
     17          1           0       -4.947346    0.283423   -0.908771
     18          1           0       -3.992195    2.310781   -2.055147
     19          1           0       -4.001648    3.182052   -0.514467
     20          1           0       -5.530955    2.696660   -1.266081
     21          6           0        3.549206    0.473476   -0.080120
     22          6           0        3.165749    1.861737    0.433375
     23          6           0        4.375780    2.679930    0.885236
     24          1           0        4.084993   -0.068171    0.711394
     25          1           0        4.253279    0.581229   -0.916819
     26          1           0        2.461537    1.751433    1.267961
     27          1           0        2.630645    2.400072   -0.359390
     28          1           0        5.077618    2.819482    0.056652
     29          1           0        4.907550    2.167157    1.693250
     30          1           0        4.078818    3.668725    1.248497
     31          6           0        2.350254   -0.356493   -0.535524
     32          6           0        2.733711   -1.744754   -1.049020
     33          6           0        1.523680   -2.562947   -1.500881
     34          1           0        1.646182   -0.464246    0.301175
     35          1           0        1.814467    0.185154   -1.327040
     36          1           0        3.268816   -2.283089   -0.256255
     37          1           0        3.437923   -1.634449   -1.883605
     38          1           0        0.991911   -2.050174   -2.308895
     39          1           0        0.821842   -2.702499   -0.672297
     40          1           0        1.820643   -3.551741   -1.864141
 ---------------------------------------------------------------------

 SCF Done:  E(RHF) =  -470.732667462     A.U. after   11 cycles
 E2 =    -0.1583881384D+01 EUMP2 =    -0.47231654884575D+03

 The electronic state is 1-A.
 Alpha  occ. eigenvalues --  -11.21589 -11.21587 -11.21586 -11.21549 -11.21387
 Alpha  occ. eigenvalues --  -11.21367 -11.21328 -11.21297 -11.21117 -11.21064
 Alpha  occ. eigenvalues --  -11.21061 -11.21045  -1.08445  -1.08383  -1.03578
 Alpha  occ. eigenvalues --   -1.03476  -0.96010  -0.95945  -0.87010  -0.86976
 Alpha  occ. eigenvalues --   -0.79703  -0.79502  -0.78361  -0.78075  -0.65100
 Alpha  occ. eigenvalues --   -0.65007  -0.61089  -0.60815  -0.59454  -0.59232
 Alpha  occ. eigenvalues --   -0.57669  -0.57505  -0.55379  -0.55146  -0.52689
 Alpha  occ. eigenvalues --   -0.52660  -0.52444  -0.52358  -0.49932  -0.49901
 Alpha  occ. eigenvalues --   -0.48132  -0.47780  -0.46718  -0.46502  -0.46047
 Alpha  occ. eigenvalues --   -0.45751  -0.45647  -0.45286  -0.43782  -0.43760
 Alpha virt. eigenvalues --    0.21062   0.23112   0.23432   0.24725   0.25816
 Alpha virt. eigenvalues --    0.26455   0.26749   0.27632   0.28079   0.29428
 Alpha virt. eigenvalues --    0.31027   0.31252   0.31619   0.31777   0.32286

 Mulliken charges:
               1
     1  C   -0.297669
     2  C   -0.307349
     3  C   -0.477666
     4  H    0.149251
     5  H    0.149512
     6  H    0.151405
     7  H    0.160580
     8  H    0.155928
     9  H    0.155778
    10  H    0.159564
    11  C   -0.298268
    12  C   -0.299656
    13  C   -0.475672
    14  H    0.149621
    15  H    0.149809
    16  H    0.151883
    17  H    0.151911
    18  H    0.155078
    19  H    0.155190
    20  H    0.160204
    21  C   -0.298168
    22  C   -0.299463
    23  C   -0.475678
    24  H    0.149349
    25  H    0.149365
    26  H    0.151531
    27  H    0.152078
    28  H    0.155198
    29  H    0.155097
    30  H    0.160133
    31  C   -0.303462
    32  C   -0.299072
    33  C   -0.482697
    34  H    0.156459
    35  H    0.148990
    36  H    0.151456
    37  H    0.151733
    38  H    0.153963
    39  H    0.163485
    40  H    0.160269
 Sum of Mulliken charges =  -0.00000

 Dipole moment (field-independent basis, Debye):
    X=             -0.0163    Y=             -0.0061    Z=              0.0004  Tot=              0.0174
 Quadrupole moment (field-independent basis, Debye-Ang):
   XX=            -85.5573   YY=            -85.8345   ZZ=            -83.5616
   XY=             -0.2858   XZ=             -0.4501   YZ=              0.3284

 Normal termination of Gaussian 16 at Thu May  6 02:19:46 2021.
