 Gaussian 16, Revision A.03,
 Gaussian 16:  EM64L-G16RevA.03 25-Dec-2016

 -------------
 #p 6-31g* mp2
 -------------

 ------------------------------------------------------
 Input file generated by CHIRIPA (05-May-2021 14:51:10)
 ------------------------------------------------------
 Symbolic Z-matrix:
 Charge =  0 Multiplicity = 1

                         Standard orientation:
 ---------------------------------------------------------------------
 Center     Atomic      Atomic             Coordinates (Angstroms)
 Number     Number       Type             X           Y           Z
 ---------------------------------------------------------------------
      1          6           0        3.290985    0.429131   -0.208633
      2          6           0        3.091875   -1.055930   -0.513483
      3          6           0        4.410674   -1.793395   -0.747381
      4          1           0        3.832501    0.898469   -1.041356
      5          1           0        3.931717    0.531568    0.678139
      6          1           0        2.450576   -1.155550   -1.398597
      7          1           0        2.550601   -1.521746    0.319977
      8          1           0        5.053041   -1.723677    0.136420
      9          1           0        4.952447   -1.355400   -1.591918
     10          1           0        4.245011   -2.853423   -0.963611
     11          6           0        1.981702    1.179946    0.027556
     12          6           0        2.180812    2.665007    0.332406
     13          6           0        0.862013    3.402472    0.566304
     14          1           0        1.340970    1.077509   -0.859216
     15          1           0        1.440186    0.710608    0.860279
     16          1           0        2.722085    3.130823   -0.501054
     17          1           0        2.822111    2.764627    1.217520
     18          1           0        0.320239    2.964478    1.410841
     19          1           0        0.219645    3.332754   -0.317497
     20          1           0        1.027676    4.462501    0.782534
     21          6           0       -2.243584   -1.198159    0.614214
     22          6           0       -0.947373   -1.801932    0.072661
     23          6           0       -0.172793   -2.586386    1.132119
     24          1           0       -2.007879   -0.539167    1.461042
     25          1           0       -2.876956   -2.003347    1.011590
     26          1           0       -0.317230   -0.995994   -0.324832
     27          1           0       -1.186173   -2.459413   -0.773098
     28          1           0       -0.779784   -3.409806    1.522175
     29          1           0        0.094096   -1.938072    1.972989
     30          1           0        0.750262   -3.009308    0.723506
     31          6           0       -3.029103   -0.410919   -0.433136
     32          6           0       -4.325313    0.192855    0.108415
     33          6           0       -5.099894    0.977308   -0.951042
     34          1           0       -2.395731    0.394269   -0.830513
     35          1           0       -3.264807   -1.069911   -1.279965
     36          1           0       -4.086514    0.850336    0.954176
     37          1           0       -4.955457   -0.613083    0.505908
     38          1           0       -5.366783    0.328994   -1.791911
     39          1           0       -4.492903    1.800728   -1.341097
     40          1           0       -6.022949    1.400231   -0.542429
 ---------------------------------------------------------------------

 SCF Done:  E(RHF) =  -470.732519200     A.U. after   11 cycles
 E2 =    -0.1584527610D+01 EUMP2 =    -0.47231704680997D+03

 The electronic state is 1-A.
 Alpha  occ. eigenvalues --  -11.21666 -11.21565 -11.21551 -11.21470 -11.21464
 Alpha  occ. eigenvalues --  -11.21389 -11.21354 -11.21293 -11.21150 -11.21072
 Alpha  occ. eigenvalues --  -11.21043 -11.21020  -1.08496  -1.08358  -1.03580
 Alpha  occ. eigenvalues --   -1.03465  -0.96024  -0.95941  -0.87055  -0.86943
 Alpha  occ. eigenvalues --   -0.79652  -0.79530  -0.78387  -0.78114  -0.65143
 Alpha  occ. eigenvalues --   -0.64978  -0.61006  -0.60867  -0.59524  -0.59193
 Alpha  occ. eigenvalues --   -0.57681  -0.57501  -0.55313  -0.55235  -0.52733
 Alpha  occ. eigenvalues --   -0.52639  -0.52483  -0.52325  -0.49972  -0.49877
 Alpha  occ. eigenvalues --   -0.48022  -0.47788  -0.46714  -0.46588  -0.46033
 Alpha  occ. eigenvalues --   -0.45743  -0.45699  -0.45304  -0.43825  -0.43703
 Alpha virt. eigenvalues --    0.20727   0.22963   0.23688   0.24394   0.24796
 Alpha virt. eigenvalues --    0.26536   0.27135   0.27506   0.28585   0.29891
 Alpha virt. eigenvalues --    0.30525   0.31000   0.31640   0.31687   0.32267

 Mulliken charges:
               1
     1  C   -0.297557
     2  C   -0.307624
     3  C   -0.475609
     4  H    0.149526
     5  H    0.149423
     6  H    0.152309
     7  H    0.161302
     8  H    0.155109
     9  H    0.155108
    10  H    0.159913
    11  C   -0.302171
    12  C   -0.299370
    13  C   -0.475808
    14  H    0.150231
    15  H    0.151882
    16  H    0.152327
    17  H    0.152253
    18  H    0.154762
    19  H    0.154799
    20  H    0.160802
    21  C   -0.297831
    22  C   -0.306858
    23  C   -0.478777
    24  H    0.148931
    25  H    0.149166
    26  H    0.161616
    27  H    0.150977
    28  H    0.155190
    29  H    0.153292
    30  H    0.163221
    31  C   -0.298312
    32  C   -0.299580
    33  C   -0.475673
    34  H    0.149500
    35  H    0.149364
    36  H    0.152060
    37  H    0.151795
    38  H    0.154998
    39  H    0.155148
    40  H    0.160167
 Sum of Mulliken charges =  -0.00000

 Dipole moment (field-independent basis, Debye):
    X=              0.0430    Y=              0.0161    Z=             -0.0038  Tot=              0.0461
 Quadrupole moment (field-independent basis, Debye-Ang):
   XX=            -85.8338   YY=            -84.8463   ZZ=            -84.2162
   XY=              1.3851   XZ=             -0.0304   YZ=              0.2952

 Normal termination of Gaussian 16 at Wed May  5 18:12:05 2021.
