 Gaussian 16, Revision A.03,
 Gaussian 16:  EM64L-G16RevA.03 25-Dec-2016

 -------------
 #p 6-31g* mp2
 -------------

 ------------------------------------------------------
 Input file generated by CHIRIPA (05-May-2021 14:53:12)
 ------------------------------------------------------
 Symbolic Z-matrix:
 Charge =  0 Multiplicity = 1

                         Standard orientation:
 ---------------------------------------------------------------------
 Center     Atomic      Atomic             Coordinates (Angstroms)
 Number     Number       Type             X           Y           Z
 ---------------------------------------------------------------------
      1          6           0        4.344121   -0.097435   -0.196605
      2          6           0        3.363908   -1.186062    0.241642
      3          6           0        1.946074   -0.949536   -0.279507
      4          1           0        3.980515    0.877717    0.155267
      5          1           0        4.359427   -0.047817   -1.294192
      6          1           0        3.351489   -1.234552    1.338050
      7          1           0        3.729989   -2.158759   -0.111150
      8          1           0        1.937462   -0.922278   -1.373940
      9          1           0        1.556812    0.007180    0.083494
     10          1           0        1.261864   -1.739496    0.045578
     11          6           0        5.765691   -0.319940    0.316578
     12          6           0        6.745904    0.768687   -0.121669
     13          6           0        8.163738    0.532162    0.399480
     14          1           0        5.750385   -0.369558    1.414166
     15          1           0        6.129297   -1.295092   -0.035294
     16          1           0        6.379824    1.741384    0.231123
     17          1           0        6.758323    0.817177   -1.218077
     18          1           0        8.553000   -0.424555    0.036479
     19          1           0        8.172350    0.504903    1.493913
     20          1           0        8.847949    1.322121    0.074395
     21          6           0       -1.534025    0.650307   -0.590630
     22          6           0       -2.001144   -0.668121   -0.598771
     23          6           0       -3.337316   -0.949835   -0.299054
     24          6           0       -4.182630    0.115930    0.005705
     25          6           0       -3.747195    1.440096    0.022102
     26          6           0       -2.407001    1.698360   -0.280765
     27          1           0       -0.494492    0.860042   -0.824680
     28          1           0       -1.325440   -1.484048   -0.839049
     29          1           0       -3.725387   -1.961180   -0.298045
     30          1           0       -4.444603    2.232437    0.265489
     31          1           0       -2.047002    2.723248   -0.273677
     32          7           0       -5.599304   -0.169896    0.324669
     33          8           0       -6.323907    0.786787    0.589899
     34          8           0       -5.958267   -1.345197    0.303405
 ---------------------------------------------------------------------

 SCF Done:  E(RHF) =  -669.535275916     A.U. after   15 cycles
 E2 =    -0.2091364507D+01 EUMP2 =    -0.67162664042283D+03

 The electronic state is 1-A.
 Alpha  occ. eigenvalues --  -20.60688 -20.60683 -15.85741 -11.31081 -11.27655
 Alpha  occ. eigenvalues --  -11.27644 -11.27320 -11.26652 -11.26618 -11.22593
 Alpha  occ. eigenvalues --  -11.22459 -11.22218 -11.22157 -11.22019 -11.21525
 Alpha  occ. eigenvalues --   -1.59765  -1.39319  -1.19248  -1.09211  -1.08641
 Alpha  occ. eigenvalues --   -1.04652  -1.04353  -0.96845  -0.95480  -0.87878
 Alpha  occ. eigenvalues --   -0.86039  -0.82322  -0.80443  -0.78980  -0.77374
 Alpha  occ. eigenvalues --   -0.71959  -0.71088  -0.70357  -0.65833  -0.64896
 Alpha  occ. eigenvalues --   -0.64659  -0.62014  -0.61747  -0.60218  -0.58437
 Alpha  occ. eigenvalues --   -0.56180  -0.55148  -0.53570  -0.53211  -0.52967
 Alpha  occ. eigenvalues --   -0.52705  -0.50763  -0.48767  -0.48716  -0.48678
 Alpha  occ. eigenvalues --   -0.47434  -0.46533  -0.46422  -0.44730  -0.44589
 Alpha  occ. eigenvalues --   -0.37209  -0.36259
 Alpha virt. eigenvalues --    0.05148   0.11367   0.16603   0.20267   0.22245
 Alpha virt. eigenvalues --    0.23772   0.25652   0.25809   0.26293   0.27369
 Alpha virt. eigenvalues --    0.29293   0.29436   0.30669   0.31621   0.32099

 Mulliken charges:
               1
     1  C   -0.299269
     2  C   -0.299879
     3  C   -0.483241
     4  H    0.148771
     5  H    0.149980
     6  H    0.156116
     7  H    0.155596
     8  H    0.155224
     9  H    0.151831
    10  H    0.161105
    11  C   -0.298981
    12  C   -0.300134
    13  C   -0.476131
    14  H    0.151100
    15  H    0.151196
    16  H    0.152048
    17  H    0.152344
    18  H    0.156057
    19  H    0.156066
    20  H    0.161669
    21  C   -0.173655
    22  C   -0.221589
    23  C   -0.171391
    24  C    0.158358
    25  C   -0.170984
    26  C   -0.219448
    27  H    0.231716
    28  H    0.226058
    29  H    0.275102
    30  H    0.275075
    31  H    0.222797
    32  N    0.488068
    33  O   -0.460792
    34  O   -0.460781
 Sum of Mulliken charges =  -0.00000

 Dipole moment (field-independent basis, Debye):
    X=              5.2916    Y=              0.9663    Z=             -1.0935  Tot=              5.4891
 Quadrupole moment (field-independent basis, Debye-Ang):
   XX=           -137.3415   YY=            -89.4325   ZZ=            -94.9431
   XY=             -4.7943   XZ=              4.2329   YZ=              1.0677

 Normal termination of Gaussian 16 at Thu May  6 07:15:14 2021.
