 Gaussian 16, Revision A.03,
 Gaussian 16:  EM64L-G16RevA.03 25-Dec-2016

 -------------
 #p 6-31g* mp2
 -------------

 ------------------------------------------------------
 Input file generated by CHIRIPA (05-May-2021 14:51:10)
 ------------------------------------------------------
 Symbolic Z-matrix:
 Charge =  0 Multiplicity = 1

                         Standard orientation:
 ---------------------------------------------------------------------
 Center     Atomic      Atomic             Coordinates (Angstroms)
 Number     Number       Type             X           Y           Z
 ---------------------------------------------------------------------
      1          6           0        2.822437    0.265760    0.345158
      2          6           0        2.801244    1.709258   -0.158677
      3          6           0        3.544750    2.670305    0.769430
      4          1           0        2.376299    0.227689    1.348380
      5          1           0        3.865577   -0.061862    0.454327
      6          1           0        1.758446    2.033599   -0.268183
      7          1           0        3.247311    1.743868   -1.160896
      8          1           0        4.593841    2.373997    0.870476
      9          1           0        3.096516    2.665374    1.768261
     10          1           0        3.517102    3.696611    0.390231
     11          6           0        2.083232   -0.706930   -0.571999
     12          6           0        2.104425   -2.150428   -0.068164
     13          6           0        1.360920   -3.111475   -0.996271
     14          1           0        1.040092   -0.379308   -0.681168
     15          1           0        2.529371   -0.668859   -1.575221
     16          1           0        1.658358   -2.185038    0.934055
     17          1           0        3.147223   -2.474769    0.041341
     18          1           0        1.809153   -3.106544   -1.995102
     19          1           0        0.311829   -2.815167   -1.097317
     20          1           0        1.388567   -4.137781   -0.617072
     21          6           0       -2.612081    0.783339   -0.377884
     22          6           0       -2.428823    2.179168    0.218827
     23          6           0       -2.751217    3.294430   -0.776183
     24          1           0       -1.970226    0.683093   -1.263839
     25          1           0       -3.647843    0.675128   -0.728433
     26          1           0       -1.394088    2.284225    0.569402
     27          1           0       -3.071046    2.276036    1.103577
     28          1           0       -3.788512    3.217862   -1.117883
     29          1           0       -2.102025    3.226098   -1.655092
     30          1           0       -2.613544    4.283756   -0.328813
     31          6           0       -2.293588   -0.342169    0.604725
     32          6           0       -2.476847   -1.737998    0.008014
     33          6           0       -2.154452   -2.853260    1.003024
     34          1           0       -1.257826   -0.233959    0.955274
     35          1           0       -2.935443   -0.241924    1.490680
     36          1           0       -1.834623   -1.834866   -0.876735
     37          1           0       -3.511581   -1.843055   -0.342561
     38          1           0       -2.803644   -2.784928    1.881934
     39          1           0       -1.117158   -2.776693    1.344724
     40          1           0       -2.292125   -3.842585    0.555653
 ---------------------------------------------------------------------

 SCF Done:  E(RHF) =  -470.733018190     A.U. after   11 cycles
 E2 =    -0.1584746135D+01 EUMP2 =    -0.47231776432564D+03

 The electronic state is 1-A.
 Alpha  occ. eigenvalues --  -11.21662 -11.21660 -11.21657 -11.21653 -11.21471
 Alpha  occ. eigenvalues --  -11.21467 -11.21411 -11.21407 -11.21108 -11.21106
 Alpha  occ. eigenvalues --  -11.21091 -11.21045  -1.08533  -1.08451  -1.03637
 Alpha  occ. eigenvalues --   -1.03521  -0.96085  -0.95959  -0.87064  -0.87011
 Alpha  occ. eigenvalues --   -0.79676  -0.79611  -0.78322  -0.78290  -0.65477
 Alpha  occ. eigenvalues --   -0.64815  -0.61375  -0.60595  -0.59397  -0.59383
 Alpha  occ. eigenvalues --   -0.57688  -0.57583  -0.55657  -0.54962  -0.52734
 Alpha  occ. eigenvalues --   -0.52683  -0.52466  -0.52419  -0.50012  -0.49923
 Alpha  occ. eigenvalues --   -0.48085  -0.47831  -0.46821  -0.46558  -0.46043
 Alpha  occ. eigenvalues --   -0.45814  -0.45714  -0.45562  -0.43851  -0.43813
 Alpha virt. eigenvalues --    0.18248   0.21656   0.23511   0.25536   0.25566
 Alpha virt. eigenvalues --    0.26025   0.26569   0.27745   0.28962   0.30035
 Alpha virt. eigenvalues --    0.30433   0.31229   0.31285   0.32139   0.32241

 Mulliken charges:
               1
     1  C   -0.298421
     2  C   -0.300863
     3  C   -0.475721
     4  H    0.149577
     5  H    0.150064
     6  H    0.152215
     7  H    0.152230
     8  H    0.155380
     9  H    0.155335
    10  H    0.160519
    11  C   -0.302288
    12  C   -0.301410
    13  C   -0.482646
    14  H    0.152111
    15  H    0.150103
    16  H    0.152466
    17  H    0.152535
    18  H    0.154794
    19  H    0.163331
    20  H    0.160697
    21  C   -0.299436
    22  C   -0.300813
    23  C   -0.475781
    24  H    0.150408
    25  H    0.150083
    26  H    0.152184
    27  H    0.152259
    28  H    0.155368
    29  H    0.155507
    30  H    0.160484
    31  C   -0.300349
    32  C   -0.305251
    33  C   -0.478495
    34  H    0.150531
    35  H    0.150335
    36  H    0.155217
    37  H    0.152976
    38  H    0.155306
    39  H    0.158417
    40  H    0.161044
 Sum of Mulliken charges =  -0.00000

 Dipole moment (field-independent basis, Debye):
    X=             -0.0138    Y=             -0.0050    Z=             -0.0029  Tot=              0.0150
 Quadrupole moment (field-independent basis, Debye-Ang):
   XX=            -83.2357   YY=            -86.1945   ZZ=            -85.1027
   XY=             -0.3380   XZ=             -1.1565   YZ=              0.1635

 Normal termination of Gaussian 16 at Wed May  5 19:47:52 2021.
