 Gaussian 16, Revision A.03,
 Gaussian 16:  EM64L-G16RevA.03 25-Dec-2016

 -------------
 #p 6-31g* mp2
 -------------

 ------------------------------------------------------
 Input file generated by CHIRIPA (05-May-2021 14:51:12)
 ------------------------------------------------------
 Symbolic Z-matrix:
 Charge =  0 Multiplicity = 1

                         Standard orientation:
 ---------------------------------------------------------------------
 Center     Atomic      Atomic             Coordinates (Angstroms)
 Number     Number       Type             X           Y           Z
 ---------------------------------------------------------------------
      1          6           0       -3.140528   -0.776932    0.073430
      2          6           0       -1.859089   -1.539229    0.412255
      3          6           0       -2.054646   -3.055650    0.407919
      4          1           0       -3.923171   -1.049204    0.794736
      5          1           0       -3.499921   -1.098397   -0.913936
      6          1           0       -1.501462   -1.215413    1.398086
      7          1           0       -1.079350   -1.264965   -0.309827
      8          1           0       -2.388900   -3.398156   -0.576745
      9          1           0       -2.813411   -3.348323    1.140871
     10          1           0       -1.126149   -3.580879    0.652637
     11          6           0       -2.961023    0.740140    0.073780
     12          6           0       -4.242462    1.502436   -0.265046
     13          6           0       -4.046905    3.018857   -0.260710
     14          1           0       -2.601630    1.061605    1.061146
     15          1           0       -2.178380    1.012412   -0.647527
     16          1           0       -5.022202    1.228173    0.457036
     17          1           0       -4.600089    1.178621   -1.250877
     18          1           0       -3.288140    3.311531   -0.993662
     19          1           0       -3.712651    3.361364    0.723955
     20          1           0       -4.975402    3.544087   -0.505427
     21          6           0        3.628781    0.513372   -0.007716
     22          6           0        3.170222    1.963067    0.153820
     23          6           0        4.337960    2.941395    0.284422
     24          1           0        4.248873    0.233349    0.854850
     25          1           0        4.273494    0.436668   -0.894201
     26          1           0        2.525444    2.036745    1.038946
     27          1           0        2.550993    2.239609   -0.709136
     28          1           0        4.978480    2.897316   -0.602367
     29          1           0        4.952787    2.693298    1.155649
     30          1           0        3.987474    3.971888    0.398888
     31          6           0        2.472770   -0.476580   -0.139494
     32          6           0        2.931329   -1.926275   -0.301029
     33          6           0        1.763591   -2.904603   -0.431631
     34          1           0        1.828056   -0.399877    0.746990
     35          1           0        1.852678   -0.196557   -1.002060
     36          1           0        3.550559   -2.202817    0.561927
     37          1           0        3.576107   -1.999952   -1.186156
     38          1           0        1.148764   -2.656506   -1.302858
     39          1           0        1.123071   -2.860524    0.455156
     40          1           0        2.114078   -3.935096   -0.546098
 ---------------------------------------------------------------------

 SCF Done:  E(RHF) =  -470.732684368     A.U. after   11 cycles
 E2 =    -0.1583591485D+01 EUMP2 =    -0.47231627585331D+03

 The electronic state is 1-A.
 Alpha  occ. eigenvalues --  -11.21599 -11.21596 -11.21574 -11.21501 -11.21402
 Alpha  occ. eigenvalues --  -11.21359 -11.21343 -11.21298 -11.21067 -11.21051
 Alpha  occ. eigenvalues --  -11.21048 -11.20948  -1.08438  -1.08371  -1.03566
 Alpha  occ. eigenvalues --   -1.03440  -0.96034  -0.95874  -0.87046  -0.86895
 Alpha  occ. eigenvalues --   -0.79625  -0.79518  -0.78307  -0.78121  -0.65068
 Alpha  occ. eigenvalues --   -0.65007  -0.60958  -0.60873  -0.59443  -0.59252
 Alpha  occ. eigenvalues --   -0.57809  -0.57330  -0.55268  -0.55207  -0.52803
 Alpha  occ. eigenvalues --   -0.52630  -0.52473  -0.52117  -0.49905  -0.49865
 Alpha  occ. eigenvalues --   -0.47911  -0.47838  -0.46642  -0.46552  -0.45941
 Alpha  occ. eigenvalues --   -0.45750  -0.45637  -0.45484  -0.43805  -0.43702
 Alpha virt. eigenvalues --    0.21506   0.23175   0.23381   0.24790   0.25542
 Alpha virt. eigenvalues --    0.26538   0.26782   0.27330   0.28561   0.29306
 Alpha virt. eigenvalues --    0.29869   0.31376   0.31566   0.31872   0.31949

 Mulliken charges:
               1
     1  C   -0.298285
     2  C   -0.303143
     3  C   -0.479033
     4  H    0.149352
     5  H    0.149215
     6  H    0.150120
     7  H    0.157297
     8  H    0.154650
     9  H    0.154191
    10  H    0.164738
    11  C   -0.298030
    12  C   -0.299612
    13  C   -0.475622
    14  H    0.149278
    15  H    0.149598
    16  H    0.151876
    17  H    0.151783
    18  H    0.155092
    19  H    0.155127
    20  H    0.160122
    21  C   -0.298371
    22  C   -0.299524
    23  C   -0.475722
    24  H    0.149646
    25  H    0.149424
    26  H    0.152180
    27  H    0.151773
    28  H    0.155115
    29  H    0.155144
    30  H    0.160310
    31  C   -0.299200
    32  C   -0.300001
    33  C   -0.479245
    34  H    0.151375
    35  H    0.148974
    36  H    0.151773
    37  H    0.151649
    38  H    0.155742
    39  H    0.160425
    40  H    0.159818
 Sum of Mulliken charges =  -0.00000

 Dipole moment (field-independent basis, Debye):
    X=              0.0308    Y=             -0.0123    Z=             -0.0011  Tot=              0.0332
 Quadrupole moment (field-independent basis, Debye-Ang):
   XX=            -85.4695   YY=            -86.7156   ZZ=            -82.7530
   XY=             -0.6310   XZ=             -0.2898   YZ=             -0.1347

 Normal termination of Gaussian 16 at Thu May  6 00:45:36 2021.
