 Gaussian 16, Revision A.03,
 Gaussian 16:  EM64L-G16RevA.03 25-Dec-2016

 -------------
 #p 6-31g* mp2
 -------------

 ------------------------------------------------------
 Input file generated by CHIRIPA (05-May-2021 14:55:21)
 ------------------------------------------------------
 Symbolic Z-matrix:
 Charge =  0 Multiplicity = 1

                         Standard orientation:
 ---------------------------------------------------------------------
 Center     Atomic      Atomic             Coordinates (Angstroms)
 Number     Number       Type             X           Y           Z
 ---------------------------------------------------------------------
      1          6           0        1.037928    0.848839    2.228452
      2          6           0        0.508875   -0.283988    1.601294
      3          6           0        1.169449   -0.868741    0.516741
      4          6           0        2.362320   -0.291980    0.083503
      5          6           0        2.914773    0.836431    0.687469
      6          6           0        2.237074    1.404453    1.770346
      7          1           0        0.518127    1.296591    3.070308
      8          1           0       -0.422225   -0.717630    1.954921
      9          1           0        0.782237   -1.745960    0.012785
     10          1           0        3.844761    1.246108    0.312361
     11          1           0        2.650288    2.284198    2.255474
     12          7           0        3.070705   -0.902176   -1.063777
     13          8           0        4.120089   -0.374969   -1.426384
     14          8           0        2.563140   -1.896100   -1.578685
     15          6           0       -2.973533    0.883457   -0.756311
     16          6           0       -1.885676    1.930882   -0.516619
     17          6           0       -2.097964    3.202462   -1.338697
     18          1           0       -3.000987    0.630529   -1.825057
     19          1           0       -3.952420    1.319327   -0.513015
     20          1           0       -0.908999    1.492725   -0.758975
     21          1           0       -1.860679    2.181205    0.551712
     22          1           0       -3.058672    3.665398   -1.091048
     23          1           0       -2.101585    2.973006   -2.409183
     24          1           0       -1.308962    3.937630   -1.151980
     25          6           0       -2.775125   -0.393442    0.058484
     26          6           0       -3.862983   -1.440867   -0.181209
     27          6           0       -3.650695   -2.712446    0.640869
     28          1           0       -1.796238   -0.829311   -0.184813
     29          1           0       -2.747671   -0.140513    1.127230
     30          1           0       -3.887980   -1.691190   -1.249540
     31          1           0       -4.839660   -1.002710    0.061148
     32          1           0       -3.647074   -2.482990    1.711355
     33          1           0       -2.689986   -3.175382    0.393220
     34          1           0       -4.439696   -3.447615    0.454152
 ---------------------------------------------------------------------

 SCF Done:  E(RHF) =  -669.534081232     A.U. after   15 cycles
 E2 =    -0.2094474707D+01 EUMP2 =    -0.67162855593831D+03

 The electronic state is 1-A.
 Alpha  occ. eigenvalues --  -20.60781 -20.60775 -15.85832 -11.31197 -11.27722
 Alpha  occ. eigenvalues --  -11.27714 -11.27437 -11.26761 -11.26666 -11.22178
 Alpha  occ. eigenvalues --  -11.22105 -11.21935 -11.21838 -11.21726 -11.21350
 Alpha  occ. eigenvalues --   -1.59856  -1.39410  -1.19346  -1.09002  -1.08727
 Alpha  occ. eigenvalues --   -1.04743  -1.04016  -0.96495  -0.95580  -0.87507
 Alpha  occ. eigenvalues --   -0.86140  -0.82430  -0.80095  -0.78882  -0.77420
 Alpha  occ. eigenvalues --   -0.72049  -0.71180  -0.70449  -0.65641  -0.64978
 Alpha  occ. eigenvalues --   -0.64734  -0.62116  -0.61399  -0.59863  -0.58099
 Alpha  occ. eigenvalues --   -0.55791  -0.55236  -0.53302  -0.53040  -0.52966
 Alpha  occ. eigenvalues --   -0.52710  -0.50433  -0.48813  -0.48807  -0.48391
 Alpha  occ. eigenvalues --   -0.47126  -0.46319  -0.46253  -0.44815  -0.44294
 Alpha  occ. eigenvalues --   -0.37296  -0.36244
 Alpha virt. eigenvalues --    0.05018   0.11241   0.16449   0.20077   0.22847
 Alpha virt. eigenvalues --    0.23496   0.24828   0.26086   0.27582   0.28651
 Alpha virt. eigenvalues --    0.29246   0.29865   0.31265   0.31343   0.31765

 Mulliken charges:
               1
     1  C   -0.172028
     2  C   -0.212123
     3  C   -0.175856
     4  C    0.158314
     5  C   -0.172096
     6  C   -0.218013
     7  H    0.225011
     8  H    0.229226
     9  H    0.274452
    10  H    0.275369
    11  H    0.223287
    12  N    0.488131
    13  O   -0.460229
    14  O   -0.460851
    15  C   -0.298236
    16  C   -0.300660
    17  C   -0.476247
    18  H    0.153878
    19  H    0.150039
    20  H    0.159021
    21  H    0.144800
    22  H    0.154375
    23  H    0.157991
    24  H    0.160193
    25  C   -0.302116
    26  C   -0.299442
    27  C   -0.477422
    28  H    0.149551
    29  H    0.141080
    30  H    0.156728
    31  H    0.153730
    32  H    0.151575
    33  H    0.153256
    34  H    0.165311
 Sum of Mulliken charges =  -0.00000

 Dipole moment (field-independent basis, Debye):
    X=             -2.5685    Y=              2.1584    Z=              3.9562  Tot=              5.1872
 Quadrupole moment (field-independent basis, Debye-Ang):
   XX=           -103.8916   YY=            -94.7754   ZZ=            -94.3878
   XY=              8.7369   XZ=              9.5814   YZ=              0.1484

 Normal termination of Gaussian 16 at Thu May  6 20:44:59 2021.
