 Gaussian 16, Revision A.03,
 Gaussian 16:  EM64L-G16RevA.03 25-Dec-2016

 -------------
 #p 6-31g* mp2
 -------------

 ------------------------------------------------------
 Input file generated by CHIRIPA (05-May-2021 14:51:12)
 ------------------------------------------------------
 Symbolic Z-matrix:
 Charge =  0 Multiplicity = 1

                         Standard orientation:
 ---------------------------------------------------------------------
 Center     Atomic      Atomic             Coordinates (Angstroms)
 Number     Number       Type             X           Y           Z
 ---------------------------------------------------------------------
      1          6           0        4.178553    0.767006    0.086857
      2          6           0        3.451290    2.081050   -0.200135
      3          6           0        4.290333    3.310025    0.151179
      4          1           0        4.454650    0.732645    1.149652
      5          1           0        5.118855    0.744765   -0.481239
      6          1           0        2.511976    2.100203    0.367261
      7          1           0        3.176724    2.112201   -1.262330
      8          1           0        5.221342    3.318336   -0.424803
      9          1           0        4.552817    3.306269    1.214047
     10          1           0        3.751289    4.238411   -0.061874
     11          6           0        3.352589   -0.470639   -0.259186
     12          6           0        4.079851   -1.784683    0.027806
     13          6           0        3.240809   -3.013658   -0.323508
     14          1           0        2.412287   -0.448398    0.308910
     15          1           0        3.076492   -0.436278   -1.321982
     16          1           0        4.354418   -1.815835    1.090001
     17          1           0        5.019165   -1.803836   -0.539590
     18          1           0        2.978325   -3.009903   -1.386376
     19          1           0        2.309800   -3.021970    0.252474
     20          1           0        3.779853   -3.942044   -0.110455
     21          6           0       -3.283912   -0.735624    0.165855
     22          6           0       -1.822960   -0.307037    0.306990
     23          6           0       -0.871544   -1.493397    0.465585
     24          1           0       -3.573434   -1.324408    1.047023
     25          1           0       -3.380802   -1.403047   -0.701643
     26          1           0       -1.729101    0.360483    1.173144
     27          1           0       -1.536939    0.280957   -0.574527
     28          1           0       -0.935723   -2.157407   -0.402501
     29          1           0       -1.128976   -2.077429    1.355099
     30          1           0        0.167524   -1.164242    0.564855
     31          6           0       -4.247230    0.439257    0.006474
     32          6           0       -5.708181    0.010671   -0.134660
     33          6           0       -6.659597    1.197030   -0.293255
     34          1           0       -4.150340    1.106680    0.873972
     35          1           0       -3.957707    1.028041   -0.874693
     36          1           0       -5.994203   -0.577324    0.746857
     37          1           0       -5.802041   -0.656850   -1.000814
     38          1           0       -6.402165    1.781062   -1.182770
     39          1           0       -6.595418    1.861040    0.574831
     40          1           0       -7.698665    0.867875   -0.392526
 ---------------------------------------------------------------------

 SCF Done:  E(RHF) =  -470.733195582     A.U. after   11 cycles
 E2 =    -0.1582827365D+01 EUMP2 =    -0.47231602294666D+03

 The electronic state is 1-A.
 Alpha  occ. eigenvalues --  -11.21602 -11.21601 -11.21599 -11.21582 -11.21404
 Alpha  occ. eigenvalues --  -11.21402 -11.21344 -11.21343 -11.21070 -11.21070
 Alpha  occ. eigenvalues --  -11.21047 -11.21009  -1.08437  -1.08418  -1.03538
 Alpha  occ. eigenvalues --   -1.03504  -0.95979  -0.95963  -0.86999  -0.86978
 Alpha  occ. eigenvalues --   -0.79633  -0.79538  -0.78255  -0.78231  -0.65074
 Alpha  occ. eigenvalues --   -0.65056  -0.60931  -0.60916  -0.59448  -0.59240
 Alpha  occ. eigenvalues --   -0.57634  -0.57535  -0.55264  -0.55249  -0.52734
 Alpha  occ. eigenvalues --   -0.52634  -0.52477  -0.52313  -0.49921  -0.49900
 Alpha  occ. eigenvalues --   -0.47960  -0.47852  -0.46626  -0.46603  -0.45789
 Alpha  occ. eigenvalues --   -0.45772  -0.45706  -0.45703  -0.43780  -0.43702
 Alpha virt. eigenvalues --    0.21474   0.23049   0.23638   0.24629   0.25987
 Alpha virt. eigenvalues --    0.26648   0.27134   0.27231   0.27976   0.29018
 Alpha virt. eigenvalues --    0.30674   0.31369   0.31590   0.31827   0.32043

 Mulliken charges:
               1
     1  C   -0.297544
     2  C   -0.299713
     3  C   -0.475700
     4  H    0.149543
     5  H    0.149654
     6  H    0.151891
     7  H    0.151903
     8  H    0.155193
     9  H    0.155174
    10  H    0.160285
    11  C   -0.305614
    12  C   -0.299332
    13  C   -0.478494
    14  H    0.155920
    15  H    0.149685
    16  H    0.151638
    17  H    0.151852
    18  H    0.154865
    19  H    0.159343
    20  H    0.159913
    21  C   -0.298542
    22  C   -0.299314
    23  C   -0.484271
    24  H    0.149593
    25  H    0.149653
    26  H    0.151327
    27  H    0.152476
    28  H    0.156096
    29  H    0.154678
    30  H    0.167786
    31  C   -0.298224
    32  C   -0.299637
    33  C   -0.475700
    34  H    0.149441
    35  H    0.149699
    36  H    0.151923
    37  H    0.151960
    38  H    0.155187
    39  H    0.155156
    40  H    0.160251
 Sum of Mulliken charges =  -0.00000

 Dipole moment (field-independent basis, Debye):
    X=              0.0003    Y=             -0.0019    Z=             -0.0062  Tot=              0.0065
 Quadrupole moment (field-independent basis, Debye-Ang):
   XX=            -85.5996   YY=            -86.3414   ZZ=            -82.8758
   XY=              0.1398   XZ=             -0.6635   YZ=             -0.0686

 Normal termination of Gaussian 16 at Thu May  6 02:20:38 2021.
