 Gaussian 16, Revision A.03,
 Gaussian 16:  EM64L-G16RevA.03 25-Dec-2016

 -------------
 #p 6-31g* mp2
 -------------

 ------------------------------------------------------
 Input file generated by CHIRIPA (05-May-2021 14:55:21)
 ------------------------------------------------------
 Symbolic Z-matrix:
 Charge =  0 Multiplicity = 1

                         Standard orientation:
 ---------------------------------------------------------------------
 Center     Atomic      Atomic             Coordinates (Angstroms)
 Number     Number       Type             X           Y           Z
 ---------------------------------------------------------------------
      1          6           0       -3.049774    2.136260   -0.124764
      2          6           0       -1.868384    1.797419   -0.792614
      3          6           0       -1.398326    0.480818   -0.780172
      4          6           0       -2.138055   -0.475945   -0.086850
      5          6           0       -3.318651   -0.169560    0.588138
      6          6           0       -3.769868    1.153422    0.562270
      7          1           0       -3.407609    3.161506   -0.139644
      8          1           0       -1.307089    2.558626   -1.326989
      9          1           0       -0.486864    0.190958   -1.288736
     10          1           0       -3.856463   -0.950261    1.112240
     11          1           0       -4.687679    1.413684    1.081819
     12          7           0       -1.650398   -1.873150   -0.066571
     13          8           0       -2.320434   -2.697577    0.551497
     14          8           0       -0.607371   -2.117395   -0.669129
     15          6           0        2.791027   -0.346837   -0.263718
     16          6           0        3.248748   -1.552145    0.558297
     17          6           0        3.145717   -2.867806   -0.213854
     18          1           0        1.752652   -0.504009   -0.586237
     19          1           0        3.396451   -0.284514   -1.178581
     20          1           0        2.643565   -1.611367    1.472005
     21          1           0        4.286091   -1.391999    0.879058
     22          1           0        3.763377   -2.833739   -1.117146
     23          1           0        2.111518   -3.054354   -0.520830
     24          1           0        3.477920   -3.716241    0.392494
     25          6           0        2.888144    0.975750    0.494611
     26          6           0        2.430423    2.181059   -0.327404
     27          6           0        2.533454    3.496719    0.444746
     28          1           0        2.282721    0.913429    1.409473
     29          1           0        3.926519    1.132922    0.817130
     30          1           0        1.393080    2.020913   -0.648165
     31          1           0        3.035606    2.240280   -1.241112
     32          1           0        3.567653    3.683267    0.751723
     33          1           0        1.915795    3.462653    1.348038
     34          1           0        2.201252    4.345155   -0.161601
 ---------------------------------------------------------------------

 SCF Done:  E(RHF) =  -669.535749387     A.U. after   15 cycles
 E2 =    -0.2094219689D+01 EUMP2 =    -0.67162996907572D+03

 The electronic state is 1-A.
 Alpha  occ. eigenvalues --  -20.61063 -20.61056 -15.86081 -11.31348 -11.27909
 Alpha  occ. eigenvalues --  -11.27885 -11.27627 -11.26903 -11.26885 -11.21907
 Alpha  occ. eigenvalues --  -11.21397 -11.21272 -11.20896 -11.20831 -11.19849
 Alpha  occ. eigenvalues --   -1.60114  -1.39675  -1.19515  -1.08926  -1.08187
 Alpha  occ. eigenvalues --   -1.04903  -1.03193  -0.95780  -0.95619  -0.86644
 Alpha  occ. eigenvalues --   -0.86303  -0.82622  -0.79379  -0.78032  -0.77554
 Alpha  occ. eigenvalues --   -0.72319  -0.71423  -0.70628  -0.65176  -0.64981
 Alpha  occ. eigenvalues --   -0.64772  -0.62234  -0.60569  -0.59116  -0.57217
 Alpha  occ. eigenvalues --   -0.55407  -0.54888  -0.53233  -0.52993  -0.52351
 Alpha  occ. eigenvalues --   -0.52037  -0.49670  -0.49065  -0.48953  -0.47638
 Alpha  occ. eigenvalues --   -0.46424  -0.45556  -0.45375  -0.44799  -0.43451
 Alpha  occ. eigenvalues --   -0.37487  -0.36475
 Alpha virt. eigenvalues --    0.04777   0.11105   0.16179   0.20149   0.23339
 Alpha virt. eigenvalues --    0.24537   0.25145   0.27233   0.27476   0.28304
 Alpha virt. eigenvalues --    0.29610   0.30917   0.31741   0.31900   0.32535

 Mulliken charges:
               1
     1  C   -0.170570
     2  C   -0.220490
     3  C   -0.171146
     4  C    0.154986
     5  C   -0.170193
     6  C   -0.218707
     7  H    0.226532
     8  H    0.226060
     9  H    0.281774
    10  H    0.275952
    11  H    0.224113
    12  N    0.492794
    13  O   -0.457727
    14  O   -0.465912
    15  C   -0.310896
    16  C   -0.295468
    17  C   -0.487170
    18  H    0.162953
    19  H    0.146662
    20  H    0.151886
    21  H    0.146877
    22  H    0.148266
    23  H    0.184483
    24  H    0.156439
    25  C   -0.297852
    26  C   -0.300901
    27  C   -0.475428
    28  H    0.149566
    29  H    0.150348
    30  H    0.140002
    31  H    0.153084
    32  H    0.158399
    33  H    0.155627
    34  H    0.155655
 Sum of Mulliken charges =  -0.00000

 Dipole moment (field-independent basis, Debye):
    X=             -1.9506    Y=              4.7569    Z=             -0.0446  Tot=              5.1415
 Quadrupole moment (field-independent basis, Debye-Ang):
   XX=            -84.0595   YY=           -100.6524   ZZ=            -93.9224
   XY=             -8.5400   XZ=             -2.5856   YZ=             -1.6265

 Normal termination of Gaussian 16 at Wed May  5 15:56:49 2021.
