 Gaussian 16, Revision A.03,
 Gaussian 16:  EM64L-G16RevA.03 25-Dec-2016

 -------------
 #p 6-31g* mp2
 -------------

 ------------------------------------------------------
 Input file generated by CHIRIPA (05-May-2021 14:55:19)
 ------------------------------------------------------
 Symbolic Z-matrix:
 Charge =  0 Multiplicity = 1

                         Standard orientation:
 ---------------------------------------------------------------------
 Center     Atomic      Atomic             Coordinates (Angstroms)
 Number     Number       Type             X           Y           Z
 ---------------------------------------------------------------------
      1          6           0        0.304041   -0.143644    1.468362
      2          6           0        0.433438   -1.018618    0.384758
      3          6           0        1.651654   -1.136703   -0.290929
      4          6           0        2.724675   -0.361283    0.145693
      5          6           0        2.627184    0.519378    1.221900
      6          6           0        1.399396    0.621213    1.882744
      7          1           0       -0.646016   -0.058224    1.987487
      8          1           0       -0.415536   -1.613853    0.060746
      9          1           0        1.779561   -1.806224   -1.132832
     10          1           0        3.491325    1.099704    1.521733
     11          1           0        1.301811    1.301553    2.723969
     12          7           0        4.019412   -0.477693   -0.561770
     13          8           0        4.949682    0.216457   -0.157552
     14          8           0        4.079442   -1.260881   -1.507100
     15          6           0       -3.507851   -0.234218   -0.549334
     16          6           0       -4.576433   -0.761386    0.408900
     17          6           0       -5.153890   -2.106757   -0.031910
     18          1           0       -3.941173   -0.137305   -1.554214
     19          1           0       -2.698755   -0.973543   -0.627809
     20          1           0       -5.382612   -0.020676    0.486615
     21          1           0       -4.140569   -0.856873    1.411657
     22          1           0       -4.365104   -2.863645   -0.091382
     23          1           0       -5.614204   -2.022696   -1.021680
     24          1           0       -5.915861   -2.465054    0.667293
     25          6           0       -2.921043    1.109986   -0.122133
     26          6           0       -1.852461    1.637155   -1.080367
     27          6           0       -1.275004    2.982526   -0.639557
     28          1           0       -3.730138    1.849311   -0.043657
     29          1           0       -2.487720    1.013073    0.882748
     30          1           0       -2.288325    1.732642   -2.083124
     31          1           0       -1.046282    0.896444   -1.158081
     32          1           0       -0.814690    2.898465    0.350214
     33          1           0       -2.063790    3.739413   -0.580084
     34          1           0       -0.513033    3.340823   -1.338760
 ---------------------------------------------------------------------

 SCF Done:  E(RHF) =  -669.533848045     A.U. after   15 cycles
 E2 =    -0.2095167520D+01 EUMP2 =    -0.67162901556538D+03

 The electronic state is 1-A.
 Alpha  occ. eigenvalues --  -20.60821 -20.60816 -15.85876 -11.31275 -11.27850
 Alpha  occ. eigenvalues --  -11.27846 -11.27582 -11.26872 -11.26846 -11.22516
 Alpha  occ. eigenvalues --  -11.22378 -11.22259 -11.22050 -11.21854 -11.21515
 Alpha  occ. eigenvalues --   -1.59896  -1.39448  -1.19463  -1.09305  -1.08829
 Alpha  occ. eigenvalues --   -1.04872  -1.04232  -0.96709  -0.95677  -0.87718
 Alpha  occ. eigenvalues --   -0.86270  -0.82514  -0.80315  -0.79106  -0.77545
 Alpha  occ. eigenvalues --   -0.72095  -0.71219  -0.70611  -0.66078  -0.65102
 Alpha  occ. eigenvalues --   -0.64758  -0.62207  -0.61673  -0.60070  -0.58313
 Alpha  occ. eigenvalues --   -0.56063  -0.55366  -0.53356  -0.53212  -0.53078
 Alpha  occ. eigenvalues --   -0.52945  -0.50655  -0.48863  -0.48846  -0.48613
 Alpha  occ. eigenvalues --   -0.47376  -0.46609  -0.46534  -0.44846  -0.44534
 Alpha  occ. eigenvalues --   -0.37378  -0.36415
 Alpha virt. eigenvalues --    0.04958   0.11046   0.16326   0.18726   0.23149
 Alpha virt. eigenvalues --    0.23576   0.24668   0.25387   0.26876   0.28633
 Alpha virt. eigenvalues --    0.30239   0.30613   0.30950   0.31396   0.31757

 Mulliken charges:
               1
     1  C   -0.169469
     2  C   -0.223750
     3  C   -0.171979
     4  C    0.159086
     5  C   -0.170278
     6  C   -0.219378
     7  H    0.228873
     8  H    0.229448
     9  H    0.276420
    10  H    0.276164
    11  H    0.224180
    12  N    0.488014
    13  O   -0.460105
    14  O   -0.460109
    15  C   -0.301596
    16  C   -0.299299
    17  C   -0.475560
    18  H    0.155870
    19  H    0.141192
    20  H    0.156044
    21  H    0.146277
    22  H    0.152687
    23  H    0.158357
    24  H    0.163116
    25  C   -0.299639
    26  C   -0.305265
    27  C   -0.475293
    28  H    0.153988
    29  H    0.138611
    30  H    0.153652
    31  H    0.159415
    32  H    0.151053
    33  H    0.154894
    34  H    0.164377
 Sum of Mulliken charges =  -0.00000

 Dipole moment (field-independent basis, Debye):
    X=             -4.5877    Y=              0.4292    Z=              2.4228  Tot=              5.2059
 Quadrupole moment (field-independent basis, Debye-Ang):
   XX=           -118.5232   YY=            -93.8905   ZZ=            -92.2653
   XY=              3.5632   XZ=              8.1503   YZ=              1.0797

 Normal termination of Gaussian 16 at Wed May  5 18:52:19 2021.
