 Gaussian 16, Revision A.03,
 Gaussian 16:  EM64L-G16RevA.03 25-Dec-2016

 -------------
 #p 6-31g* mp2
 -------------

 ------------------------------------------------------
 Input file generated by CHIRIPA (05-May-2021 14:55:18)
 ------------------------------------------------------
 Symbolic Z-matrix:
 Charge =  0 Multiplicity = 1

                         Standard orientation:
 ---------------------------------------------------------------------
 Center     Atomic      Atomic             Coordinates (Angstroms)
 Number     Number       Type             X           Y           Z
 ---------------------------------------------------------------------
      1          6           0       -4.583339   -0.281915   -1.209809
      2          6           0       -3.681031   -1.349395   -1.156432
      3          6           0       -2.541754   -1.276398   -0.349420
      4          6           0       -2.334959   -0.115675    0.394385
      5          6           0       -3.215382    0.964662    0.362473
      6          6           0       -4.348049    0.869676   -0.451524
      7          1           0       -5.465789   -0.347161   -1.839428
      8          1           0       -3.861205   -2.244972   -1.744245
      9          1           0       -1.826834   -2.087999   -0.289330
     10          1           0       -3.008848    1.844393    0.959830
     11          1           0       -5.047075    1.700247   -0.491010
     12          7           0       -1.132356   -0.026757    1.252430
     13          8           0       -0.972903    1.006838    1.898102
     14          8           0       -0.371981   -0.992342    1.263045
     15          6           0        3.017651    0.834575   -0.028838
     16          6           0        3.116320    1.997668   -1.016494
     17          6           0        2.663101    3.326818   -0.411723
     18          1           0        1.979790    0.745301    0.320191
     19          1           0        3.626813    1.062130    0.856901
     20          1           0        2.508256    1.767380   -1.900712
     21          1           0        4.154028    2.084063   -1.363359
     22          1           0        3.276110    3.583077    0.458423
     23          1           0        1.620987    3.264595   -0.081983
     24          1           0        2.741870    4.144547   -1.134891
     25          6           0        3.467246   -0.500932   -0.618763
     26          6           0        3.368575   -1.664026    0.368893
     27          6           0        3.821795   -2.993175   -0.235880
     28          1           0        2.858083   -0.728487   -1.504503
     29          1           0        4.505105   -0.411659   -0.967793
     30          1           0        2.330869   -1.750420    0.715758
     31          1           0        3.976640   -1.433737    1.253110
     32          1           0        4.863908   -2.930952   -0.565618
     33          1           0        3.208786   -3.249435   -1.106024
     34          1           0        3.743026   -3.810904    0.487289
 ---------------------------------------------------------------------

 SCF Done:  E(RHF) =  -669.536554353     A.U. after   15 cycles
 E2 =    -0.2092036002D+01 EUMP2 =    -0.67162859035513D+03

 The electronic state is 1-A.
 Alpha  occ. eigenvalues --  -20.61120 -20.61114 -15.86134 -11.31398 -11.27952
 Alpha  occ. eigenvalues --  -11.27948 -11.27678 -11.26943 -11.26933 -11.20703
 Alpha  occ. eigenvalues --  -11.20300 -11.20224 -11.20202 -11.20123 -11.20101
 Alpha  occ. eigenvalues --   -1.60168  -1.39725  -1.19558  -1.08974  -1.07301
 Alpha  occ. eigenvalues --   -1.04944  -1.02488  -0.95824  -0.94970  -0.86347
 Alpha  occ. eigenvalues --   -0.85990  -0.82662  -0.78534  -0.77721  -0.77076
 Alpha  occ. eigenvalues --   -0.72350  -0.71481  -0.70666  -0.65215  -0.64946
 Alpha  occ. eigenvalues --   -0.63930  -0.62291  -0.59891  -0.58336  -0.56564
 Alpha  occ. eigenvalues --   -0.55450  -0.54272  -0.53280  -0.53034  -0.51703
 Alpha  occ. eigenvalues --   -0.51385  -0.49139  -0.49107  -0.48919  -0.46860
 Alpha  occ. eigenvalues --   -0.45576  -0.45188  -0.44654  -0.44355  -0.42722
 Alpha  occ. eigenvalues --   -0.37532  -0.36542
 Alpha virt. eigenvalues --    0.04754   0.11114   0.16244   0.21225   0.23950
 Alpha virt. eigenvalues --    0.25239   0.27181   0.27576   0.28100   0.28798
 Alpha virt. eigenvalues --    0.29061   0.30931   0.32042   0.32501   0.32783

 Mulliken charges:
               1
     1  C   -0.170303
     2  C   -0.218569
     3  C   -0.170605
     4  C    0.157914
     5  C   -0.170462
     6  C   -0.218598
     7  H    0.226465
     8  H    0.224284
     9  H    0.275841
    10  H    0.276166
    11  H    0.224283
    12  N    0.491652
    13  O   -0.458197
    14  O   -0.463212
    15  C   -0.303064
    16  C   -0.298829
    17  C   -0.475327
    18  H    0.165315
    19  H    0.148836
    20  H    0.146246
    21  H    0.148267
    22  H    0.155559
    23  H    0.158744
    24  H    0.154465
    25  C   -0.295565
    26  C   -0.310827
    27  C   -0.474424
    28  H    0.142926
    29  H    0.143904
    30  H    0.179544
    31  H    0.149220
    32  H    0.150775
    33  H    0.149549
    34  H    0.158027
 Sum of Mulliken charges =  -0.00000

 Dipole moment (field-independent basis, Debye):
    X=             -4.6271    Y=             -0.3193    Z=             -2.8110  Tot=              5.4235
 Quadrupole moment (field-independent basis, Debye-Ang):
   XX=            -75.3258   YY=            -92.2756   ZZ=            -97.6078
   XY=              0.3758   XZ=              6.2063   YZ=              1.6717

 Normal termination of Gaussian 16 at Thu May  6 06:03:54 2021.
