 Gaussian 16, Revision A.03,
 Gaussian 16:  EM64L-G16RevA.03 25-Dec-2016

 -------------
 #p 6-31g* mp2
 -------------

 ------------------------------------------------------
 Input file generated by CHIRIPA (05-May-2021 14:51:12)
 ------------------------------------------------------
 Symbolic Z-matrix:
 Charge =  0 Multiplicity = 1

                         Standard orientation:
 ---------------------------------------------------------------------
 Center     Atomic      Atomic             Coordinates (Angstroms)
 Number     Number       Type             X           Y           Z
 ---------------------------------------------------------------------
      1          6           0        2.303584    0.295207   -0.710335
      2          6           0        3.015662   -1.004958   -0.335501
      3          6           0        3.149554   -1.967222   -1.516143
      4          1           0        1.306871    0.058653   -1.107262
      5          1           0        2.855578    0.786044   -1.523831
      6          1           0        2.463256   -1.492505    0.477987
      7          1           0        4.010722   -0.765271    0.060758
      8          1           0        3.719474   -1.503918   -2.328018
      9          1           0        2.163216   -2.235284   -1.908419
     10          1           0        3.661480   -2.890016   -1.225894
     11          6           0        2.162093    1.267432    0.459488
     12          6           0        1.450015    2.567597    0.084654
     13          6           0        1.316123    3.529861    1.265296
     14          1           0        1.610099    0.776594    1.272984
     15          1           0        3.158806    1.503986    0.856414
     16          1           0        0.454955    2.327909   -0.311605
     17          1           0        2.002421    3.055144   -0.728834
     18          1           0        2.302462    3.797923    1.657571
     19          1           0        0.746204    3.066556    2.077171
     20          1           0        0.804198    4.452654    0.975047
     21          6           0       -2.067355   -1.275270    0.684047
     22          6           0       -0.786437   -2.070781    0.430288
     23          6           0       -0.468721   -3.054742    1.556642
     24          1           0       -1.970851   -0.729956    1.632869
     25          1           0       -2.906016   -1.974133    0.809090
     26          1           0        0.049314   -1.370578    0.304386
     27          1           0       -0.885928   -2.614114   -0.518135
     28          1           0       -1.283279   -3.775872    1.679387
     29          1           0       -0.342724   -2.525271    2.506582
     30          1           0        0.450878   -3.612795    1.354716
     31          6           0       -2.398321   -0.287369   -0.433200
     32          6           0       -3.679240    0.508143   -0.179441
     33          6           0       -3.996957    1.492104   -1.305795
     34          1           0       -1.559661    0.411495   -0.558243
     35          1           0       -2.494826   -0.832683   -1.382022
     36          1           0       -3.579750    1.051476    0.768983
     37          1           0       -4.514991   -0.192060   -0.053538
     38          1           0       -4.122953    0.962632   -2.255735
     39          1           0       -3.182398    2.213234   -1.428540
     40          1           0       -4.916556    2.050157   -1.103868
 ---------------------------------------------------------------------

 SCF Done:  E(RHF) =  -470.732461352     A.U. after   11 cycles
 E2 =    -0.1585484065D+01 EUMP2 =    -0.47231794541702D+03

 The electronic state is 1-A.
 Alpha  occ. eigenvalues --  -11.21674 -11.21652 -11.21615 -11.21586 -11.21473
 Alpha  occ. eigenvalues --  -11.21450 -11.21412 -11.21363 -11.21130 -11.21129
 Alpha  occ. eigenvalues --  -11.21107 -11.21053  -1.08559  -1.08417  -1.03635
 Alpha  occ. eigenvalues --   -1.03514  -0.96040  -0.96006  -0.87063  -0.87015
 Alpha  occ. eigenvalues --   -0.79660  -0.79626  -0.78382  -0.78231  -0.65582
 Alpha  occ. eigenvalues --   -0.64736  -0.61245  -0.60753  -0.59381  -0.59355
 Alpha  occ. eigenvalues --   -0.57637  -0.57614  -0.55325  -0.55306  -0.52724
 Alpha  occ. eigenvalues --   -0.52701  -0.52470  -0.52420  -0.50083  -0.49871
 Alpha  occ. eigenvalues --   -0.48051  -0.47855  -0.46692  -0.46669  -0.46286
 Alpha  occ. eigenvalues --   -0.45812  -0.45728  -0.45244  -0.43837  -0.43815
 Alpha virt. eigenvalues --    0.19247   0.21744   0.23860   0.24592   0.25342
 Alpha virt. eigenvalues --    0.26446   0.26753   0.27813   0.28494   0.30056
 Alpha virt. eigenvalues --    0.30972   0.31281   0.31641   0.31771   0.32388

 Mulliken charges:
               1
     1  C   -0.305295
     2  C   -0.303442
     3  C   -0.476453
     4  H    0.153414
     5  H    0.151271
     6  H    0.155257
     7  H    0.152437
     8  H    0.155135
     9  H    0.156757
    10  H    0.159915
    11  C   -0.299165
    12  C   -0.303301
    13  C   -0.475566
    14  H    0.149173
    15  H    0.150501
    16  H    0.154082
    17  H    0.152646
    18  H    0.155589
    19  H    0.154885
    20  H    0.160471
    21  C   -0.297217
    22  C   -0.311498
    23  C   -0.476393
    24  H    0.149121
    25  H    0.149872
    26  H    0.165123
    27  H    0.151635
    28  H    0.155661
    29  H    0.154817
    30  H    0.161160
    31  C   -0.304653
    32  C   -0.299474
    33  C   -0.475859
    34  H    0.154037
    35  H    0.149917
    36  H    0.152075
    37  H    0.152342
    38  H    0.155349
    39  H    0.155131
    40  H    0.160543
 Sum of Mulliken charges =  -0.00000

 Dipole moment (field-independent basis, Debye):
    X=              0.0010    Y=             -0.0003    Z=             -0.0079  Tot=              0.0080
 Quadrupole moment (field-independent basis, Debye-Ang):
   XX=            -83.8001   YY=            -85.2609   ZZ=            -85.6074
   XY=              1.2182   XZ=             -0.0768   YZ=              0.2015

 Normal termination of Gaussian 16 at Wed May  5 23:11:06 2021.
