 Gaussian 16, Revision A.03,
 Gaussian 16:  EM64L-G16RevA.03 25-Dec-2016

 -------------
 #p 6-31g* mp2
 -------------

 ------------------------------------------------------
 Input file generated by CHIRIPA (05-May-2021 14:57:27)
 ------------------------------------------------------
 Symbolic Z-matrix:
 Charge =  0 Multiplicity = 1

                         Standard orientation:
 ---------------------------------------------------------------------
 Center     Atomic      Atomic             Coordinates (Angstroms)
 Number     Number       Type             X           Y           Z
 ---------------------------------------------------------------------
      1          6           0       -2.772160    2.275295    0.756058
      2          6           0       -3.796561    1.323658    0.717214
      3          6           0       -3.559603    0.046034    0.201388
      4          6           0       -2.280629   -0.247302   -0.269218
      5          6           0       -1.239338    0.679180   -0.244045
      6          6           0       -1.499062    1.950592    0.276150
      7          1           0       -2.965078    3.265371    1.158461
      8          1           0       -4.786242    1.573036    1.089219
      9          1           0       -4.334435   -0.709803    0.159379
     10          1           0       -0.263062    0.401180   -0.622224
     11          1           0       -0.701589    2.687643    0.305066
     12          7           0       -2.017722   -1.596577   -0.817612
     13          8           0       -0.882259   -1.830178   -1.226015
     14          8           0       -2.952095   -2.394989   -0.828657
     15          6           0        2.628684    1.820513   -1.567283
     16          6           0        2.321211    2.171412   -0.248628
     17          6           0        2.150158    1.184916    0.727137
     18          6           0        2.294500   -0.148666    0.347644
     19          6           0        2.600439   -0.530039   -0.957823
     20          6           0        2.767073    0.473283   -1.917056
     21          1           0        2.759846    2.593383   -2.318859
     22          1           0        2.213139    3.216883    0.025879
     23          1           0        1.911765    1.428541    1.755356
     24          1           0        2.701873   -1.580693   -1.201248
     25          1           0        3.005824    0.197833   -2.940369
     26          7           0        2.115753   -1.201931    1.371890
     27          8           0        2.248234   -2.369662    1.012046
     28          8           0        1.846554   -0.839805    2.515147
 ---------------------------------------------------------------------

 SCF Done:  E(RHF) =  -868.335967794     A.U. after   16 cycles
 E2 =    -0.2605496659D+01 EUMP2 =    -0.87094146445284D+03

 The electronic state is 1-A.
 Alpha  occ. eigenvalues --  -20.60736 -20.60664 -20.60621 -20.60607 -15.85770
 Alpha  occ. eigenvalues --  -15.85667 -11.31441 -11.31013 -11.28194 -11.28006
 Alpha  occ. eigenvalues --  -11.27972 -11.27616 -11.27515 -11.27409 -11.27293
 Alpha  occ. eigenvalues --  -11.27089 -11.26648 -11.26636  -1.59770  -1.59679
 Alpha  occ. eigenvalues --   -1.39310  -1.39239  -1.19781  -1.19207  -1.09055
 Alpha  occ. eigenvalues --   -1.08623  -1.05201  -1.04609  -0.95821  -0.95448
 Alpha  occ. eigenvalues --   -0.86527  -0.86042  -0.82643  -0.82288  -0.77624
 Alpha  occ. eigenvalues --   -0.77345  -0.71986  -0.71917  -0.71165  -0.70951
 Alpha  occ. eigenvalues --   -0.70774  -0.70346  -0.65357  -0.65140  -0.64881
 Alpha  occ. eigenvalues --   -0.64673  -0.62477  -0.62079  -0.55635  -0.55263
 Alpha  occ. eigenvalues --   -0.53536  -0.53213  -0.52939  -0.52487  -0.48779
 Alpha  occ. eigenvalues --   -0.48708  -0.48657  -0.48636  -0.44729  -0.44551
 Alpha  occ. eigenvalues --   -0.37845  -0.37213  -0.36903  -0.36029
 Alpha virt. eigenvalues --    0.04878   0.05213   0.10770   0.11401   0.16177
 Alpha virt. eigenvalues --    0.16735   0.20450   0.22002   0.25927   0.28075
 Alpha virt. eigenvalues --    0.28394   0.28567   0.30116   0.31789   0.32435

 Mulliken charges:
               1
     1  C   -0.169855
     2  C   -0.218884
     3  C   -0.168887
     4  C    0.157538
     5  C   -0.175185
     6  C   -0.222415
     7  H    0.223478
     8  H    0.223080
     9  H    0.275942
    10  H    0.286495
    11  H    0.215170
    12  N    0.489331
    13  O   -0.464622
    14  O   -0.458623
    15  C   -0.173053
    16  C   -0.227566
    17  C   -0.178833
    18  C    0.150091
    19  C   -0.160271
    20  C   -0.219211
    21  H    0.227463
    22  H    0.220396
    23  H    0.276274
    24  H    0.286510
    25  H    0.229000
    26  N    0.489885
    27  O   -0.449453
    28  O   -0.463793
 Sum of Mulliken charges =  -0.00000

 Dipole moment (field-independent basis, Debye):
    X=             -0.0886    Y=              8.0052    Z=             -1.8065  Tot=              8.2070
 Quadrupole moment (field-independent basis, Debye-Ang):
   XX=            -93.1736   YY=           -106.5945   ZZ=           -106.8454
   XY=             -2.0153   XZ=            -14.6026   YZ=              2.5708

 Normal termination of Gaussian 16 at Wed May  5 18:03:49 2021.
