 Gaussian 16, Revision A.03,
 Gaussian 16:  EM64L-G16RevA.03 25-Dec-2016

 -------------
 #p 6-31g* mp2
 -------------

 ------------------------------------------------------
 Input file generated by CHIRIPA (05-May-2021 14:51:09)
 ------------------------------------------------------
 Symbolic Z-matrix:
 Charge =  0 Multiplicity = 1

                         Standard orientation:
 ---------------------------------------------------------------------
 Center     Atomic      Atomic             Coordinates (Angstroms)
 Number     Number       Type             X           Y           Z
 ---------------------------------------------------------------------
      1          6           0       -1.840904   -0.837532    0.415328
      2          6           0       -1.845838   -2.352124    0.625020
      3          6           0       -0.530263   -2.872980    1.204474
      4          1           0       -1.012056   -0.569122   -0.253934
      5          1           0       -1.640412   -0.342108    1.375408
      6          1           0       -2.047633   -2.844502   -0.334907
      7          1           0       -2.674888   -2.616980    1.293708
      8          1           0       -0.326020   -2.408632    2.174663
      9          1           0        0.304799   -2.637446    0.536795
     10          1           0       -0.555670   -3.957927    1.346258
     11          6           0       -3.149251   -0.301802   -0.163420
     12          6           0       -3.144317    1.212790   -0.373112
     13          6           0       -4.459892    1.733646   -0.952566
     14          1           0       -3.349743   -0.797226   -1.123500
     15          1           0       -3.978100   -0.570212    0.505842
     16          1           0       -2.315267    1.477646   -1.041800
     17          1           0       -2.942522    1.705168    0.586815
     18          1           0       -5.294955    1.498113   -0.284887
     19          1           0       -4.664136    1.269298   -1.922755
     20          1           0       -4.434485    2.818593   -1.094350
     21          6           0        2.700780    1.304594   -0.094320
     22          6           0        1.702226    2.181754    0.661632
     23          6           0        2.127627    3.649348    0.716358
     24          1           0        3.685930    1.384638    0.385282
     25          1           0        2.818147    1.691638   -1.115994
     26          1           0        1.585731    1.792349    1.681147
     27          1           0        0.719294    2.099464    0.180291
     28          1           0        2.225277    4.060062   -0.293780
     29          1           0        3.096638    3.751202    1.215603
     30          1           0        1.399567    4.258325    1.261277
     31          6           0        2.289376   -0.165260   -0.157588
     32          6           0        3.287930   -1.042420   -0.913540
     33          6           0        2.862528   -2.510015   -0.968266
     34          1           0        2.172009   -0.552304    0.864085
     35          1           0        1.304224   -0.245304   -0.637189
     36          1           0        4.270862   -0.960129   -0.432199
     37          1           0        3.404424   -0.653015   -1.933054
     38          1           0        1.893517   -2.611868   -1.467510
     39          1           0        2.764878   -2.920728    0.041872
     40          1           0        3.590588   -3.118991   -1.513185
 ---------------------------------------------------------------------

 SCF Done:  E(RHF) =  -470.732024267     A.U. after   11 cycles
 E2 =    -0.1585189269D+01 EUMP2 =    -0.47231721353558D+03

 The electronic state is 1-A.
 Alpha  occ. eigenvalues --  -11.21628 -11.21614 -11.21569 -11.21524 -11.21394
 Alpha  occ. eigenvalues --  -11.21366 -11.21334 -11.21286 -11.21112 -11.21079
 Alpha  occ. eigenvalues --  -11.21054 -11.20870  -1.08468  -1.08366  -1.03568
 Alpha  occ. eigenvalues --   -1.03460  -0.96020  -0.95904  -0.87047  -0.86915
 Alpha  occ. eigenvalues --   -0.79718  -0.79465  -0.78485  -0.77972  -0.65182
 Alpha  occ. eigenvalues --   -0.64928  -0.60968  -0.60882  -0.59418  -0.59254
 Alpha  occ. eigenvalues --   -0.57713  -0.57468  -0.55322  -0.55181  -0.52693
 Alpha  occ. eigenvalues --   -0.52644  -0.52524  -0.52237  -0.49968  -0.49845
 Alpha  occ. eigenvalues --   -0.48209  -0.47658  -0.46725  -0.46608  -0.46342
 Alpha  occ. eigenvalues --   -0.45772  -0.45584  -0.44884  -0.43785  -0.43733
 Alpha virt. eigenvalues --    0.20946   0.22696   0.23473   0.24525   0.24976
 Alpha virt. eigenvalues --    0.26143   0.26978   0.27477   0.28817   0.30031
 Alpha virt. eigenvalues --    0.30804   0.31333   0.31646   0.31893   0.32347

 Mulliken charges:
               1
     1  C   -0.304506
     2  C   -0.299207
     3  C   -0.485242
     4  H    0.155458
     5  H    0.149922
     6  H    0.150774
     7  H    0.151354
     8  H    0.153342
     9  H    0.168820
    10  H    0.158858
    11  C   -0.297716
    12  C   -0.300262
    13  C   -0.475684
    14  H    0.149000
    15  H    0.149726
    16  H    0.151230
    17  H    0.152501
    18  H    0.155395
    19  H    0.155117
    20  H    0.160228
    21  C   -0.297923
    22  C   -0.301307
    23  C   -0.475674
    24  H    0.149590
    25  H    0.148975
    26  H    0.151821
    27  H    0.154266
    28  H    0.154971
    29  H    0.155038
    30  H    0.160252
    31  C   -0.306048
    32  C   -0.298488
    33  C   -0.479907
    34  H    0.151984
    35  H    0.154920
    36  H    0.152143
    37  H    0.151567
    38  H    0.154843
    39  H    0.158611
    40  H    0.161258
 Sum of Mulliken charges =  -0.00000

 Dipole moment (field-independent basis, Debye):
    X=              0.0490    Y=              0.0004    Z=             -0.0036  Tot=              0.0491
 Quadrupole moment (field-independent basis, Debye-Ang):
   XX=            -85.2483   YY=            -86.3180   ZZ=            -83.3515
   XY=             -0.0223   XZ=             -0.2551   YZ=              0.1212

 Normal termination of Gaussian 16 at Wed May  5 16:37:01 2021.
