 Gaussian 16, Revision A.03,
 Gaussian 16:  EM64L-G16RevA.03 25-Dec-2016

 -------------
 #p 6-31g* mp2
 -------------

 ------------------------------------------------------
 Input file generated by CHIRIPA (05-May-2021 14:51:12)
 ------------------------------------------------------
 Symbolic Z-matrix:
 Charge =  0 Multiplicity = 1

                         Standard orientation:
 ---------------------------------------------------------------------
 Center     Atomic      Atomic             Coordinates (Angstroms)
 Number     Number       Type             X           Y           Z
 ---------------------------------------------------------------------
      1          6           0        4.354811    0.053856    0.089676
      2          6           0        4.960697   -0.985960   -0.853547
      3          6           0        6.240537   -1.612408   -0.299141
      4          1           0        5.096459    0.841128    0.282309
      5          1           0        4.142657   -0.419484    1.058353
      6          1           0        5.170365   -0.511138   -1.820605
      7          1           0        4.217454   -1.770748   -1.044110
      8          1           0        6.043151   -2.111378    0.655148
      9          1           0        7.001476   -0.844611   -0.125759
     10          1           0        6.656760   -2.352795   -0.989392
     11          6           0        3.074860    0.689051   -0.450678
     12          6           0        2.468975    1.728867    0.492545
     13          6           0        1.189135    2.355315   -0.061861
     14          1           0        3.287014    1.162391   -1.419355
     15          1           0        2.333213   -0.098221   -0.643311
     16          1           0        3.212218    2.513655    0.683108
     17          1           0        2.259307    1.254045    1.459603
     18          1           0        0.428196    1.587518   -0.235243
     19          1           0        1.386521    2.854285   -1.016150
     20          1           0        0.772912    3.095702    0.628390
     21          6           0       -4.220401   -0.062085   -0.301296
     22          6           0       -5.635760   -0.615586   -0.132840
     23          6           0       -6.635785    0.013049   -1.103695
     24          1           0       -4.239651    1.026725   -0.156152
     25          1           0       -3.887548   -0.233879   -1.334297
     26          1           0       -5.965314   -0.444037    0.899915
     27          1           0       -5.613105   -1.703231   -0.278212
     28          1           0       -6.333714   -0.169868   -2.139984
     29          1           0       -6.687924    1.096480   -0.955164
     30          1           0       -7.641127   -0.397039   -0.965943
     31          6           0       -3.209272   -0.680821    0.662298
     32          6           0       -1.793912   -0.127321    0.493841
     33          6           0       -0.793886   -0.755956    1.464697
     34          1           0       -3.542123   -0.509029    1.695299
     35          1           0       -3.190021   -1.769632    0.517155
     36          1           0       -1.816567    0.960323    0.639214
     37          1           0       -1.464358   -0.298869   -0.538912
     38          1           0       -0.741748   -1.839386    1.316166
     39          1           0       -1.095958   -0.573039    2.500986
     40          1           0        0.211455   -0.345868    1.326945
 ---------------------------------------------------------------------

 SCF Done:  E(RHF) =  -470.732385409     A.U. after   11 cycles
 E2 =    -0.1583938516D+01 EUMP2 =    -0.47231632392579D+03

 The electronic state is 1-A.
 Alpha  occ. eigenvalues --  -11.21636 -11.21609 -11.21592 -11.21581 -11.21422
 Alpha  occ. eigenvalues --  -11.21398 -11.21361 -11.21338 -11.21104 -11.21074
 Alpha  occ. eigenvalues --  -11.21061 -11.20951  -1.08472  -1.08406  -1.03622
 Alpha  occ. eigenvalues --   -1.03459  -0.96064  -0.95903  -0.87026  -0.86973
 Alpha  occ. eigenvalues --   -0.79718  -0.79498  -0.78302  -0.78199  -0.65110
 Alpha  occ. eigenvalues --   -0.65076  -0.61141  -0.60940  -0.59347  -0.59257
 Alpha  occ. eigenvalues --   -0.57712  -0.57482  -0.55320  -0.55140  -0.52690
 Alpha  occ. eigenvalues --   -0.52649  -0.52437  -0.52344  -0.49957  -0.49903
 Alpha  occ. eigenvalues --   -0.47981  -0.47843  -0.46706  -0.46569  -0.45853
 Alpha  occ. eigenvalues --   -0.45737  -0.45730  -0.45619  -0.43813  -0.43749
 Alpha virt. eigenvalues --    0.20634   0.23052   0.23690   0.25366   0.26268
 Alpha virt. eigenvalues --    0.26617   0.26674   0.27492   0.28071   0.29235
 Alpha virt. eigenvalues --    0.30861   0.30947   0.31319   0.31787   0.32336

 Mulliken charges:
               1
     1  C   -0.298153
     2  C   -0.299668
     3  C   -0.475723
     4  H    0.149715
     5  H    0.149642
     6  H    0.151852
     7  H    0.152001
     8  H    0.155293
     9  H    0.155155
    10  H    0.160194
    11  C   -0.300197
    12  C   -0.302229
    13  C   -0.484746
    14  H    0.149830
    15  H    0.150392
    16  H    0.152676
    17  H    0.152375
    18  H    0.167752
    19  H    0.154735
    20  H    0.159105
    21  C   -0.298420
    22  C   -0.299691
    23  C   -0.475712
    24  H    0.149945
    25  H    0.149595
    26  H    0.151939
    27  H    0.151919
    28  H    0.155225
    29  H    0.155269
    30  H    0.160267
    31  C   -0.297583
    32  C   -0.303544
    33  C   -0.483457
    34  H    0.149685
    35  H    0.149570
    36  H    0.155196
    37  H    0.151353
    38  H    0.155178
    39  H    0.155687
    40  H    0.167579
 Sum of Mulliken charges =  -0.00000

 Dipole moment (field-independent basis, Debye):
    X=             -0.0288    Y=             -0.0011    Z=             -0.0017  Tot=              0.0289
 Quadrupole moment (field-independent basis, Debye-Ang):
   XX=            -86.0407   YY=            -84.2108   ZZ=            -84.5933
   XY=              0.9929   XZ=             -1.1845   YZ=              0.5604

 Normal termination of Gaussian 16 at Thu May  6 07:04:19 2021.
