 Gaussian 16, Revision A.03,
 Gaussian 16:  EM64L-G16RevA.03 25-Dec-2016

 -------------
 #p 6-31g* mp2
 -------------

 ------------------------------------------------------
 Input file generated by CHIRIPA (05-May-2021 14:51:10)
 ------------------------------------------------------
 Symbolic Z-matrix:
 Charge =  0 Multiplicity = 1

                         Standard orientation:
 ---------------------------------------------------------------------
 Center     Atomic      Atomic             Coordinates (Angstroms)
 Number     Number       Type             X           Y           Z
 ---------------------------------------------------------------------
      1          6           0        2.052105    1.133935    0.067457
      2          6           0        2.186080    2.630757    0.349516
      3          6           0        0.839961    3.304724    0.616965
      4          1           0        1.389289    0.987965   -0.796437
      5          1           0        1.561834    0.649128    0.923023
      6          1           0        2.677201    3.112373   -0.505740
      7          1           0        2.848807    2.773189    1.212721
      8          1           0        0.347294    2.851008    1.483003
      9          1           0        0.174713    3.192119   -0.245221
     10          1           0        0.959048    4.374299    0.816183
     11          6           0        3.389320    0.446136   -0.201833
     12          6           0        3.255345   -1.050687   -0.483892
     13          6           0        4.601463   -1.724654   -0.751341
     14          1           0        3.879591    0.930942   -1.057398
     15          1           0        4.052136    0.592105    0.662061
     16          1           0        2.592618   -1.193119   -1.347097
     17          1           0        2.764224   -1.532303    0.371364
     18          1           0        5.266712   -1.612048    0.110845
     19          1           0        5.094131   -1.270937   -1.617379
     20          1           0        4.482377   -2.794229   -0.950558
     21          6           0       -3.466069   -0.628500    0.109405
     22          6           0       -3.870246    0.590615   -0.720282
     23          6           0       -5.364375    0.901118   -0.625628
     24          1           0       -4.045079   -1.500123   -0.225209
     25          1           0       -3.739823   -0.455798    1.159466
     26          1           0       -3.594557    0.416237   -1.768234
     27          1           0       -3.290068    1.459394   -0.383783
     28          1           0       -5.651301    1.101185    0.411796
     29          1           0       -5.957520    0.052100   -0.980523
     30          1           0       -5.631399    1.776213   -1.226267
     31          6           0       -1.975356   -0.951569    0.024970
     32          6           0       -1.571178   -2.170686    0.854658
     33          6           0       -0.077049   -2.481189    0.760004
     34          1           0       -1.701602   -1.124271   -1.025090
     35          1           0       -1.396345   -0.079947    0.359586
     36          1           0       -2.151356   -3.039465    0.518158
     37          1           0       -1.846867   -1.996307    1.902611
     38          1           0        0.516095   -1.632171    1.114899
     39          1           0        0.209876   -2.681256   -0.277420
     40          1           0        0.189974   -3.356283    1.360643
 ---------------------------------------------------------------------

 SCF Done:  E(RHF) =  -470.732269857     A.U. after   11 cycles
 E2 =    -0.1584305724D+01 EUMP2 =    -0.47231657558107D+03

 The electronic state is 1-A.
 Alpha  occ. eigenvalues --  -11.21623 -11.21570 -11.21542 -11.21467 -11.21398
 Alpha  occ. eigenvalues --  -11.21355 -11.21326 -11.21291 -11.21118 -11.21046
 Alpha  occ. eigenvalues --  -11.20999 -11.20964  -1.08438  -1.08363  -1.03527
 Alpha  occ. eigenvalues --   -1.03465  -0.95966  -0.95938  -0.87021  -0.86924
 Alpha  occ. eigenvalues --   -0.79690  -0.79476  -0.78378  -0.78019  -0.65123
 Alpha  occ. eigenvalues --   -0.64958  -0.60947  -0.60851  -0.59352  -0.59303
 Alpha  occ. eigenvalues --   -0.57576  -0.57543  -0.55289  -0.55199  -0.52714
 Alpha  occ. eigenvalues --   -0.52635  -0.52454  -0.52278  -0.49921  -0.49893
 Alpha  occ. eigenvalues --   -0.48118  -0.47741  -0.46703  -0.46578  -0.46108
 Alpha  occ. eigenvalues --   -0.45724  -0.45601  -0.45072  -0.43760  -0.43735
 Alpha virt. eigenvalues --    0.21139   0.22969   0.23788   0.23994   0.25270
 Alpha virt. eigenvalues --    0.26104   0.26954   0.27554   0.28413   0.30157
 Alpha virt. eigenvalues --    0.30601   0.30951   0.31607   0.31960   0.32192

 Mulliken charges:
               1
     1  C   -0.302390
     2  C   -0.299353
     3  C   -0.476462
     4  H    0.151702
     5  H    0.151443
     6  H    0.152271
     7  H    0.151893
     8  H    0.154397
     9  H    0.155813
    10  H    0.160633
    11  C   -0.298546
    12  C   -0.303765
    13  C   -0.475441
    14  H    0.149200
    15  H    0.149045
    16  H    0.151404
    17  H    0.160015
    18  H    0.154638
    19  H    0.154478
    20  H    0.160087
    21  C   -0.298114
    22  C   -0.299894
    23  C   -0.475630
    24  H    0.149461
    25  H    0.149329
    26  H    0.151495
    27  H    0.152481
    28  H    0.155198
    29  H    0.155062
    30  H    0.160135
    31  C   -0.300615
    32  C   -0.300199
    33  C   -0.480007
    34  H    0.148708
    35  H    0.153016
    36  H    0.151433
    37  H    0.151093
    38  H    0.160304
    39  H    0.156827
    40  H    0.158857
 Sum of Mulliken charges =  -0.00000

 Dipole moment (field-independent basis, Debye):
    X=              0.0206    Y=              0.0078    Z=             -0.0004  Tot=              0.0220
 Quadrupole moment (field-independent basis, Debye-Ang):
   XX=            -86.8913   YY=            -84.9484   ZZ=            -83.1944
   XY=              0.9786   XZ=              0.4556   YZ=              0.1781

 Normal termination of Gaussian 16 at Thu May  6 00:36:28 2021.
