 Gaussian 16, Revision A.03,
 Gaussian 16:  EM64L-G16RevA.03 25-Dec-2016

 -------------
 #p 6-31g* mp2
 -------------

 ------------------------------------------------------
 Input file generated by CHIRIPA (05-May-2021 14:53:15)
 ------------------------------------------------------
 Symbolic Z-matrix:
 Charge =  0 Multiplicity = 1

                         Standard orientation:
 ---------------------------------------------------------------------
 Center     Atomic      Atomic             Coordinates (Angstroms)
 Number     Number       Type             X           Y           Z
 ---------------------------------------------------------------------
      1          6           0       -4.619192    0.174339   -0.229281
      2          6           0       -6.030273   -0.365727   -0.464154
      3          6           0       -6.993664    0.702820   -0.981724
      4          1           0       -4.666219    1.005736    0.487316
      5          1           0       -4.233257    0.593107   -1.169006
      6          1           0       -6.412898   -0.784599    0.475399
      7          1           0       -5.979858   -1.196060   -1.180130
      8          1           0       -6.638094    1.114416   -1.931862
      9          1           0       -7.073595    1.528214   -0.266926
     10          1           0       -7.996524    0.295129   -1.142718
     11          6           0       -3.644549   -0.882069    0.288215
     12          6           0       -2.233469   -0.342003    0.523088
     13          6           0       -1.270078   -1.410550    1.040658
     14          1           0       -4.030485   -1.300837    1.227939
     15          1           0       -3.597523   -1.713466   -0.428383
     16          1           0       -2.283884    0.488330    1.239064
     17          1           0       -1.850844    0.076869   -0.416465
     18          1           0       -1.190147   -2.235945    0.325860
     19          1           0       -1.625647   -1.822146    1.990795
     20          1           0       -0.267218   -1.002859    1.201652
     21          6           0        1.822690    2.193040    0.824132
     22          6           0        2.697805    2.387782   -0.249539
     23          6           0        3.481288    1.333030   -0.727244
     24          6           0        3.363887    0.091169   -0.104921
     25          6           0        2.501229   -0.134320    0.966652
     26          6           0        1.727363    0.934829    1.427737
     27          1           0        1.217796    3.017988    1.188769
     28          1           0        2.773911    3.363841   -0.720243
     29          1           0        4.166928    1.456031   -1.556814
     30          1           0        2.447219   -1.118731    1.415468
     31          1           0        1.048591    0.780679    2.261734
     32          7           0        4.188235   -1.033070   -0.601848
     33          8           0        4.066353   -2.117505   -0.036353
     34          8           0        4.940632   -0.808527   -1.547424
 ---------------------------------------------------------------------

 SCF Done:  E(RHF) =  -669.534511015     A.U. after   15 cycles
 E2 =    -0.2092488436D+01 EUMP2 =    -0.67162699945125D+03

 The electronic state is 1-A.
 Alpha  occ. eigenvalues --  -20.60781 -20.60776 -15.85836 -11.31222 -11.27793
 Alpha  occ. eigenvalues --  -11.27788 -11.27534 -11.26812 -11.26796 -11.22096
 Alpha  occ. eigenvalues --  -11.21881 -11.21768 -11.21704 -11.21491 -11.21328
 Alpha  occ. eigenvalues --   -1.59856  -1.39409  -1.19406  -1.08810  -1.08779
 Alpha  occ. eigenvalues --   -1.04830  -1.03900  -0.96354  -0.95621  -0.87378
 Alpha  occ. eigenvalues --   -0.86203  -0.82465  -0.79973  -0.78607  -0.77507
 Alpha  occ. eigenvalues --   -0.72054  -0.71180  -0.70503  -0.65428  -0.65065
 Alpha  occ. eigenvalues --   -0.64824  -0.62234  -0.61294  -0.59723  -0.57976
 Alpha  occ. eigenvalues --   -0.55624  -0.55300  -0.53446  -0.52927  -0.52904
 Alpha  occ. eigenvalues --   -0.52555  -0.50279  -0.48815  -0.48806  -0.48285
 Alpha  occ. eigenvalues --   -0.47001  -0.46151  -0.46068  -0.44810  -0.44174
 Alpha  occ. eigenvalues --   -0.37377  -0.36340
 Alpha virt. eigenvalues --    0.05006   0.11198   0.16362   0.20787   0.22642
 Alpha virt. eigenvalues --    0.24097   0.26226   0.26555   0.27075   0.28055
 Alpha virt. eigenvalues --    0.28583   0.30666   0.31051   0.31492   0.32114

 Mulliken charges:
               1
     1  C   -0.298314
     2  C   -0.299967
     3  C   -0.475855
     4  H    0.147901
     5  H    0.149838
     6  H    0.152293
     7  H    0.153344
     8  H    0.155415
     9  H    0.154555
    10  H    0.161358
    11  C   -0.298622
    12  C   -0.298292
    13  C   -0.482657
    14  H    0.149911
    15  H    0.152464
    16  H    0.144839
    17  H    0.154463
    18  H    0.161483
    19  H    0.154129
    20  H    0.157471
    21  C   -0.171851
    22  C   -0.218725
    23  C   -0.171171
    24  C    0.157362
    25  C   -0.169309
    26  C   -0.218092
    27  H    0.226098
    28  H    0.223665
    29  H    0.275787
    30  H    0.276938
    31  H    0.225842
    32  N    0.488116
    33  O   -0.459974
    34  O   -0.460444
 Sum of Mulliken charges =  -0.00000

 Dipole moment (field-independent basis, Debye):
    X=             -2.9229    Y=              3.9572    Z=              1.6838  Tot=              5.1998
 Quadrupole moment (field-independent basis, Debye-Ang):
   XX=           -114.5374   YY=            -92.9143   ZZ=            -92.4459
   XY=             15.1514   XZ=              4.2246   YZ=             -2.0977

 Normal termination of Gaussian 16 at Wed May  5 17:08:20 2021.
