 Gaussian 16, Revision A.03,
 Gaussian 16:  EM64L-G16RevA.03 25-Dec-2016

 -------------
 #p 6-31g* mp2
 -------------

 ------------------------------------------------------
 Input file generated by CHIRIPA (05-May-2021 14:53:12)
 ------------------------------------------------------
 Symbolic Z-matrix:
 Charge =  0 Multiplicity = 1

                         Standard orientation:
 ---------------------------------------------------------------------
 Center     Atomic      Atomic             Coordinates (Angstroms)
 Number     Number       Type             X           Y           Z
 ---------------------------------------------------------------------
      1          6           0       -3.961649   -0.415361   -0.026427
      2          6           0       -5.382921   -0.786678   -0.450803
      3          6           0       -5.847365   -2.118302    0.139845
      4          1           0       -3.273375   -1.214494   -0.334015
      5          1           0       -3.914674   -0.367343    1.070333
      6          1           0       -5.427541   -0.832626   -1.546482
      7          1           0       -6.067864    0.013521   -0.142338
      8          1           0       -5.831394   -2.080932    1.233897
      9          1           0       -5.187432   -2.931887   -0.178225
     10          1           0       -6.865868   -2.364297   -0.176378
     11          6           0       -3.483114    0.913348   -0.608892
     12          6           0       -2.061842    1.284665   -0.184516
     13          6           0       -1.597399    2.616288   -0.775164
     14          1           0       -3.530090    0.865330   -1.705652
     15          1           0       -4.171388    1.712480   -0.301304
     16          1           0       -1.376899    0.484466   -0.492981
     17          1           0       -2.017223    1.330613    0.911163
     18          1           0       -2.257331    3.429873   -0.457094
     19          1           0       -1.613369    2.578919   -1.869216
     20          1           0       -0.578895    2.862283   -0.458941
     21          6           0        1.041055    0.787182    1.632469
     22          6           0        1.187034   -0.600710    1.537762
     23          6           0        2.217855   -1.155713    0.773610
     24          6           0        3.088611   -0.289433    0.114343
     25          6           0        2.969259    1.097449    0.189174
     26          6           0        1.931065    1.630344    0.959060
     27          1           0        0.237425    1.209735    2.228307
     28          1           0        0.497318   -1.257946    2.059660
     29          1           0        2.353887   -2.226561    0.683061
     30          1           0        3.672377    1.727067   -0.342450
     31          1           0        1.820110    2.708578    1.030805
     32          7           0        4.183798   -0.865289   -0.697665
     33          8           0        4.937784   -0.080527   -1.268882
     34          8           0        4.267480   -2.090502   -0.747525
 ---------------------------------------------------------------------

 SCF Done:  E(RHF) =  -669.534997907     A.U. after   15 cycles
 E2 =    -0.2092878652D+01 EUMP2 =    -0.67162787655976D+03

 The electronic state is 1-A.
 Alpha  occ. eigenvalues --  -20.60771 -20.60766 -15.85827 -11.31191 -11.27785
 Alpha  occ. eigenvalues --  -11.27781 -11.27510 -11.26781 -11.26764 -11.22296
 Alpha  occ. eigenvalues --  -11.22065 -11.21979 -11.21921 -11.21736 -11.21488
 Alpha  occ. eigenvalues --   -1.59848  -1.39401  -1.19383  -1.09021  -1.08762
 Alpha  occ. eigenvalues --   -1.04788  -1.04100  -0.96546  -0.95600  -0.87562
 Alpha  occ. eigenvalues --   -0.86180  -0.82441  -0.80176  -0.78832  -0.77482
 Alpha  occ. eigenvalues --   -0.72045  -0.71173  -0.70491  -0.65637  -0.65033
 Alpha  occ. eigenvalues --   -0.64797  -0.62139  -0.61494  -0.59945  -0.58185
 Alpha  occ. eigenvalues --   -0.55827  -0.55275  -0.53364  -0.53055  -0.52931
 Alpha  occ. eigenvalues --   -0.52808  -0.50475  -0.48810  -0.48799  -0.48479
 Alpha  occ. eigenvalues --   -0.47198  -0.46367  -0.46282  -0.44808  -0.44360
 Alpha  occ. eigenvalues --   -0.37287  -0.36380
 Alpha virt. eigenvalues --    0.05052   0.11130   0.16493   0.20147   0.22587
 Alpha virt. eigenvalues --    0.24021   0.25389   0.26192   0.26676   0.28023
 Alpha virt. eigenvalues --    0.28618   0.29692   0.31089   0.31746   0.31903

 Mulliken charges:
               1
     1  C   -0.298388
     2  C   -0.299957
     3  C   -0.476064
     4  H    0.149881
     5  H    0.145793
     6  H    0.153940
     7  H    0.152606
     8  H    0.154235
     9  H    0.155704
    10  H    0.162140
    11  C   -0.298697
    12  C   -0.300086
    13  C   -0.477978
    14  H    0.152716
    15  H    0.150075
    16  H    0.159062
    17  H    0.139391
    18  H    0.154961
    19  H    0.160140
    20  H    0.155674
    21  C   -0.164147
    22  C   -0.220118
    23  C   -0.171208
    24  C    0.157991
    25  C   -0.171298
    26  C   -0.220225
    27  H    0.227557
    28  H    0.224045
    29  H    0.275674
    30  H    0.275844
    31  H    0.223599
    32  N    0.488137
    33  O   -0.460435
    34  O   -0.460566
 Sum of Mulliken charges =  -0.00000

 Dipole moment (field-independent basis, Debye):
    X=             -3.9161    Y=              1.9861    Z=              2.7933  Tot=              5.2041
 Quadrupole moment (field-independent basis, Debye-Ang):
   XX=           -118.7323   YY=            -92.5546   ZZ=            -93.9124
   XY=              8.5699   XZ=              8.1683   YZ=             -1.1930

 Normal termination of Gaussian 16 at Thu May  6 13:38:33 2021.
