 Gaussian 16, Revision A.03,
 Gaussian 16:  EM64L-G16RevA.03 25-Dec-2016

 -------------
 #p 6-31g* mp2
 -------------

 ------------------------------------------------------
 Input file generated by CHIRIPA (05-May-2021 14:53:14)
 ------------------------------------------------------
 Symbolic Z-matrix:
 Charge =  0 Multiplicity = 1

                         Standard orientation:
 ---------------------------------------------------------------------
 Center     Atomic      Atomic             Coordinates (Angstroms)
 Number     Number       Type             X           Y           Z
 ---------------------------------------------------------------------
      1          6           0       -3.563500   -0.151976   -0.447346
      2          6           0       -3.253938   -1.591047   -0.033546
      3          6           0       -4.466445   -2.514666   -0.154159
      4          1           0       -4.383079    0.233397    0.174524
      5          1           0       -3.928281   -0.146268   -1.483829
      6          1           0       -2.888538   -1.593888    1.001389
      7          1           0       -2.434872   -1.972974   -0.656345
      8          1           0       -4.829025   -2.541556   -1.186832
      9          1           0       -5.285270   -2.160317    0.480321
     10          1           0       -4.222797   -3.538397    0.146624
     11          6           0       -2.361221    0.783440   -0.332230
     12          6           0       -2.670783    2.222511   -0.746030
     13          6           0       -1.458276    3.146131   -0.625418
     14          1           0       -1.996440    0.777732    0.704253
     15          1           0       -1.541642    0.398067   -0.954100
     16          1           0       -3.489850    2.604438   -0.123232
     17          1           0       -3.036183    2.225352   -1.780965
     18          1           0       -0.639451    2.791781   -1.259897
     19          1           0       -1.095696    3.173021    0.407255
     20          1           0       -1.701924    4.169862   -0.926200
     21          6           0        4.226785   -0.744978   -1.263974
     22          6           0        4.108918    0.522574   -0.684370
     23          6           0        3.053354    0.809872    0.186141
     24          6           0        2.129456   -0.198491    0.456158
     25          6           0        2.219735   -1.471111   -0.105605
     26          6           0        3.283480   -1.736028   -0.973254
     27          1           0        5.049949   -0.959465   -1.939096
     28          1           0        4.840027    1.294174   -0.908331
     29          1           0        2.938146    1.782585    0.648713
     30          1           0        1.475394   -2.219857    0.136785
     31          1           0        3.372504   -2.721325   -1.421929
     32          7           0        1.007648    0.093812    1.376215
     33          8           0        0.206809   -0.811799    1.597945
     34          8           0        0.950454    1.222995    1.858203
 ---------------------------------------------------------------------

 SCF Done:  E(RHF) =  -669.536670756     A.U. after   15 cycles
 E2 =    -0.2093091250D+01 EUMP2 =    -0.67162976200630D+03

 The electronic state is 1-A.
 Alpha  occ. eigenvalues --  -20.61007 -20.60999 -15.85985 -11.31300 -11.27854
 Alpha  occ. eigenvalues --  -11.27849 -11.27592 -11.26858 -11.26848 -11.20649
 Alpha  occ. eigenvalues --  -11.20552 -11.20407 -11.20310 -11.20161 -11.20123
 Alpha  occ. eigenvalues --   -1.60032  -1.39591  -1.19461  -1.08870  -1.07402
 Alpha  occ. eigenvalues --   -1.04853  -1.02582  -0.95716  -0.95046  -0.86254
 Alpha  occ. eigenvalues --   -0.86067  -0.82555  -0.78631  -0.77615  -0.77214
 Alpha  occ. eigenvalues --   -0.72223  -0.71307  -0.70570  -0.65117  -0.64859
 Alpha  occ. eigenvalues --   -0.64033  -0.62199  -0.59983  -0.58419  -0.56656
 Alpha  occ. eigenvalues --   -0.55362  -0.54335  -0.53187  -0.52944  -0.51776
 Alpha  occ. eigenvalues --   -0.51478  -0.49069  -0.48998  -0.48944  -0.46955
 Alpha  occ. eigenvalues --   -0.45666  -0.45121  -0.44703  -0.44434  -0.42815
 Alpha  occ. eigenvalues --   -0.37432  -0.36452
 Alpha virt. eigenvalues --    0.04868   0.11190   0.16336   0.21290   0.23845
 Alpha virt. eigenvalues --    0.25091   0.27048   0.27532   0.27950   0.28832
 Alpha virt. eigenvalues --    0.29010   0.31069   0.31980   0.32438   0.32671

 Mulliken charges:
               1
     1  C   -0.297930
     2  C   -0.299290
     3  C   -0.475430
     4  H    0.148121
     5  H    0.143319
     6  H    0.167793
     7  H    0.144921
     8  H    0.150884
     9  H    0.154193
    10  H    0.157071
    11  C   -0.305230
    12  C   -0.298052
    13  C   -0.479895
    14  H    0.175827
    15  H    0.138030
    16  H    0.150774
    17  H    0.145840
    18  H    0.146298
    19  H    0.171312
    20  H    0.154465
    21  C   -0.170500
    22  C   -0.218701
    23  C   -0.170592
    24  C    0.159389
    25  C   -0.171106
    26  C   -0.218686
    27  H    0.226033
    28  H    0.223955
    29  H    0.276273
    30  H    0.276203
    31  H    0.223856
    32  N    0.490330
    33  O   -0.459166
    34  O   -0.460309
 Sum of Mulliken charges =  -0.00000

 Dipole moment (field-independent basis, Debye):
    X=              4.1958    Y=             -1.0598    Z=             -2.9275  Tot=              5.2248
 Quadrupole moment (field-independent basis, Debye-Ang):
   XX=            -79.1297   YY=            -91.1950   ZZ=            -97.6800
   XY=             -1.9725   XZ=             -6.1406   YZ=              1.3346

 Normal termination of Gaussian 16 at Wed May  5 20:14:46 2021.
