 Gaussian 16, Revision A.03,
 Gaussian 16:  EM64L-G16RevA.03 25-Dec-2016

 -------------
 #p 6-31g* mp2
 -------------

 ------------------------------------------------------
 Input file generated by CHIRIPA (05-May-2021 14:51:11)
 ------------------------------------------------------
 Symbolic Z-matrix:
 Charge =  0 Multiplicity = 1

                         Standard orientation:
 ---------------------------------------------------------------------
 Center     Atomic      Atomic             Coordinates (Angstroms)
 Number     Number       Type             X           Y           Z
 ---------------------------------------------------------------------
      1          6           0       -2.400605    0.131393    0.748903
      2          6           0       -1.904034   -0.743084    1.900724
      3          6           0       -0.681006   -0.154740    2.604890
      4          1           0       -1.587413    0.266700    0.022710
      5          1           0       -2.644229    1.130812    1.135172
      6          1           0       -1.662730   -1.740973    1.512644
      7          1           0       -2.718561   -0.876483    2.624164
      8          1           0       -0.912454    0.831966    3.018946
      9          1           0        0.149377   -0.037436    1.901111
     10          1           0       -0.342770   -0.795917    3.424858
     11          6           0       -3.622774   -0.443517    0.035104
     12          6           0       -4.119345    0.430961   -1.116717
     13          6           0       -5.342372   -0.157383   -1.820883
     14          1           0       -3.379150   -1.442936   -0.351165
     15          1           0       -4.435966   -0.578824    0.761297
     16          1           0       -3.304817    0.564360   -1.840157
     17          1           0       -4.360649    1.428850   -0.728637
     18          1           0       -6.172755   -0.274688   -1.117104
     19          1           0       -5.110924   -1.144090   -2.234939
     20          1           0       -5.680609    0.483793   -2.640851
     21          6           0        3.275993   -0.445023   -0.782225
     22          6           0        3.091000   -1.773491   -0.048105
     23          6           0        3.624681   -2.966627   -0.841458
     24          1           0        2.768065   -0.497106   -1.754974
     25          1           0        4.343871   -0.297126   -0.994735
     26          1           0        2.023941   -1.918182    0.164181
     27          1           0        3.599267   -1.718172    0.923091
     28          1           0        4.694674   -2.848938   -1.041121
     29          1           0        3.110397   -3.050083   -1.804343
     30          1           0        3.482247   -3.906023   -0.298220
     31          6           0        2.747385    0.757146   -0.001782
     32          6           0        2.932379    2.085616   -0.735902
     33          6           0        2.398698    3.278750    0.057451
     34          1           0        1.679508    0.609250    0.210728
     35          1           0        3.255315    0.809229    0.970967
     36          1           0        2.424111    2.030296   -1.707098
     37          1           0        3.999438    2.230305   -0.948187
     38          1           0        2.912982    3.362207    1.020336
     39          1           0        1.328705    3.161061    0.257114
     40          1           0        2.541132    4.218147   -0.485786
 ---------------------------------------------------------------------

 SCF Done:  E(RHF) =  -470.733309647     A.U. after   11 cycles
 E2 =    -0.1583050166D+01 EUMP2 =    -0.47231635981239D+03

 The electronic state is 1-A.
 Alpha  occ. eigenvalues --  -11.21634 -11.21629 -11.21615 -11.21610 -11.21443
 Alpha  occ. eigenvalues --  -11.21434 -11.21382 -11.21375 -11.21098 -11.21092
 Alpha  occ. eigenvalues --  -11.21058 -11.21012  -1.08472  -1.08446  -1.03549
 Alpha  occ. eigenvalues --   -1.03539  -0.96011  -0.95975  -0.87027  -0.86991
 Alpha  occ. eigenvalues --   -0.79634  -0.79586  -0.78335  -0.78215  -0.65183
 Alpha  occ. eigenvalues --   -0.65009  -0.60958  -0.60929  -0.59379  -0.59343
 Alpha  occ. eigenvalues --   -0.57666  -0.57550  -0.55365  -0.55208  -0.52695
 Alpha  occ. eigenvalues --   -0.52674  -0.52493  -0.52346  -0.50016  -0.49874
 Alpha  occ. eigenvalues --   -0.48009  -0.47876  -0.46754  -0.46619  -0.45993
 Alpha  occ. eigenvalues --   -0.45777  -0.45761  -0.45377  -0.43806  -0.43800
 Alpha virt. eigenvalues --    0.20393   0.23314   0.23896   0.24179   0.25715
 Alpha virt. eigenvalues --    0.26894   0.27065   0.27734   0.27934   0.29415
 Alpha virt. eigenvalues --    0.30847   0.31605   0.31690   0.31828   0.32123

 Mulliken charges:
               1
     1  C   -0.298952
     2  C   -0.299413
     3  C   -0.483838
     4  H    0.148591
     5  H    0.149792
     6  H    0.151489
     7  H    0.152102
     8  H    0.154998
     9  H    0.163451
    10  H    0.160413
    11  C   -0.298273
    12  C   -0.299658
    13  C   -0.475729
    14  H    0.149515
    15  H    0.149997
    16  H    0.151690
    17  H    0.152056
    18  H    0.155290
    19  H    0.155193
    20  H    0.160335
    21  C   -0.297841
    22  C   -0.300557
    23  C   -0.475721
    24  H    0.149212
    25  H    0.149851
    26  H    0.152102
    27  H    0.152446
    28  H    0.155407
    29  H    0.155030
    30  H    0.160410
    31  C   -0.306011
    32  C   -0.298962
    33  C   -0.476061
    34  H    0.156238
    35  H    0.150244
    36  H    0.151629
    37  H    0.152050
    38  H    0.155375
    39  H    0.155921
    40  H    0.160189
 Sum of Mulliken charges =  -0.00000

 Dipole moment (field-independent basis, Debye):
    X=              0.0190    Y=              0.0071    Z=              0.0060  Tot=              0.0212
 Quadrupole moment (field-independent basis, Debye-Ang):
   XX=            -84.3534   YY=            -85.5275   ZZ=            -84.7669
   XY=             -0.1487   XZ=             -0.3433   YZ=             -0.2165

 Normal termination of Gaussian 16 at Wed May  5 19:50:04 2021.
