 Gaussian 16, Revision A.03,
 Gaussian 16:  EM64L-G16RevA.03 25-Dec-2016

 -------------
 #p 6-31g* mp2
 -------------

 ------------------------------------------------------
 Input file generated by CHIRIPA (05-May-2021 14:55:21)
 ------------------------------------------------------
 Symbolic Z-matrix:
 Charge =  0 Multiplicity = 1

                         Standard orientation:
 ---------------------------------------------------------------------
 Center     Atomic      Atomic             Coordinates (Angstroms)
 Number     Number       Type             X           Y           Z
 ---------------------------------------------------------------------
      1          6           0       -3.392595    1.880018    0.199557
      2          6           0       -2.025431    1.765276   -0.072871
      3          6           0       -1.432046    0.506901   -0.210479
      4          6           0       -2.239226   -0.620785   -0.068793
      5          6           0       -3.604125   -0.539192    0.202655
      6          6           0       -4.176197    0.729447    0.336209
      7          1           0       -3.845273    2.861541    0.304879
      8          1           0       -1.414429    2.657099   -0.179510
      9          1           0       -0.376068    0.389193   -0.421365
     10          1           0       -4.187418   -1.446388    0.303563
     11          1           0       -5.238210    0.815531    0.547783
     12          7           0       -1.622317   -1.958403   -0.212326
     13          8           0       -2.355213   -2.936545   -0.082946
     14          8           0       -0.417570   -2.003358   -0.451490
     15          6           0        3.318371   -0.101217   -0.263447
     16          6           0        3.561650   -1.244399    0.722420
     17          6           0        4.206357   -2.464958    0.064861
     18          1           0        2.677959   -0.460318   -1.080677
     19          1           0        4.274524    0.189453   -0.720260
     20          1           0        2.605528   -1.531898    1.178262
     21          1           0        4.201401   -0.882482    1.537498
     22          1           0        5.173460   -2.199975   -0.374566
     23          1           0        3.568520   -2.853081   -0.735842
     24          1           0        4.371308   -3.270115    0.787615
     25          6           0        2.674333    1.126059    0.378997
     26          6           0        2.431054    2.269242   -0.606870
     27          6           0        1.786348    3.489801    0.050690
     28          1           0        1.718180    0.835391    0.835811
     29          1           0        3.314745    1.485161    1.196227
     30          1           0        1.791303    1.907324   -1.421947
     31          1           0        3.387177    2.556740   -1.062711
     32          1           0        2.424184    3.877924    0.851393
     33          1           0        0.819245    3.224819    0.490116
     34          1           0        1.621396    4.294958   -0.672065
 ---------------------------------------------------------------------

 SCF Done:  E(RHF) =  -669.535533493     A.U. after   15 cycles
 E2 =    -0.2093241409D+01 EUMP2 =    -0.67162877490230D+03

 The electronic state is 1-A.
 Alpha  occ. eigenvalues --  -20.60886 -20.60877 -15.85926 -11.31236 -11.27803
 Alpha  occ. eigenvalues --  -11.27776 -11.27527 -11.26809 -11.26763 -11.22111
 Alpha  occ. eigenvalues --  -11.21848 -11.21562 -11.21093 -11.20988 -11.20353
 Alpha  occ. eigenvalues --   -1.59949  -1.39505  -1.19404  -1.08808  -1.08444
 Alpha  occ. eigenvalues --   -1.04802  -1.03497  -0.95981  -0.95652  -0.87011
 Alpha  occ. eigenvalues --   -0.86194  -0.82490  -0.79658  -0.78102  -0.77547
 Alpha  occ. eigenvalues --   -0.72149  -0.71266  -0.70529  -0.65190  -0.65050
 Alpha  occ. eigenvalues --   -0.64801  -0.62169  -0.60800  -0.59443  -0.57535
 Alpha  occ. eigenvalues --   -0.55340  -0.55290  -0.53131  -0.52924  -0.52683
 Alpha  occ. eigenvalues --   -0.52336  -0.49910  -0.48900  -0.48894  -0.47927
 Alpha  occ. eigenvalues --   -0.46718  -0.45659  -0.45499  -0.44893  -0.43737
 Alpha  occ. eigenvalues --   -0.37381  -0.36391
 Alpha virt. eigenvalues --    0.04945   0.11198   0.16405   0.18777   0.23057
 Alpha virt. eigenvalues --    0.23919   0.25951   0.26436   0.27635   0.28452
 Alpha virt. eigenvalues --    0.29765   0.31213   0.31485   0.32115   0.32907

 Mulliken charges:
               1
     1  C   -0.170800
     2  C   -0.226244
     3  C   -0.179555
     4  C    0.158013
     5  C   -0.170184
     6  C   -0.218679
     7  H    0.226283
     8  H    0.231092
     9  H    0.285993
    10  H    0.275635
    11  H    0.223642
    12  N    0.488547
    13  O   -0.459306
    14  O   -0.463133
    15  C   -0.300167
    16  C   -0.300545
    17  C   -0.476925
    18  H    0.158493
    19  H    0.147475
    20  H    0.163086
    21  H    0.146818
    22  H    0.150267
    23  H    0.164428
    24  H    0.160006
    25  C   -0.303281
    26  C   -0.303346
    27  C   -0.479997
    28  H    0.146444
    29  H    0.152170
    30  H    0.147956
    31  H    0.157573
    32  H    0.161270
    33  H    0.146451
    34  H    0.160520
 Sum of Mulliken charges =  -0.00000

 Dipole moment (field-independent basis, Debye):
    X=             -2.1421    Y=              4.5730    Z=              0.4898  Tot=              5.0735
 Quadrupole moment (field-independent basis, Debye-Ang):
   XX=            -80.3283   YY=           -100.8532   ZZ=            -95.6543
   XY=             -6.4105   XZ=             -1.6390   YZ=             -1.2362

 Normal termination of Gaussian 16 at Thu May  6 14:09:07 2021.
