 Gaussian 16, Revision A.03,
 Gaussian 16:  EM64L-G16RevA.03 25-Dec-2016

 -------------
 #p 6-31g* mp2
 -------------

 ------------------------------------------------------
 Input file generated by CHIRIPA (05-May-2021 14:51:14)
 ------------------------------------------------------
 Symbolic Z-matrix:
 Charge =  0 Multiplicity = 1

                         Standard orientation:
 ---------------------------------------------------------------------
 Center     Atomic      Atomic             Coordinates (Angstroms)
 Number     Number       Type             X           Y           Z
 ---------------------------------------------------------------------
      1          6           0       -3.205400   -0.246808   -0.145402
      2          6           0       -3.122692   -1.769812   -0.037694
      3          6           0       -4.292390   -2.371719    0.741607
      4          1           0       -3.235802    0.184718    0.864453
      5          1           0       -4.151534    0.028577   -0.631601
      6          1           0       -2.176368   -2.042296    0.446910
      7          1           0       -3.092290   -2.197752   -1.047921
      8          1           0       -5.243683   -2.128769    0.257233
      9          1           0       -4.322556   -1.972430    1.760557
     10          1           0       -4.213249   -3.461395    0.806437
     11          6           0       -2.043044    0.369630   -0.921715
     12          6           0       -2.125753    1.892635   -1.029423
     13          6           0       -0.956055    2.494541   -1.808723
     14          1           0       -1.096911    0.094245   -0.435516
     15          1           0       -2.012643   -0.061895   -1.931569
     16          1           0       -2.156154    2.320574   -0.019195
     17          1           0       -3.072076    2.165118   -1.514026
     18          1           0       -0.925888    2.095252   -2.827674
     19          1           0       -0.004762    2.251591   -1.324349
     20          1           0       -1.035195    3.584217   -1.873553
     21          6           0        3.141199   -0.604067    0.386279
     22          6           0        3.535409   -0.681604   -1.089042
     23          6           0        4.570393   -1.771951   -1.367868
     24          1           0        4.040395   -0.421179    0.990385
     25          1           0        2.743862   -1.577975    0.704116
     26          1           0        3.930597    0.292569   -1.404368
     27          1           0        2.635143   -0.864138   -1.689724
     28          1           0        4.181941   -2.754369   -1.080536
     29          1           0        5.484756   -1.591091   -0.793558
     30          1           0        4.837843   -1.809831   -2.428479
     31          6           0        2.107245    0.481245    0.680838
     32          6           0        1.713036    0.558782    2.156159
     33          6           0        0.678051    1.649128    2.434984
     34          1           0        2.504581    1.455153    0.363000
     35          1           0        1.208049    0.298357    0.076732
     36          1           0        2.613302    0.741315    2.756841
     37          1           0        1.317848   -0.415391    2.471483
     38          1           0       -0.236312    1.468269    1.860675
     39          1           0        1.066503    2.631547    2.147652
     40          1           0        0.410601    1.687009    3.495595
 ---------------------------------------------------------------------

 SCF Done:  E(RHF) =  -470.732945539     A.U. after   11 cycles
 E2 =    -0.1584498639D+01 EUMP2 =    -0.47231744417802D+03

 The electronic state is 1-A.
 Alpha  occ. eigenvalues --  -11.21675 -11.21642 -11.21612 -11.21588 -11.21450
 Alpha  occ. eigenvalues --  -11.21434 -11.21389 -11.21374 -11.21147 -11.21097
 Alpha  occ. eigenvalues --  -11.21078 -11.20993  -1.08510  -1.08432  -1.03591
 Alpha  occ. eigenvalues --   -1.03520  -0.96028  -0.95982  -0.87048  -0.86996
 Alpha  occ. eigenvalues --   -0.79653  -0.79592  -0.78418  -0.78167  -0.65351
 Alpha  occ. eigenvalues --   -0.64892  -0.61087  -0.60825  -0.59407  -0.59331
 Alpha  occ. eigenvalues --   -0.57649  -0.57584  -0.55323  -0.55272  -0.52719
 Alpha  occ. eigenvalues --   -0.52672  -0.52461  -0.52409  -0.49996  -0.49919
 Alpha  occ. eigenvalues --   -0.48083  -0.47837  -0.46787  -0.46638  -0.46236
 Alpha  occ. eigenvalues --   -0.45790  -0.45760  -0.45109  -0.43830  -0.43795
 Alpha virt. eigenvalues --    0.19540   0.23046   0.23690   0.24903   0.25600
 Alpha virt. eigenvalues --    0.25956   0.26550   0.28039   0.28544   0.29659
 Alpha virt. eigenvalues --    0.31030   0.31588   0.31658   0.31722   0.32072

 Mulliken charges:
               1
     1  C   -0.298215
     2  C   -0.299499
     3  C   -0.475749
     4  H    0.149815
     5  H    0.150027
     6  H    0.151126
     7  H    0.152034
     8  H    0.155369
     9  H    0.155382
    10  H    0.160277
    11  C   -0.307785
    12  C   -0.300824
    13  C   -0.480499
    14  H    0.156573
    15  H    0.149893
    16  H    0.153373
    17  H    0.152129
    18  H    0.154513
    19  H    0.160892
    20  H    0.159979
    21  C   -0.297375
    22  C   -0.300040
    23  C   -0.475743
    24  H    0.149841
    25  H    0.149399
    26  H    0.152115
    27  H    0.152566
    28  H    0.155213
    29  H    0.155152
    30  H    0.160433
    31  C   -0.310215
    32  C   -0.299003
    33  C   -0.481140
    34  H    0.150195
    35  H    0.159910
    36  H    0.152546
    37  H    0.151459
    38  H    0.159233
    39  H    0.155960
    40  H    0.160685
 Sum of Mulliken charges =  -0.00000

 Dipole moment (field-independent basis, Debye):
    X=              0.0201    Y=             -0.0014    Z=              0.0052  Tot=              0.0208
 Quadrupole moment (field-independent basis, Debye-Ang):
   XX=            -85.0390   YY=            -85.2298   ZZ=            -84.4254
   XY=              0.6925   XZ=              1.2624   YZ=              0.2786

 Normal termination of Gaussian 16 at Wed May  5 23:14:57 2021.
