 Gaussian 16, Revision A.03,
 Gaussian 16:  EM64L-G16RevA.03 25-Dec-2016

 -------------
 #p 6-31g* mp2
 -------------

 ------------------------------------------------------
 Input file generated by CHIRIPA (05-May-2021 14:55:20)
 ------------------------------------------------------
 Symbolic Z-matrix:
 Charge =  0 Multiplicity = 1

                         Standard orientation:
 ---------------------------------------------------------------------
 Center     Atomic      Atomic             Coordinates (Angstroms)
 Number     Number       Type             X           Y           Z
 ---------------------------------------------------------------------
      1          6           0        3.178595   -2.436626   -0.199034
      2          6           0        3.876269   -1.569619    0.648356
      3          6           0        3.647659   -0.191293    0.598331
      4          6           0        2.710108    0.287948   -0.315243
      5          6           0        1.999097   -0.550295   -1.172623
      6          6           0        2.243883   -1.925099   -1.105221
      7          1           0        3.362468   -3.505975   -0.153424
      8          1           0        4.602759   -1.964065    1.353104
      9          1           0        4.173745    0.502484    1.242789
     10          1           0        1.281011   -0.127459   -1.864706
     11          1           0        1.700589   -2.596063   -1.764527
     12          7           0        2.459526    1.745256   -0.377400
     13          8           0        1.628380    2.142450   -1.191077
     14          8           0        3.099011    2.462705    0.388735
     15          6           0       -4.278788   -0.101139    0.484222
     16          6           0       -5.053831   -0.104322   -0.833839
     17          6           0       -6.566986   -0.184720   -0.629663
     18          1           0       -4.526120   -1.009889    1.049860
     19          1           0       -4.612825    0.748374    1.095894
     20          1           0       -4.717446   -0.952774   -1.443423
     21          1           0       -4.804477    0.804447   -1.396491
     22          1           0       -6.922384    0.668402   -0.042742
     23          1           0       -6.834858   -1.098802   -0.089941
     24          1           0       -7.101473   -0.185683   -1.584746
     25          6           0       -2.764814   -0.021143    0.296574
     26          6           0       -1.989772   -0.017960    1.614635
     27          6           0       -0.476615    0.062438    1.410458
     28          1           0       -2.430778   -0.870655   -0.315098
     29          1           0       -2.517482    0.887606   -0.269065
     30          1           0       -2.239124   -0.926729    2.177286
     31          1           0       -2.326157    0.830491    2.224219
     32          1           0       -0.208744    0.976520    0.870737
     33          1           0       -0.121217   -0.790684    0.823538
     34          1           0        0.057871    0.063401    2.365541
 ---------------------------------------------------------------------

 SCF Done:  E(RHF) =  -669.534866982     A.U. after   15 cycles
 E2 =    -0.2093498435D+01 EUMP2 =    -0.67162836541622D+03

 The electronic state is 1-A.
 Alpha  occ. eigenvalues --  -20.60822 -20.60816 -15.85843 -11.31131 -11.27755
 Alpha  occ. eigenvalues --  -11.27725 -11.27511 -11.26755 -11.26744 -11.21511
 Alpha  occ. eigenvalues --  -11.21405 -11.21275 -11.21208 -11.20994 -11.20774
 Alpha  occ. eigenvalues --   -1.59883  -1.39440  -1.19352  -1.08755  -1.08290
 Alpha  occ. eigenvalues --   -1.04760  -1.03382  -0.95845  -0.95594  -0.86874
 Alpha  occ. eigenvalues --   -0.86149  -0.82436  -0.79472  -0.78116  -0.77482
 Alpha  occ. eigenvalues --   -0.72080  -0.71201  -0.70474  -0.65014  -0.64916
 Alpha  occ. eigenvalues --   -0.64762  -0.62106  -0.60781  -0.59206  -0.57475
 Alpha  occ. eigenvalues --   -0.55269  -0.55158  -0.53322  -0.52849  -0.52498
 Alpha  occ. eigenvalues --   -0.52071  -0.49758  -0.48840  -0.48832  -0.47769
 Alpha  occ. eigenvalues --   -0.46486  -0.45666  -0.45578  -0.44788  -0.43645
 Alpha  occ. eigenvalues --   -0.37295  -0.36298
 Alpha virt. eigenvalues --    0.05027   0.11300   0.16495   0.21337   0.23030
 Alpha virt. eigenvalues --    0.24445   0.26756   0.27146   0.27683   0.28014
 Alpha virt. eigenvalues --    0.28547   0.30792   0.31625   0.31946   0.32048

 Mulliken charges:
               1
     1  C   -0.170167
     2  C   -0.218763
     3  C   -0.170938
     4  C    0.164444
     5  C   -0.170665
     6  C   -0.219730
     7  H    0.225565
     8  H    0.223273
     9  H    0.275533
    10  H    0.275849
    11  H    0.223272
    12  N    0.488436
    13  O   -0.460496
    14  O   -0.459254
    15  C   -0.298102
    16  C   -0.299625
    17  C   -0.475626
    18  H    0.147929
    19  H    0.151098
    20  H    0.149361
    21  H    0.154074
    22  H    0.156045
    23  H    0.154183
    24  H    0.159923
    25  C   -0.299027
    26  C   -0.298998
    27  C   -0.486965
    28  H    0.142916
    29  H    0.156398
    30  H    0.148764
    31  H    0.154047
    32  H    0.164144
    33  H    0.154111
    34  H    0.158991
 Sum of Mulliken charges =  -0.00000

 Dipole moment (field-independent basis, Debye):
    X=              0.9656    Y=             -5.0406    Z=              0.1977  Tot=              5.1361
 Quadrupole moment (field-independent basis, Debye-Ang):
   XX=            -89.4256   YY=            -97.2072   ZZ=            -92.7918
   XY=            -13.6121   XZ=              3.2041   YZ=              2.3998

 Normal termination of Gaussian 16 at Wed May  5 23:47:01 2021.
