 Gaussian 16, Revision A.03,
 Gaussian 16:  EM64L-G16RevA.03 25-Dec-2016

 -------------
 #p 6-31g* mp2
 -------------

 ------------------------------------------------------
 Input file generated by CHIRIPA (05-May-2021 14:51:12)
 ------------------------------------------------------
 Symbolic Z-matrix:
 Charge =  0 Multiplicity = 1

                         Standard orientation:
 ---------------------------------------------------------------------
 Center     Atomic      Atomic             Coordinates (Angstroms)
 Number     Number       Type             X           Y           Z
 ---------------------------------------------------------------------
      1          6           0        2.712264   -0.165566    0.217651
      2          6           0        3.442662   -0.102070   -1.124165
      3          6           0        4.425924    1.065867   -1.207311
      4          1           0        2.176135    0.779307    0.381137
      5          1           0        3.451707   -0.249308    1.026110
      6          1           0        2.702005   -0.019865   -1.929948
      7          1           0        3.976958   -1.047276   -1.284564
      8          1           0        5.186435    0.985708   -0.423858
      9          1           0        3.904238    2.018957   -1.072909
     10          1           0        4.936975    1.092321   -2.174776
     11          6           0        1.725819   -1.327880    0.316037
     12          6           0        0.995420   -1.391376    1.657854
     13          6           0        0.012158   -2.559312    1.741000
     14          1           0        0.986376   -1.244137   -0.492422
     15          1           0        2.261947   -2.272752    0.152551
     16          1           0        0.461124   -0.446169    1.818253
     17          1           0        1.736077   -1.473580    2.463637
     18          1           0        0.533844   -3.512403    1.606598
     19          1           0       -0.748353   -2.479154    0.957547
     20          1           0       -0.498892   -2.585766    2.708465
     21          6           0       -2.272943    1.321942    0.232805
     22          6           0       -1.158127    2.358240    0.087001
     23          6           0       -1.279630    3.502797    1.093489
     24          1           0       -3.245053    1.818724    0.109697
     25          1           0       -2.256100    0.916741    1.254041
     26          1           0       -1.176188    2.760361   -0.934071
     27          1           0       -0.188551    1.858898    0.210279
     28          1           0       -1.239312    3.120323    2.118520
     29          1           0       -2.232561    4.026907    0.967668
     30          1           0       -0.472671    4.232040    0.971501
     31          6           0       -2.165140    0.171503   -0.766493
     32          6           0       -3.279956   -0.864794   -0.620690
     33          6           0       -3.158453   -2.009352   -1.627178
     34          1           0       -2.181983    0.576704   -1.787729
     35          1           0       -1.193030   -0.325279   -0.643386
     36          1           0       -4.249532   -0.365454   -0.743968
     37          1           0       -3.261894   -1.266915    0.400383
     38          1           0       -2.205521   -2.533462   -1.501357
     39          1           0       -3.198770   -1.626878   -2.652209
     40          1           0       -3.965411   -2.738596   -1.505190
 ---------------------------------------------------------------------

 SCF Done:  E(RHF) =  -470.732679575     A.U. after   11 cycles
 E2 =    -0.1585766171D+01 EUMP2 =    -0.47231844574621D+03

 The electronic state is 1-A.
 Alpha  occ. eigenvalues --  -11.21682 -11.21666 -11.21630 -11.21620 -11.21457
 Alpha  occ. eigenvalues --  -11.21447 -11.21396 -11.21383 -11.21145 -11.21121
 Alpha  occ. eigenvalues --  -11.21110 -11.21081  -1.08559  -1.08421  -1.03608
 Alpha  occ. eigenvalues --   -1.03558  -0.96036  -0.96024  -0.87053  -0.87041
 Alpha  occ. eigenvalues --   -0.79650  -0.79645  -0.78356  -0.78259  -0.65654
 Alpha  occ. eigenvalues --   -0.64662  -0.61152  -0.60813  -0.59426  -0.59365
 Alpha  occ. eigenvalues --   -0.57682  -0.57602  -0.55365  -0.55277  -0.52725
 Alpha  occ. eigenvalues --   -0.52716  -0.52501  -0.52410  -0.50027  -0.49939
 Alpha  occ. eigenvalues --   -0.48072  -0.47901  -0.46759  -0.46730  -0.46228
 Alpha  occ. eigenvalues --   -0.45790  -0.45635  -0.45284  -0.43836  -0.43828
 Alpha virt. eigenvalues --    0.18536   0.21587   0.23362   0.24974   0.25345
 Alpha virt. eigenvalues --    0.26476   0.27281   0.27633   0.28530   0.30160
 Alpha virt. eigenvalues --    0.30736   0.31368   0.31655   0.31942   0.32395

 Mulliken charges:
               1
     1  C   -0.303365
     2  C   -0.299612
     3  C   -0.475842
     4  H    0.153912
     5  H    0.149998
     6  H    0.152593
     7  H    0.152022
     8  H    0.155137
     9  H    0.155408
    10  H    0.160390
    11  C   -0.303859
    12  C   -0.303020
    13  C   -0.481537
    14  H    0.153625
    15  H    0.150577
    16  H    0.153997
    17  H    0.152970
    18  H    0.155830
    19  H    0.160449
    20  H    0.160429
    21  C   -0.298033
    22  C   -0.307655
    23  C   -0.475393
    24  H    0.150200
    25  H    0.150194
    26  H    0.152203
    27  H    0.157650
    28  H    0.155282
    29  H    0.155594
    30  H    0.160295
    31  C   -0.308581
    32  C   -0.300943
    33  C   -0.477865
    34  H    0.149521
    35  H    0.159043
    36  H    0.152549
    37  H    0.153511
    38  H    0.156002
    39  H    0.155422
    40  H    0.160903
 Sum of Mulliken charges =  -0.00000

 Dipole moment (field-independent basis, Debye):
    X=              0.0040    Y=             -0.0041    Z=             -0.0022  Tot=              0.0061
 Quadrupole moment (field-independent basis, Debye-Ang):
   XX=            -84.3853   YY=            -85.5470   ZZ=            -84.6725
   XY=             -1.3927   XZ=              0.7822   YZ=             -0.9997

 Normal termination of Gaussian 16 at Wed May  5 16:49:56 2021.
