 Gaussian 16, Revision A.03,
 Gaussian 16:  EM64L-G16RevA.03 25-Dec-2016

 -------------
 #p 6-31g* mp2
 -------------

 ------------------------------------------------------
 Input file generated by CHIRIPA (05-May-2021 14:55:19)
 ------------------------------------------------------
 Symbolic Z-matrix:
 Charge =  0 Multiplicity = 1

                         Standard orientation:
 ---------------------------------------------------------------------
 Center     Atomic      Atomic             Coordinates (Angstroms)
 Number     Number       Type             X           Y           Z
 ---------------------------------------------------------------------
      1          6           0       -4.027493    0.936449   -0.871469
      2          6           0       -3.483755    1.335780    0.353849
      3          6           0       -2.460571    0.594244    0.951984
      4          6           0       -2.002968   -0.546430    0.294145
      5          6           0       -2.524337   -0.970049   -0.927335
      6          6           0       -3.546896   -0.213164   -1.507030
      7          1           0       -4.822085    1.518453   -1.328953
      8          1           0       -3.855030    2.228148    0.849710
      9          1           0       -2.021653    0.880667    1.899998
     10          1           0       -2.133543   -1.864200   -1.397645
     11          1           0       -3.967286   -0.525672   -2.458690
     12          7           0       -0.920099   -1.339585    0.917603
     13          8           0       -0.534417   -2.340642    0.317793
     14          8           0       -0.477533   -0.945185    1.994274
     15          6           0        3.012605    1.260756   -0.182202
     16          6           0        1.843814    2.240206   -0.069999
     17          6           0        2.300704    3.693973    0.054927
     18          1           0        3.659257    1.368909    0.699325
     19          1           0        3.624990    1.529819   -1.053974
     20          1           0        1.233038    1.968538    0.800498
     21          1           0        1.199766    2.129574   -0.951803
     22          1           0        2.892075    3.988309   -0.818141
     23          1           0        2.925536    3.826358    0.944117
     24          1           0        1.449203    4.377036    0.133868
     25          6           0        2.571874   -0.196542   -0.307760
     26          6           0        3.740667   -1.175992   -0.419963
     27          6           0        3.283776   -2.629759   -0.544888
     28          1           0        1.959490   -0.465605    0.564012
     29          1           0        1.925223   -0.304696   -1.189287
     30          1           0        4.384714   -1.065360    0.461841
     31          1           0        4.351442   -0.904323   -1.290460
     32          1           0        2.658944   -2.762144   -1.434078
     33          1           0        2.692405   -2.924095    0.328179
     34          1           0        4.135276   -3.312822   -0.623830
 ---------------------------------------------------------------------

 SCF Done:  E(RHF) =  -669.536792708     A.U. after   15 cycles
 E2 =    -0.2092967724D+01 EUMP2 =    -0.67162976043199D+03

 The electronic state is 1-A.
 Alpha  occ. eigenvalues --  -20.61027 -20.60999 -15.85995 -11.31294 -11.27853
 Alpha  occ. eigenvalues --  -11.27848 -11.27585 -11.26853 -11.26843 -11.21145
 Alpha  occ. eigenvalues --  -11.20780 -11.20668 -11.20542 -11.20278 -11.19696
 Alpha  occ. eigenvalues --   -1.60045  -1.39604  -1.19456  -1.08867  -1.07607
 Alpha  occ. eigenvalues --   -1.04848  -1.02713  -0.95715  -0.95146  -0.86252
 Alpha  occ. eigenvalues --   -0.86160  -0.82556  -0.78830  -0.77615  -0.77390
 Alpha  occ. eigenvalues --   -0.72230  -0.71334  -0.70569  -0.65115  -0.64855
 Alpha  occ. eigenvalues --   -0.64230  -0.62198  -0.60111  -0.58585  -0.56747
 Alpha  occ. eigenvalues --   -0.55359  -0.54417  -0.53177  -0.52942  -0.51892
 Alpha  occ. eigenvalues --   -0.51550  -0.49135  -0.49030  -0.48941  -0.47118
 Alpha  occ. eigenvalues --   -0.45871  -0.45189  -0.44881  -0.44556  -0.42960
 Alpha  occ. eigenvalues --   -0.37425  -0.36443
 Alpha virt. eigenvalues --    0.04862   0.11182   0.16351   0.21285   0.23635
 Alpha virt. eigenvalues --    0.25155   0.26982   0.27541   0.27673   0.28634
 Alpha virt. eigenvalues --    0.28880   0.31037   0.31963   0.32302   0.32376

 Mulliken charges:
               1
     1  C   -0.170437
     2  C   -0.218538
     3  C   -0.170078
     4  C    0.160366
     5  C   -0.170965
     6  C   -0.218668
     7  H    0.226018
     8  H    0.223882
     9  H    0.275621
    10  H    0.275809
    11  H    0.223785
    12  N    0.488654
    13  O   -0.457562
    14  O   -0.461056
    15  C   -0.296260
    16  C   -0.301556
    17  C   -0.474673
    18  H    0.149808
    19  H    0.145807
    20  H    0.153926
    21  H    0.147554
    22  H    0.154274
    23  H    0.155942
    24  H    0.155090
    25  C   -0.309359
    26  C   -0.298812
    27  C   -0.476475
    28  H    0.171442
    29  H    0.142923
    30  H    0.150087
    31  H    0.145420
    32  H    0.152424
    33  H    0.173181
    34  H    0.152425
 Sum of Mulliken charges =  -0.00000

 Dipole moment (field-independent basis, Debye):
    X=             -4.0469    Y=              2.6106    Z=             -2.0469  Tot=              5.2328
 Quadrupole moment (field-independent basis, Debye-Ang):
   XX=            -80.8177   YY=            -97.7100   ZZ=            -92.4893
   XY=             -3.9174   XZ=              4.0530   YZ=              4.5811

 Normal termination of Gaussian 16 at Thu May  6 04:30:02 2021.
