 Gaussian 16, Revision A.03,
 Gaussian 16:  EM64L-G16RevA.03 25-Dec-2016

 -------------
 #p 6-31g* mp2
 -------------

 ------------------------------------------------------
 Input file generated by CHIRIPA (05-May-2021 14:55:25)
 ------------------------------------------------------
 Symbolic Z-matrix:
 Charge =  0 Multiplicity = 1

                         Standard orientation:
 ---------------------------------------------------------------------
 Center     Atomic      Atomic             Coordinates (Angstroms)
 Number     Number       Type             X           Y           Z
 ---------------------------------------------------------------------
      1          6           0        3.523606    1.888013   -1.351919
      2          6           0        3.049448    0.668200   -1.845630
      3          6           0        2.566803   -0.311582   -0.972917
      4          6           0        2.572911   -0.036853    0.393750
      5          6           0        3.038733    1.168657    0.916287
      6          6           0        3.516747    2.133915    0.025037
      7          1           0        3.896737    2.643490   -2.037064
      8          1           0        3.053577    0.474480   -2.914509
      9          1           0        2.193908   -1.264585   -1.328095
     10          1           0        3.022005    1.332792    1.986893
     11          1           0        3.884375    3.080330    0.411293
     12          7           0        2.064408   -1.066416    1.327464
     13          8           0        2.080437   -0.799918    2.527197
     14          8           0        1.659443   -2.120392    0.841898
     15          6           0       -3.086974   -0.865978   -0.280206
     16          6           0       -1.978875   -1.071940   -1.313493
     17          6           0       -1.361216   -2.469053   -1.247412
     18          1           0       -2.679497   -1.041127    0.724896
     19          1           0       -3.869368   -1.621544   -0.436329
     20          1           0       -1.199461   -0.315346   -1.156345
     21          1           0       -2.388990   -0.896093   -2.316238
     22          1           0       -2.122252   -3.235551   -1.426036
     23          1           0       -0.925964   -2.651504   -0.259552
     24          1           0       -0.571380   -2.594568   -1.994584
     25          6           0       -3.714226    0.525929   -0.333841
     26          6           0       -4.822324    0.731892    0.699446
     27          6           0       -5.439983    2.129004    0.633365
     28          1           0       -2.931831    1.281494   -0.177718
     29          1           0       -4.121703    0.701079   -1.338944
     30          1           0       -4.412209    0.556044    1.702192
     31          1           0       -5.601737   -0.024703    0.542298
     32          1           0       -5.875235    2.311455   -0.354496
     33          1           0       -4.678947    2.895502    0.811988
     34          1           0       -6.229819    2.254519    1.380537
 ---------------------------------------------------------------------

 SCF Done:  E(RHF) =  -669.536180781     A.U. after   15 cycles
 E2 =    -0.2091604133D+01 EUMP2 =    -0.67162778491433D+03

 The electronic state is 1-A.
 Alpha  occ. eigenvalues --  -20.60925 -20.60919 -15.85954 -11.31278 -11.27838
 Alpha  occ. eigenvalues --  -11.27830 -11.27573 -11.26847 -11.26835 -11.21323
 Alpha  occ. eigenvalues --  -11.21187 -11.21090 -11.20933 -11.20879 -11.20306
 Alpha  occ. eigenvalues --   -1.59987  -1.39542  -1.19444  -1.08848  -1.08062
 Alpha  occ. eigenvalues --   -1.04838  -1.03137  -0.95702  -0.95554  -0.86577
 Alpha  occ. eigenvalues --   -0.86237  -0.82523  -0.79209  -0.77877  -0.77573
 Alpha  occ. eigenvalues --   -0.72181  -0.71306  -0.70548  -0.65101  -0.64842
 Alpha  occ. eigenvalues --   -0.64684  -0.62187  -0.60517  -0.58968  -0.57198
 Alpha  occ. eigenvalues --   -0.55342  -0.54823  -0.53171  -0.52931  -0.52271
 Alpha  occ. eigenvalues --   -0.51985  -0.49495  -0.48937  -0.48915  -0.47525
 Alpha  occ. eigenvalues --   -0.46252  -0.45427  -0.45353  -0.44855  -0.43407
 Alpha  occ. eigenvalues --   -0.37420  -0.36435
 Alpha virt. eigenvalues --    0.04917   0.11169   0.16396   0.21028   0.23155
 Alpha virt. eigenvalues --    0.24219   0.26763   0.27020   0.27697   0.27887
 Alpha virt. eigenvalues --    0.29146   0.30892   0.31611   0.31841   0.32183

 Mulliken charges:
               1
     1  C   -0.170528
     2  C   -0.218841
     3  C   -0.171601
     4  C    0.157461
     5  C   -0.170917
     6  C   -0.218563
     7  H    0.226015
     8  H    0.224122
     9  H    0.278566
    10  H    0.275663
    11  H    0.223757
    12  N    0.488478
    13  O   -0.459523
    14  O   -0.460006
    15  C   -0.299274
    16  C   -0.299668
    17  C   -0.481257
    18  H    0.155488
    19  H    0.149208
    20  H    0.146359
    21  H    0.147178
    22  H    0.151692
    23  H    0.180865
    24  H    0.149223
    25  C   -0.297618
    26  C   -0.299775
    27  C   -0.475382
    28  H    0.147596
    29  H    0.147473
    30  H    0.153985
    31  H    0.151901
    32  H    0.153960
    33  H    0.153974
    34  H    0.159988
 Sum of Mulliken charges =  -0.00000

 Dipole moment (field-independent basis, Debye):
    X=              1.9259    Y=              3.5651    Z=             -3.1412  Tot=              5.1270
 Quadrupole moment (field-independent basis, Debye-Ang):
   XX=            -86.1632   YY=            -94.3487   ZZ=            -94.4213
   XY=             11.0949   XZ=             -6.8422   YZ=              4.0905

 Normal termination of Gaussian 16 at Thu May  6 00:03:21 2021.
