 Gaussian 16, Revision A.03,
 Gaussian 16:  EM64L-G16RevA.03 25-Dec-2016

 -------------
 #p 6-31g* mp2
 -------------

 ------------------------------------------------------
 Input file generated by CHIRIPA (05-May-2021 14:55:25)
 ------------------------------------------------------
 Symbolic Z-matrix:
 Charge =  0 Multiplicity = 1

                         Standard orientation:
 ---------------------------------------------------------------------
 Center     Atomic      Atomic             Coordinates (Angstroms)
 Number     Number       Type             X           Y           Z
 ---------------------------------------------------------------------
      1          6           0       -1.762480   -1.925247    1.645965
      2          6           0       -3.017603   -2.145874    1.069327
      3          6           0       -3.544013   -1.238113    0.145525
      4          6           0       -2.784837   -0.115248   -0.180228
      5          6           0       -1.531293    0.132381    0.377086
      6          6           0       -1.024632   -0.788827    1.298616
      7          1           0       -1.361222   -2.635641    2.362714
      8          1           0       -3.592849   -3.027566    1.337203
      9          1           0       -4.513011   -1.384374   -0.316069
     10          1           0       -0.981288    1.020434    0.090252
     11          1           0       -0.049606   -0.614913    1.744849
     12          7           0       -3.331670    0.852876   -1.157013
     13          8           0       -2.643055    1.834405   -1.427283
     14          8           0       -4.438539    0.611830   -1.633852
     15          6           0        2.977967    0.952504    0.045590
     16          6           0        2.663836    1.427534    1.464623
     17          6           0        1.719836    2.630035    1.490088
     18          1           0        3.422569    1.781573   -0.521789
     19          1           0        2.039080    0.693616   -0.463197
     20          1           0        3.603148    1.684135    1.971047
     21          1           0        2.220106    0.597182    2.028747
     22          1           0        0.767903    2.382751    1.009177
     23          1           0        2.158803    3.475880    0.951149
     24          1           0        1.508695    2.953059    2.514264
     25          6           0        3.920497   -0.248999    0.003668
     26          6           0        4.234627   -0.724028   -1.415364
     27          6           0        5.178627   -1.926530   -1.440829
     28          1           0        4.859382    0.009889    0.512456
     29          1           0        3.475894   -1.078067    0.571047
     30          1           0        4.678357    0.106323   -1.979489
     31          1           0        3.295315   -0.980630   -1.921788
     32          1           0        4.739660   -2.772374   -0.901890
     33          1           0        6.130560   -1.679246   -0.959919
     34          1           0        5.389768   -2.249554   -2.465004
 ---------------------------------------------------------------------

 SCF Done:  E(RHF) =  -669.535173504     A.U. after   15 cycles
 E2 =    -0.2092329538D+01 EUMP2 =    -0.67162750304180D+03

 The electronic state is 1-A.
 Alpha  occ. eigenvalues --  -20.60764 -20.60758 -15.85815 -11.31185 -11.27757
 Alpha  occ. eigenvalues --  -11.27746 -11.27499 -11.26778 -11.26755 -11.22436
 Alpha  occ. eigenvalues --  -11.22029 -11.21986 -11.21913 -11.21799 -11.21408
 Alpha  occ. eigenvalues --   -1.59838  -1.39391  -1.19360  -1.09041  -1.08754
 Alpha  occ. eigenvalues --   -1.04770  -1.04112  -0.96544  -0.95589  -0.87558
 Alpha  occ. eigenvalues --   -0.86164  -0.82422  -0.80181  -0.78824  -0.77474
 Alpha  occ. eigenvalues --   -0.72035  -0.71160  -0.70485  -0.65732  -0.65007
 Alpha  occ. eigenvalues --   -0.64769  -0.62284  -0.61349  -0.59913  -0.58143
 Alpha  occ. eigenvalues --   -0.55859  -0.55248  -0.53228  -0.53098  -0.52992
 Alpha  occ. eigenvalues --   -0.52845  -0.50483  -0.48797  -0.48791  -0.48473
 Alpha  occ. eigenvalues --   -0.47225  -0.46359  -0.46283  -0.44795  -0.44355
 Alpha  occ. eigenvalues --   -0.37341  -0.36364
 Alpha virt. eigenvalues --    0.05049   0.11275   0.16512   0.18201   0.22872
 Alpha virt. eigenvalues --    0.23675   0.24673   0.25519   0.27358   0.28489
 Alpha virt. eigenvalues --    0.29173   0.29884   0.31221   0.31468   0.32126

 Mulliken charges:
               1
     1  C   -0.171870
     2  C   -0.218599
     3  C   -0.170413
     4  C    0.160816
     5  C   -0.182596
     6  C   -0.225581
     7  H    0.225962
     8  H    0.223492
     9  H    0.275648
    10  H    0.284852
    11  H    0.230760
    12  N    0.487572
    13  O   -0.460104
    14  O   -0.460433
    15  C   -0.300502
    16  C   -0.303949
    17  C   -0.479458
    18  H    0.155442
    19  H    0.147951
    20  H    0.157313
    21  H    0.142637
    22  H    0.151752
    23  H    0.163120
    24  H    0.163441
    25  C   -0.297562
    26  C   -0.300490
    27  C   -0.475945
    28  H    0.151322
    29  H    0.145016
    30  H    0.154426
    31  H    0.153922
    32  H    0.153964
    33  H    0.155662
    34  H    0.162430
 Sum of Mulliken charges =  -0.00000

 Dipole moment (field-independent basis, Debye):
    X=              2.0859    Y=             -3.3200    Z=              3.3812  Tot=              5.1775
 Quadrupole moment (field-independent basis, Debye-Ang):
   XX=           -101.4643   YY=            -92.8101   ZZ=            -96.7306
   XY=             13.5168   XZ=             -9.6302   YZ=              0.3630

 Normal termination of Gaussian 16 at Thu May  6 16:04:58 2021.
