 Gaussian 16, Revision A.03,
 Gaussian 16:  EM64L-G16RevA.03 25-Dec-2016

 -------------
 #p 6-31g* mp2
 -------------

 ------------------------------------------------------
 Input file generated by CHIRIPA (05-May-2021 14:53:17)
 ------------------------------------------------------
 Symbolic Z-matrix:
 Charge =  0 Multiplicity = 1

                         Standard orientation:
 ---------------------------------------------------------------------
 Center     Atomic      Atomic             Coordinates (Angstroms)
 Number     Number       Type             X           Y           Z
 ---------------------------------------------------------------------
      1          6           0       -4.822114   -0.201841    0.087866
      2          6           0       -5.217926   -1.088793   -1.093080
      3          6           0       -6.234600   -2.164549   -0.709780
      4          1           0       -4.408547   -0.830727    0.888121
      5          1           0       -5.723507    0.273879    0.498447
      6          1           0       -4.315878   -1.561618   -1.502180
      7          1           0       -5.630422   -0.457701   -1.890692
      8          1           0       -7.150766   -1.707911   -0.321551
      9          1           0       -5.828754   -2.818101    0.069168
     10          1           0       -6.503510   -2.787102   -1.568835
     11          6           0       -3.806352    0.878425   -0.279533
     12          6           0       -3.410541    1.765378    0.901412
     13          6           0       -2.393867    2.841133    0.518113
     14          1           0       -2.904959    0.402705   -0.690114
     15          1           0       -4.219920    1.507312   -1.079789
     16          1           0       -2.998045    1.134285    1.699025
     17          1           0       -4.312588    2.238203    1.310513
     18          1           0       -2.799713    3.494685   -0.260835
     19          1           0       -1.477700    2.384495    0.129884
     20          1           0       -2.124956    3.463686    1.377167
     21          6           0        1.220688   -0.859302    1.253943
     22          6           0        2.349579   -1.671365    1.404535
     23          6           0        3.546032   -1.351360    0.755962
     24          6           0        3.578330   -0.206767   -0.039118
     25          6           0        2.470576    0.622289   -0.208931
     26          6           0        1.284675    0.282919    0.449110
     27          1           0        0.295353   -1.115411    1.761448
     28          1           0        2.302795   -2.559037    2.028951
     29          1           0        4.434973   -1.962405    0.855097
     30          1           0        2.547868    1.500761   -0.838001
     31          1           0        0.409535    0.915426    0.330330
     32          7           0        4.839375    0.142258   -0.730745
     33          8           0        4.841949    1.156052   -1.425621
     34          8           0        5.801330   -0.604579   -0.564870
 ---------------------------------------------------------------------

 SCF Done:  E(RHF) =  -669.535429148     A.U. after   15 cycles
 E2 =    -0.2090988461D+01 EUMP2 =    -0.67162641760939D+03

 The electronic state is 1-A.
 Alpha  occ. eigenvalues --  -20.60749 -20.60744 -15.85802 -11.31172 -11.27744
 Alpha  occ. eigenvalues --  -11.27736 -11.27493 -11.26764 -11.26740 -11.22565
 Alpha  occ. eigenvalues --  -11.22238 -11.22199 -11.22152 -11.22093 -11.21584
 Alpha  occ. eigenvalues --   -1.59824  -1.39377  -1.19347  -1.09229  -1.08742
 Alpha  occ. eigenvalues --   -1.04752  -1.04320  -0.96771  -0.95576  -0.87787
 Alpha  occ. eigenvalues --   -0.86151  -0.82409  -0.80384  -0.79014  -0.77455
 Alpha  occ. eigenvalues --   -0.72021  -0.71147  -0.70459  -0.65892  -0.64999
 Alpha  occ. eigenvalues --   -0.64770  -0.62173  -0.61660  -0.60136  -0.58363
 Alpha  occ. eigenvalues --   -0.56095  -0.55250  -0.53452  -0.53224  -0.53080
 Alpha  occ. eigenvalues --   -0.52816  -0.50711  -0.48793  -0.48775  -0.48676
 Alpha  occ. eigenvalues --   -0.47425  -0.46555  -0.46478  -0.44782  -0.44561
 Alpha  occ. eigenvalues --   -0.37331  -0.36353
 Alpha virt. eigenvalues --    0.05082   0.11291   0.16572   0.18781   0.22645
 Alpha virt. eigenvalues --    0.23629   0.25276   0.25965   0.27030   0.28362
 Alpha virt. eigenvalues --    0.28600   0.30005   0.30929   0.31389   0.31956

 Mulliken charges:
               1
     1  C   -0.298138
     2  C   -0.300260
     3  C   -0.475987
     4  H    0.147041
     5  H    0.151893
     6  H    0.151973
     7  H    0.153911
     8  H    0.156337
     9  H    0.154521
    10  H    0.162348
    11  C   -0.298752
    12  C   -0.300331
    13  C   -0.480009
    14  H    0.145515
    15  H    0.153449
    16  H    0.147075
    17  H    0.156976
    18  H    0.161718
    19  H    0.147009
    20  H    0.164569
    21  C   -0.173612
    22  C   -0.218470
    23  C   -0.171171
    24  C    0.158878
    25  C   -0.173728
    26  C   -0.226695
    27  H    0.225694
    28  H    0.223287
    29  H    0.275556
    30  H    0.276193
    31  H    0.236009
    32  N    0.488087
    33  O   -0.460288
    34  O   -0.460596
 Sum of Mulliken charges =  -0.00000

 Dipole moment (field-independent basis, Debye):
    X=             -4.6650    Y=             -1.1790    Z=              2.4138  Tot=              5.3832
 Quadrupole moment (field-independent basis, Debye-Ang):
   XX=           -125.1399   YY=            -91.1924   ZZ=            -94.8227
   XY=             -6.9265   XZ=             10.3167   YZ=             -2.3688

 Normal termination of Gaussian 16 at Thu May  6 20:33:45 2021.
