 Gaussian 16, Revision A.03,
 Gaussian 16:  EM64L-G16RevA.03 25-Dec-2016

 -------------
 #p 6-31g* mp2
 -------------

 ------------------------------------------------------
 Input file generated by CHIRIPA (05-May-2021 14:57:22)
 ------------------------------------------------------
 Symbolic Z-matrix:
 Charge =  0 Multiplicity = 1

                         Standard orientation:
 ---------------------------------------------------------------------
 Center     Atomic      Atomic             Coordinates (Angstroms)
 Number     Number       Type             X           Y           Z
 ---------------------------------------------------------------------
      1          6           0       -4.383461    2.253704    0.431006
      2          6           0       -3.313713    1.837366    1.230269
      3          6           0       -2.755515    0.566453    1.063704
      4          6           0       -3.294220   -0.266094    0.083933
      5          6           0       -4.359634    0.119823   -0.728010
      6          6           0       -4.902093    1.395118   -0.543864
      7          1           0       -4.810969    3.242682    0.567226
      8          1           0       -2.908904    2.502039    1.988151
      9          1           0       -1.926997    0.218645    1.668689
     10          1           0       -4.741748   -0.565058   -1.475235
     11          1           0       -5.732836    1.715780   -1.166027
     12          7           0       -2.711612   -1.613872   -0.101708
     13          8           0       -3.204296   -2.328518   -0.971869
     14          8           0       -1.773311   -1.930093    0.626463
     15          6           0        2.658831   -2.347933    0.216822
     16          6           0        1.874319   -1.475076   -0.544218
     17          6           0        2.269797   -0.147689   -0.734445
     18          6           0        3.460951    0.275204   -0.146562
     19          6           0        4.264234   -0.570339    0.617037
     20          6           0        3.849187   -1.893580    0.794004
     21          1           0        2.344013   -3.377469    0.359445
     22          1           0        0.949394   -1.825178   -0.993650
     23          1           0        1.681561    0.549319   -1.318890
     24          1           0        5.181203   -0.192305    1.052556
     25          1           0        4.460452   -2.569222    1.385533
     26          7           0        3.889984    1.678254   -0.340928
     27          8           0        4.943648    2.026310    0.187548
     28          8           0        3.164474    2.403343   -1.018067
 ---------------------------------------------------------------------

 SCF Done:  E(RHF) =  -868.340062176     A.U. after   16 cycles
 E2 =    -0.2598407937D+01 EUMP2 =    -0.87093847011336D+03

 The electronic state is 1-A.
 Alpha  occ. eigenvalues --  -20.61549 -20.61527 -20.60436 -20.60428 -15.86561
 Alpha  occ. eigenvalues --  -15.85477 -11.31634 -11.30633 -11.28168 -11.28154
 Alpha  occ. eigenvalues --  -11.27836 -11.27176 -11.27116 -11.27110 -11.27084
 Alpha  occ. eigenvalues --  -11.26745 -11.26147 -11.25950  -1.60617  -1.59515
 Alpha  occ. eigenvalues --   -1.40173  -1.39074  -1.19777  -1.18753  -1.09225
 Alpha  occ. eigenvalues --   -1.08165  -1.05129  -1.04114  -0.96108  -0.95049
 Alpha  occ. eigenvalues --   -0.86541  -0.85501  -0.82945  -0.81888  -0.78030
 Alpha  occ. eigenvalues --   -0.76982  -0.72787  -0.71933  -0.71699  -0.70871
 Alpha  occ. eigenvalues --   -0.70838  -0.69822  -0.65427  -0.65121  -0.64387
 Alpha  occ. eigenvalues --   -0.64065  -0.62477  -0.61459  -0.55632  -0.54558
 Alpha  occ. eigenvalues --   -0.53481  -0.53211  -0.52465  -0.52174  -0.49561
 Alpha  occ. eigenvalues --   -0.49525  -0.48469  -0.48433  -0.45630  -0.44528
 Alpha  occ. eigenvalues --   -0.37738  -0.36720  -0.36687  -0.35714
 Alpha virt. eigenvalues --    0.04451   0.05524   0.10938   0.11948   0.16012
 Alpha virt. eigenvalues --    0.17108   0.21133   0.22210   0.27067   0.27861
 Alpha virt. eigenvalues --    0.28199   0.29032   0.30722   0.31798   0.32219

 Mulliken charges:
               1
     1  C   -0.169424
     2  C   -0.217757
     3  C   -0.171526
     4  C    0.156177
     5  C   -0.170964
     6  C   -0.218418
     7  H    0.228425
     8  H    0.226995
     9  H    0.276251
    10  H    0.275613
    11  H    0.225196
    12  N    0.486813
    13  O   -0.459163
    14  O   -0.466163
    15  C   -0.170922
    16  C   -0.215240
    17  C   -0.176053
    18  C    0.157612
    19  C   -0.173260
    20  C   -0.219195
    21  H    0.230506
    22  H    0.236575
    23  H    0.271602
    24  H    0.272750
    25  H    0.221541
    26  N    0.488036
    27  O   -0.462298
    28  O   -0.463709
 Sum of Mulliken charges =  -0.00000

 Dipole moment (field-independent basis, Debye):
    X=             -3.9237    Y=             -0.2586    Z=              1.3628  Tot=              4.1617
 Quadrupole moment (field-independent basis, Debye-Ang):
   XX=            -97.2278   YY=           -110.5841   ZZ=           -101.6620
   XY=            -33.9527   XZ=              5.6434   YZ=              1.5820

 Normal termination of Gaussian 16 at Thu May  6 08:08:13 2021.
