 Gaussian 16, Revision A.03,
 Gaussian 16:  EM64L-G16RevA.03 25-Dec-2016

 -------------
 #p 6-31g* mp2
 -------------

 ------------------------------------------------------
 Input file generated by CHIRIPA (05-May-2021 14:55:22)
 ------------------------------------------------------
 Symbolic Z-matrix:
 Charge =  0 Multiplicity = 1

                         Standard orientation:
 ---------------------------------------------------------------------
 Center     Atomic      Atomic             Coordinates (Angstroms)
 Number     Number       Type             X           Y           Z
 ---------------------------------------------------------------------
      1          6           0        2.659414    1.994227    1.631729
      2          6           0        3.576310    2.066753    0.577897
      3          6           0        3.626068    1.059659   -0.390521
      4          6           0        2.740317   -0.010440   -0.273803
      5          6           0        1.815445   -0.111170    0.764346
      6          6           0        1.783453    0.907412    1.721433
      7          1           0        2.627662    2.781024    2.379618
      8          1           0        4.257797    2.909611    0.505703
      9          1           0        4.325887    1.090686   -1.216784
     10          1           0        1.148783   -0.963770    0.809664
     11          1           0        1.070330    0.848454    2.538761
     12          7           0        2.783590   -1.082687   -1.293026
     13          8           0        1.992539   -2.014979   -1.167699
     14          8           0        3.607739   -0.970519   -2.197920
     15          6           0       -2.820235   -0.436777    0.406139
     16          6           0       -2.887490   -1.734346    1.212226
     17          6           0       -1.522782   -2.169422    1.747084
     18          1           0       -2.121637   -0.568693   -0.431420
     19          1           0       -2.402845    0.358631    1.038993
     20          1           0       -3.305918   -2.526737    0.578468
     21          1           0       -3.586156   -1.599387    2.047852
     22          1           0       -1.101867   -1.398927    2.401125
     23          1           0       -0.820038   -2.331546    0.923392
     24          1           0       -1.594003   -3.099094    2.320231
     25          6           0       -4.176720    0.011103   -0.135231
     26          6           0       -4.109464    1.308671   -0.941319
     27          6           0       -5.474173    1.743747   -1.476176
     28          1           0       -4.594110   -0.784306   -0.768086
     29          1           0       -4.875318    0.143019    0.702326
     30          1           0       -3.410799    1.173712   -1.776944
     31          1           0       -3.691037    2.101063   -0.307561
     32          1           0       -6.176918    1.905871   -0.652485
     33          1           0       -5.895087    0.973252   -2.130217
     34          1           0       -5.402952    2.673419   -2.049324
 ---------------------------------------------------------------------

 SCF Done:  E(RHF) =  -669.535765334     A.U. after   15 cycles
 E2 =    -0.2091763000D+01 EUMP2 =    -0.67162752833432D+03

 The electronic state is 1-A.
 Alpha  occ. eigenvalues --  -20.60757 -20.60751 -15.85804 -11.31107 -11.27699
 Alpha  occ. eigenvalues --  -11.27620 -11.27444 -11.26708 -11.26686 -11.21885
 Alpha  occ. eigenvalues --  -11.21716 -11.21626 -11.21565 -11.21519 -11.21154
 Alpha  occ. eigenvalues --   -1.59828  -1.39384  -1.19290  -1.08701  -1.08640
 Alpha  occ. eigenvalues --   -1.04687  -1.03765  -0.96236  -0.95539  -0.87260
 Alpha  occ. eigenvalues --   -0.86090  -0.82375  -0.79842  -0.78454  -0.77416
 Alpha  occ. eigenvalues --   -0.72026  -0.71148  -0.70411  -0.65268  -0.64945
 Alpha  occ. eigenvalues --   -0.64700  -0.62072  -0.61150  -0.59582  -0.57833
 Alpha  occ. eigenvalues --   -0.55529  -0.55205  -0.53024  -0.52942  -0.52895
 Alpha  occ. eigenvalues --   -0.52516  -0.50170  -0.48781  -0.48778  -0.48137
 Alpha  occ. eigenvalues --   -0.46844  -0.45990  -0.45894  -0.44800  -0.44002
 Alpha  occ. eigenvalues --   -0.37282  -0.36283
 Alpha virt. eigenvalues --    0.05098   0.11349   0.16587   0.20104   0.22852
 Alpha virt. eigenvalues --    0.23914   0.25408   0.25998   0.27522   0.27928
 Alpha virt. eigenvalues --    0.29020   0.30250   0.31569   0.31704   0.32498

 Mulliken charges:
               1
     1  C   -0.170372
     2  C   -0.219254
     3  C   -0.169947
     4  C    0.156517
     5  C   -0.176020
     6  C   -0.223770
     7  H    0.225244
     8  H    0.223092
     9  H    0.275260
    10  H    0.288466
    11  H    0.223847
    12  N    0.487638
    13  O   -0.462873
    14  O   -0.460227
    15  C   -0.300378
    16  C   -0.298579
    17  C   -0.487801
    18  H    0.155690
    19  H    0.143257
    20  H    0.157276
    21  H    0.151765
    22  H    0.143502
    23  H    0.168893
    24  H    0.166005
    25  C   -0.298474
    26  C   -0.299965
    27  C   -0.475887
    28  H    0.152196
    29  H    0.148928
    30  H    0.154585
    31  H    0.149729
    32  H    0.154551
    33  H    0.156587
    34  H    0.160520
 Sum of Mulliken charges =  -0.00000

 Dipole moment (field-independent basis, Debye):
    X=             -0.2743    Y=              3.6779    Z=              3.5027  Tot=              5.0864
 Quadrupole moment (field-independent basis, Debye-Ang):
   XX=            -93.8248   YY=            -93.8620   ZZ=            -95.8331
   XY=             13.1586   XZ=              7.5698   YZ=             -1.6733

 Normal termination of Gaussian 16 at Thu May  6 07:48:40 2021.
