 Gaussian 16, Revision A.03,
 Gaussian 16:  EM64L-G16RevA.03 25-Dec-2016

 -------------
 #p 6-31g* mp2
 -------------

 ------------------------------------------------------
 Input file generated by CHIRIPA (05-May-2021 14:53:13)
 ------------------------------------------------------
 Symbolic Z-matrix:
 Charge =  0 Multiplicity = 1

                         Standard orientation:
 ---------------------------------------------------------------------
 Center     Atomic      Atomic             Coordinates (Angstroms)
 Number     Number       Type             X           Y           Z
 ---------------------------------------------------------------------
      1          6           0        2.750280   -0.187546   -0.644494
      2          6           0        3.910857   -1.132771   -0.332092
      3          6           0        3.754021   -2.501082   -0.996112
      4          1           0        1.809874   -0.650642   -0.315671
      5          1           0        2.672447   -0.061037   -1.733224
      6          1           0        3.987348   -1.256368    0.755791
      7          1           0        4.848630   -0.667289   -0.661523
      8          1           0        3.700126   -2.397132   -2.084638
      9          1           0        2.833950   -2.989558   -0.659272
     10          1           0        4.594608   -3.160852   -0.759519
     11          6           0        2.892688    1.184362    0.012252
     12          6           0        1.732110    2.129586   -0.300150
     13          6           0        1.888946    3.497897    0.363870
     14          1           0        2.970521    1.057852    1.100982
     15          1           0        3.833094    1.647457   -0.316571
     16          1           0        0.794337    1.664104    0.029281
     17          1           0        1.655619    2.253184   -1.388033
     18          1           0        2.809017    3.986374    0.027030
     19          1           0        1.942842    3.393947    1.452397
     20          1           0        1.048359    4.157667    0.127277
     21          6           0       -0.438194   -1.483415    1.678729
     22          6           0       -1.245504   -2.263854    0.844652
     23          6           0       -2.227213   -1.668408    0.047006
     24          6           0       -2.375024   -0.283614    0.108552
     25          6           0       -1.586268    0.521009    0.929367
     26          6           0       -0.610847   -0.095921    1.718355
     27          1           0        0.321979   -1.954317    2.294997
     28          1           0       -1.113657   -3.341623    0.811837
     29          1           0       -2.865960   -2.248729   -0.607706
     30          1           0       -1.741291    1.593044    0.940574
     31          1           0        0.014679    0.512680    2.365167
     32          7           0       -3.410985    0.358131   -0.731297
     33          8           0       -3.521288    1.580109   -0.658919
     34          8           0       -4.093055   -0.373001   -1.446045
 ---------------------------------------------------------------------

 SCF Done:  E(RHF) =  -669.534102706     A.U. after   15 cycles
 E2 =    -0.2094943011D+01 EUMP2 =    -0.67162904571704D+03

 The electronic state is 1-A.
 Alpha  occ. eigenvalues --  -20.60857 -20.60852 -15.85913 -11.31331 -11.27894
 Alpha  occ. eigenvalues --  -11.27889 -11.27657 -11.26937 -11.26922 -11.22073
 Alpha  occ. eigenvalues --  -11.21856 -11.21798 -11.21669 -11.21569 -11.21458
 Alpha  occ. eigenvalues --   -1.59931  -1.39483  -1.19525  -1.08935  -1.08805
 Alpha  occ. eigenvalues --   -1.04946  -1.03944  -0.96402  -0.95727  -0.87415
 Alpha  occ. eigenvalues --   -0.86319  -0.82567  -0.80004  -0.78645  -0.77588
 Alpha  occ. eigenvalues --   -0.72131  -0.71254  -0.70621  -0.65563  -0.65171
 Alpha  occ. eigenvalues --   -0.64892  -0.62316  -0.61327  -0.59758  -0.57998
 Alpha  occ. eigenvalues --   -0.55718  -0.55419  -0.53364  -0.53037  -0.53010
 Alpha  occ. eigenvalues --   -0.52818  -0.50366  -0.48894  -0.48882  -0.48325
 Alpha  occ. eigenvalues --   -0.47076  -0.46167  -0.46084  -0.44873  -0.44178
 Alpha  occ. eigenvalues --   -0.37462  -0.36395
 Alpha virt. eigenvalues --    0.04897   0.11033   0.16256   0.19880   0.23153
 Alpha virt. eigenvalues --    0.23380   0.25949   0.26865   0.27490   0.28407
 Alpha virt. eigenvalues --    0.28594   0.29601   0.31303   0.31671   0.32094

 Mulliken charges:
               1
     1  C   -0.305233
     2  C   -0.299172
     3  C   -0.474717
     4  H    0.155086
     5  H    0.152126
     6  H    0.146362
     7  H    0.153975
     8  H    0.158279
     9  H    0.150072
    10  H    0.160690
    11  C   -0.296314
    12  C   -0.309071
    13  C   -0.476922
    14  H    0.140670
    15  H    0.151731
    16  H    0.156402
    17  H    0.156458
    18  H    0.158054
    19  H    0.148372
    20  H    0.163789
    21  C   -0.172043
    22  C   -0.218553
    23  C   -0.170861
    24  C    0.159087
    25  C   -0.171604
    26  C   -0.216755
    27  H    0.226883
    28  H    0.224517
    29  H    0.276402
    30  H    0.277543
    31  H    0.226361
    32  N    0.488149
    33  O   -0.459842
    34  O   -0.459919
 Sum of Mulliken charges =  -0.00000

 Dipole moment (field-independent basis, Debye):
    X=              3.5239    Y=             -2.2825    Z=              2.8751  Tot=              5.0886
 Quadrupole moment (field-independent basis, Debye-Ang):
   XX=           -112.3785   YY=            -90.5181   ZZ=            -93.5347
   XY=              5.9579   XZ=             -6.8411   YZ=             -0.1475

 Normal termination of Gaussian 16 at Thu May  6 18:43:37 2021.
