 Gaussian 16, Revision A.03,
 Gaussian 16:  EM64L-G16RevA.03 25-Dec-2016

 -------------
 #p 6-31g* mp2
 -------------

 ------------------------------------------------------
 Input file generated by CHIRIPA (05-May-2021 14:51:13)
 ------------------------------------------------------
 Symbolic Z-matrix:
 Charge =  0 Multiplicity = 1

                         Standard orientation:
 ---------------------------------------------------------------------
 Center     Atomic      Atomic             Coordinates (Angstroms)
 Number     Number       Type             X           Y           Z
 ---------------------------------------------------------------------
      1          6           0       -3.646844   -0.383389    0.797990
      2          6           0       -2.168649   -0.224679    0.440586
      3          6           0       -1.246735   -0.396420    1.648217
      4          1           0       -3.911635    0.351331    1.570659
      5          1           0       -3.804837   -1.375601    1.242904
      6          1           0       -2.013743    0.766411   -0.004791
      7          1           0       -1.907394   -0.959734   -0.331460
      8          1           0       -1.371995   -1.390152    2.090267
      9          1           0       -1.478948    0.345801    2.418792
     10          1           0       -0.194728   -0.278974    1.370106
     11          6           0       -4.581021   -0.214439   -0.398879
     12          6           0       -6.059216   -0.373149   -0.041475
     13          6           0       -6.981130   -0.201408   -1.249107
     14          1           0       -4.423028    0.777773   -0.843794
     15          1           0       -4.316230   -0.949159   -1.171549
     16          1           0       -6.320471    0.361906    0.730571
     17          1           0       -6.214122   -1.364239    0.403902
     18          1           0       -6.748917   -0.943629   -2.019682
     19          1           0       -6.855870    0.792324   -1.691157
     20          1           0       -8.033137   -0.318854   -0.970995
     21          6           0        3.817546    0.980613   -0.023848
     22          6           0        2.325455    1.092462   -0.338711
     23          6           0        1.746981    2.462017    0.018332
     24          1           0        3.976236    1.179983    1.044803
     25          1           0        4.360467    1.763164   -0.571795
     26          1           0        1.785674    0.309061    0.208586
     27          1           0        2.170277    0.892614   -1.406699
     28          1           0        2.259390    3.253563   -0.537989
     29          1           0        1.872601    2.666692    1.086474
     30          1           0        0.679236    2.520035   -0.214941
     31          6           0        4.410318   -0.382786   -0.375263
     32          6           0        5.902410   -0.494633   -0.060399
     33          6           0        6.480885   -1.864188   -0.417443
     34          1           0        3.867398   -1.165337    0.172684
     35          1           0        4.251629   -0.582154   -1.443913
     36          1           0        6.057588   -0.294786    1.007588
     37          1           0        6.442192    0.288768   -0.607697
     38          1           0        6.355264   -2.068865   -1.485584
     39          1           0        5.968475   -2.655735    0.138878
     40          1           0        7.548629   -1.922206   -0.184170
 ---------------------------------------------------------------------

 SCF Done:  E(RHF) =  -470.733322099     A.U. after   11 cycles
 E2 =    -0.1582676213D+01 EUMP2 =    -0.47231599831188D+03

 The electronic state is 1-A.
 Alpha  occ. eigenvalues --  -11.21606 -11.21604 -11.21601 -11.21600 -11.21408
 Alpha  occ. eigenvalues --  -11.21404 -11.21348 -11.21344 -11.21076 -11.21070
 Alpha  occ. eigenvalues --  -11.21070 -11.21052  -1.08442  -1.08422  -1.03559
 Alpha  occ. eigenvalues --   -1.03502  -0.96010  -0.95949  -0.87002  -0.86990
 Alpha  occ. eigenvalues --   -0.79626  -0.79563  -0.78250  -0.78239  -0.65079
 Alpha  occ. eigenvalues --   -0.65055  -0.60988  -0.60916  -0.59500  -0.59204
 Alpha  occ. eigenvalues --   -0.57720  -0.57440  -0.55290  -0.55237  -0.52714
 Alpha  occ. eigenvalues --   -0.52643  -0.52407  -0.52401  -0.49929  -0.49906
 Alpha  occ. eigenvalues --   -0.48016  -0.47823  -0.46622  -0.46615  -0.45797
 Alpha  occ. eigenvalues --   -0.45777  -0.45708  -0.45702  -0.43811  -0.43727
 Alpha virt. eigenvalues --    0.20915   0.23049   0.23444   0.25238   0.26005
 Alpha virt. eigenvalues --    0.26435   0.27032   0.27315   0.27899   0.28975
 Alpha virt. eigenvalues --    0.29810   0.30727   0.31490   0.31720   0.32459

 Mulliken charges:
               1
     1  C   -0.298391
     2  C   -0.299702
     3  C   -0.483173
     4  H    0.149706
     5  H    0.149570
     6  H    0.152222
     7  H    0.152136
     8  H    0.154894
     9  H    0.155332
    10  H    0.167191
    11  C   -0.298265
    12  C   -0.299657
    13  C   -0.475710
    14  H    0.149485
    15  H    0.149673
    16  H    0.151960
    17  H    0.151923
    18  H    0.155177
    19  H    0.155190
    20  H    0.160253
    21  C   -0.297693
    22  C   -0.306587
    23  C   -0.476439
    24  H    0.149729
    25  H    0.149592
    26  H    0.157331
    27  H    0.152335
    28  H    0.155239
    29  H    0.155419
    30  H    0.161244
    31  C   -0.298405
    32  C   -0.299663
    33  C   -0.475730
    34  H    0.149523
    35  H    0.149681
    36  H    0.152018
    37  H    0.151938
    38  H    0.155158
    39  H    0.155229
    40  H    0.160267
 Sum of Mulliken charges =  -0.00000

 Dipole moment (field-independent basis, Debye):
    X=              0.0079    Y=              0.0030    Z=             -0.0031  Tot=              0.0090
 Quadrupole moment (field-independent basis, Debye-Ang):
   XX=            -85.7059   YY=            -84.5365   ZZ=            -84.5101
   XY=              0.6213   XZ=             -0.7120   YZ=             -0.2366

 Normal termination of Gaussian 16 at Thu May  6 00:48:14 2021.
