 Gaussian 16, Revision A.03,
 Gaussian 16:  EM64L-G16RevA.03 25-Dec-2016

 -------------
 #p 6-31g* mp2
 -------------

 ------------------------------------------------------
 Input file generated by CHIRIPA (05-May-2021 14:57:23)
 ------------------------------------------------------
 Symbolic Z-matrix:
 Charge =  0 Multiplicity = 1

                         Standard orientation:
 ---------------------------------------------------------------------
 Center     Atomic      Atomic             Coordinates (Angstroms)
 Number     Number       Type             X           Y           Z
 ---------------------------------------------------------------------
      1          6           0        1.799588   -1.870960    0.192940
      2          6           0        1.840852   -0.827467    1.123499
      3          6           0        2.847640    0.140508    1.060648
      4          6           0        3.801404    0.033894    0.049579
      5          6           0        3.787177   -0.993823   -0.892166
      6          6           0        2.771169   -1.950667   -0.810154
      7          1           0        1.013910   -2.618583    0.249206
      8          1           0        1.087627   -0.763049    1.903593
      9          1           0        2.903308    0.958882    1.768167
     10          1           0        4.551914   -1.031530   -1.658439
     11          1           0        2.741610   -2.759954   -1.534189
     12          7           0        4.872126    1.052754   -0.027101
     13          8           0        5.700670    0.936448   -0.927448
     14          8           0        4.862539    1.948349    0.814596
     15          6           0       -4.177511    2.585811   -0.284333
     16          6           0       -2.842784    2.167785   -0.267640
     17          6           0       -2.524904    0.811886   -0.145015
     18          6           0       -3.571515   -0.103004   -0.040743
     19          6           0       -4.911160    0.282300   -0.054261
     20          6           0       -5.205627    1.643396   -0.177778
     21          1           0       -4.415355    3.641124   -0.379937
     22          1           0       -2.042277    2.897452   -0.350217
     23          1           0       -1.500270    0.460747   -0.129346
     24          1           0       -5.687438   -0.468518    0.029899
     25          1           0       -6.243102    1.965156   -0.190454
     26          7           0       -3.247382   -1.541184    0.089546
     27          8           0       -4.187776   -2.327404    0.179852
     28          8           0       -2.059072   -1.854977    0.098895
 ---------------------------------------------------------------------

 SCF Done:  E(RHF) =  -868.340408899     A.U. after   16 cycles
 E2 =    -0.2598587093D+01 EUMP2 =    -0.87093899599194D+03

 The electronic state is 1-A.
 Alpha  occ. eigenvalues --  -20.61672 -20.61606 -20.60587 -20.60577 -15.86687
 Alpha  occ. eigenvalues --  -15.85636 -11.31785 -11.30850 -11.28320 -11.28308
 Alpha  occ. eigenvalues --  -11.27995 -11.27455 -11.27420 -11.27267 -11.27255
 Alpha  occ. eigenvalues --  -11.26914 -11.26321 -11.26290  -1.60706  -1.59667
 Alpha  occ. eigenvalues --   -1.40271  -1.39224  -1.19928  -1.19003  -1.09368
 Alpha  occ. eigenvalues --   -1.08370  -1.05290  -1.04396  -0.96251  -0.95233
 Alpha  occ. eigenvalues --   -0.86699  -0.85762  -0.83098  -0.82087  -0.78175
 Alpha  occ. eigenvalues --   -0.77201  -0.72934  -0.72013  -0.71851  -0.71028
 Alpha  occ. eigenvalues --   -0.70994  -0.69950  -0.65584  -0.65282  -0.64623
 Alpha  occ. eigenvalues --   -0.64353  -0.62639  -0.61748  -0.55788  -0.54691
 Alpha  occ. eigenvalues --   -0.53636  -0.53376  -0.52721  -0.52453  -0.49679
 Alpha  occ. eigenvalues --   -0.49631  -0.48620  -0.48594  -0.45736  -0.44665
 Alpha  occ. eigenvalues --   -0.37889  -0.36895  -0.36883  -0.36041
 Alpha virt. eigenvalues --    0.04339   0.05350   0.10769   0.11562   0.15896
 Alpha virt. eigenvalues --    0.16900   0.20819   0.22042   0.26635   0.27360
 Alpha virt. eigenvalues --    0.28143   0.29057   0.30607   0.31502   0.31984

 Mulliken charges:
               1
     1  C   -0.171001
     2  C   -0.226247
     3  C   -0.174283
     4  C    0.156702
     5  C   -0.171452
     6  C   -0.221018
     7  H    0.247185
     8  H    0.225913
     9  H    0.272213
    10  H    0.274165
    11  H    0.224698
    12  N    0.488215
    13  O   -0.461326
    14  O   -0.463196
    15  C   -0.169885
    16  C   -0.218916
    17  C   -0.173409
    18  C    0.157750
    19  C   -0.170535
    20  C   -0.218519
    21  H    0.228379
    22  H    0.227024
    23  H    0.274160
    24  H    0.276284
    25  H    0.225446
    26  N    0.491874
    27  O   -0.456096
    28  O   -0.474125
 Sum of Mulliken charges =  -0.00000

 Dipole moment (field-independent basis, Debye):
    X=             -5.2770    Y=              1.3874    Z=             -0.2273  Tot=              5.4611
 Quadrupole moment (field-independent basis, Debye-Ang):
   XX=           -120.4806   YY=           -105.2560   ZZ=           -102.8118
   XY=            -32.5174   XZ=              0.5568   YZ=              1.6513

 Normal termination of Gaussian 16 at Thu May  6 03:24:53 2021.
