 Gaussian 16, Revision A.03,
 Gaussian 16:  EM64L-G16RevA.03 25-Dec-2016

 -------------
 #p 6-31g* mp2
 -------------

 ------------------------------------------------------
 Input file generated by CHIRIPA (05-May-2021 14:55:25)
 ------------------------------------------------------
 Symbolic Z-matrix:
 Charge =  0 Multiplicity = 1

                         Standard orientation:
 ---------------------------------------------------------------------
 Center     Atomic      Atomic             Coordinates (Angstroms)
 Number     Number       Type             X           Y           Z
 ---------------------------------------------------------------------
      1          6           0        3.791721    0.961129    0.210224
      2          6           0        3.021709    0.647578    1.335074
      3          6           0        2.010229   -0.314412    1.257418
      4          6           0        1.794937   -0.946210    0.033583
      5          6           0        2.545202   -0.655703   -1.104836
      6          6           0        3.551433    0.309636   -1.004001
      7          1           0        4.575424    1.709726    0.279552
      8          1           0        3.206089    1.151936    2.279358
      9          1           0        1.399185   -0.576468    2.112619
     10          1           0        2.337904   -1.175332   -2.032430
     11          1           0        4.147870    0.551119   -1.879212
     12          7           0        0.726907   -1.966399   -0.060897
     13          8           0        0.557074   -2.508780   -1.150676
     14          8           0        0.079840   -2.204325    0.956616
     15          6           0       -1.811298    1.210997    0.112869
     16          6           0       -1.416416    2.556473   -0.496841
     17          6           0        0.009802    2.973140   -0.136170
     18          1           0       -1.709189    1.266582    1.205310
     19          1           0       -1.105905    0.440614   -0.228197
     20          1           0       -2.123164    3.323828   -0.155827
     21          1           0       -1.519661    2.497737   -1.587944
     22          1           0        0.729977    2.228761   -0.490924
     23          1           0        0.123046    3.059546    0.949330
     24          1           0        0.271241    3.937709   -0.582393
     25          6           0       -3.234363    0.780865   -0.238705
     26          6           0       -3.629244   -0.564612    0.371005
     27          6           0       -5.055463   -0.981278    0.010334
     28          1           0       -3.939756    1.551248    0.102361
     29          1           0       -3.336472    0.725279   -1.331147
     30          1           0       -3.525999   -0.505875    1.462108
     31          1           0       -2.922497   -1.331967    0.029991
     32          1           0       -5.168707   -1.067684   -1.075166
     33          1           0       -5.775638   -0.236899    0.365088
     34          1           0       -5.316902   -1.945847    0.456557
 ---------------------------------------------------------------------

 SCF Done:  E(RHF) =  -669.535729095     A.U. after   15 cycles
 E2 =    -0.2094374687D+01 EUMP2 =    -0.67163010378281D+03

 The electronic state is 1-A.
 Alpha  occ. eigenvalues --  -20.60926 -20.60899 -15.85941 -11.31270 -11.27856
 Alpha  occ. eigenvalues --  -11.27815 -11.27574 -11.26860 -11.26818 -11.21385
 Alpha  occ. eigenvalues --  -11.21008 -11.20999 -11.20769 -11.20585 -11.20259
 Alpha  occ. eigenvalues --   -1.59982  -1.39533  -1.19451  -1.08850  -1.07919
 Alpha  occ. eigenvalues --   -1.04839  -1.03002  -0.95688  -0.95505  -0.86529
 Alpha  occ. eigenvalues --   -0.86235  -0.82517  -0.79096  -0.77697  -0.77556
 Alpha  occ. eigenvalues --   -0.72161  -0.71314  -0.70546  -0.65097  -0.64839
 Alpha  occ. eigenvalues --   -0.64548  -0.62184  -0.60407  -0.58910  -0.57101
 Alpha  occ. eigenvalues --   -0.55339  -0.54849  -0.53244  -0.52928  -0.52200
 Alpha  occ. eigenvalues --   -0.51856  -0.49451  -0.48934  -0.48924  -0.47362
 Alpha  occ. eigenvalues --   -0.46113  -0.45386  -0.45149  -0.44696  -0.43271
 Alpha  occ. eigenvalues --   -0.37407  -0.36421
 Alpha virt. eigenvalues --    0.04933   0.11199   0.16414   0.21313   0.23162
 Alpha virt. eigenvalues --    0.24733   0.26717   0.27170   0.27671   0.28212
 Alpha virt. eigenvalues --    0.28553   0.30988   0.31756   0.32056   0.32449

 Mulliken charges:
               1
     1  C   -0.170083
     2  C   -0.216318
     3  C   -0.168971
     4  C    0.155162
     5  C   -0.172880
     6  C   -0.218751
     7  H    0.226372
     8  H    0.223933
     9  H    0.276045
    10  H    0.275935
    11  H    0.224071
    12  N    0.490191
    13  O   -0.460420
    14  O   -0.458084
    15  C   -0.296053
    16  C   -0.299148
    17  C   -0.478891
    18  H    0.147371
    19  H    0.147519
    20  H    0.150946
    21  H    0.151633
    22  H    0.159969
    23  H    0.149858
    24  H    0.156290
    25  C   -0.298443
    26  C   -0.303462
    27  C   -0.475748
    28  H    0.145988
    29  H    0.149101
    30  H    0.150369
    31  H    0.170624
    32  H    0.153961
    33  H    0.150407
    34  H    0.161507
 Sum of Mulliken charges =  -0.00000

 Dipole moment (field-independent basis, Debye):
    X=              3.8956    Y=              3.3970    Z=              0.3629  Tot=              5.1814
 Quadrupole moment (field-independent basis, Debye-Ang):
   XX=            -82.7260   YY=           -102.5887   ZZ=            -89.4364
   XY=              2.6451   XZ=             -0.9114   YZ=              0.9205

 Normal termination of Gaussian 16 at Thu May  6 20:56:59 2021.
