 Gaussian 16, Revision A.03,
 Gaussian 16:  EM64L-G16RevA.03 25-Dec-2016

 -------------
 #p 6-31g* mp2
 -------------

 ------------------------------------------------------
 Input file generated by CHIRIPA (05-May-2021 14:53:12)
 ------------------------------------------------------
 Symbolic Z-matrix:
 Charge =  0 Multiplicity = 1

                         Standard orientation:
 ---------------------------------------------------------------------
 Center     Atomic      Atomic             Coordinates (Angstroms)
 Number     Number       Type             X           Y           Z
 ---------------------------------------------------------------------
      1          6           0        3.081253    1.190565    0.104562
      2          6           0        2.147231    2.115028   -0.677075
      3          6           0        2.011706    3.496988   -0.037063
      4          1           0        2.707014    1.085250    1.132083
      5          1           0        4.072021    1.659805    0.179316
      6          1           0        1.158903    1.643562   -0.751523
      7          1           0        2.523632    2.218002   -1.702908
      8          1           0        2.986836    3.991083    0.022867
      9          1           0        1.614353    3.413379    0.979658
     10          1           0        1.339555    4.141541   -0.612063
     11          6           0        3.226963   -0.194675   -0.522820
     12          6           0        4.160985   -1.119138    0.258817
     13          6           0        4.296511   -2.501098   -0.381195
     14          1           0        2.236196   -0.663915   -0.597574
     15          1           0        3.601203   -0.089360   -1.550341
     16          1           0        3.784584   -1.222112    1.284650
     17          1           0        5.149313   -0.647672    0.333265
     18          1           0        4.693863   -2.417489   -1.397916
     19          1           0        3.321380   -2.995193   -0.441125
     20          1           0        4.968661   -3.145651    0.193805
     21          6           0       -0.179284   -1.248772    0.800680
     22          6           0       -0.542260    0.067125    1.105941
     23          6           0       -1.805585    0.554177    0.757601
     24          6           0       -2.685039   -0.305901    0.101770
     25          6           0       -2.352820   -1.621911   -0.216097
     26          6           0       -1.084127   -2.087611    0.141797
     27          1           0        0.804183   -1.618832    1.074990
     28          1           0        0.158412    0.720828    1.617581
     29          1           0       -2.112551    1.568533    0.981810
     30          1           0       -3.072788   -2.249852   -0.726741
     31          1           0       -0.804956   -3.110012   -0.096543
     32          7           0       -4.025306    0.198416   -0.272060
     33          8           0       -4.781954   -0.579327   -0.849327
     34          8           0       -4.293781    1.361893    0.019280
 ---------------------------------------------------------------------

 SCF Done:  E(RHF) =  -669.534138594     A.U. after   15 cycles
 E2 =    -0.2094821173D+01 EUMP2 =    -0.67162895976767D+03

 The electronic state is 1-A.
 Alpha  occ. eigenvalues --  -20.60817 -20.60812 -15.85872 -11.31271 -11.27841
 Alpha  occ. eigenvalues --  -11.27837 -11.27566 -11.26863 -11.26845 -11.22611
 Alpha  occ. eigenvalues --  -11.22343 -11.22240 -11.22207 -11.22044 -11.21750
 Alpha  occ. eigenvalues --   -1.59892  -1.39444  -1.19456  -1.09367  -1.08826
 Alpha  occ. eigenvalues --   -1.04865  -1.04385  -0.96845  -0.95671  -0.87857
 Alpha  occ. eigenvalues --   -0.86254  -0.82505  -0.80435  -0.79139  -0.77542
 Alpha  occ. eigenvalues --   -0.72090  -0.71216  -0.70622  -0.66170  -0.65098
 Alpha  occ. eigenvalues --   -0.64714  -0.62298  -0.61703  -0.60195  -0.58431
 Alpha  occ. eigenvalues --   -0.56203  -0.55329  -0.53514  -0.53253  -0.53180
 Alpha  occ. eigenvalues --   -0.52944  -0.50792  -0.48861  -0.48842  -0.48729
 Alpha  occ. eigenvalues --   -0.47503  -0.46675  -0.46592  -0.44843  -0.44636
 Alpha  occ. eigenvalues --   -0.37363  -0.36423
 Alpha virt. eigenvalues --    0.04944   0.11114   0.16276   0.18201   0.21737
 Alpha virt. eigenvalues --    0.23745   0.25269   0.26549   0.27101   0.28035
 Alpha virt. eigenvalues --    0.29416   0.30075   0.30948   0.31782   0.32482

 Mulliken charges:
               1
     1  C   -0.298944
     2  C   -0.307991
     3  C   -0.476062
     4  H    0.138754
     5  H    0.154396
     6  H    0.158868
     7  H    0.156077
     8  H    0.158081
     9  H    0.147984
    10  H    0.165477
    11  C   -0.306366
    12  C   -0.302262
    13  C   -0.474786
    14  H    0.150934
    15  H    0.155194
    16  H    0.145309
    17  H    0.157313
    18  H    0.160015
    19  H    0.148111
    20  H    0.163509
    21  C   -0.173712
    22  C   -0.220401
    23  C   -0.172556
    24  C    0.159038
    25  C   -0.170329
    26  C   -0.220474
    27  H    0.231160
    28  H    0.229106
    29  H    0.276540
    30  H    0.276063
    31  H    0.224103
    32  N    0.488027
    33  O   -0.460148
    34  O   -0.460031
 Sum of Mulliken charges =  -0.00000

 Dipole moment (field-independent basis, Debye):
    X=              4.7829    Y=             -1.7428    Z=              1.1839  Tot=              5.2264
 Quadrupole moment (field-independent basis, Debye-Ang):
   XX=           -119.3133   YY=            -90.5967   ZZ=            -94.2158
   XY=              5.0193   XZ=             -3.3545   YZ=              0.7899

 Normal termination of Gaussian 16 at Wed May  5 23:21:31 2021.
