 Gaussian 16, Revision A.03,
 Gaussian 16:  EM64L-G16RevA.03 25-Dec-2016

 -------------
 #p 6-31g* mp2
 -------------

 ------------------------------------------------------
 Input file generated by CHIRIPA (05-May-2021 14:51:09)
 ------------------------------------------------------
 Symbolic Z-matrix:
 Charge =  0 Multiplicity = 1

                         Standard orientation:
 ---------------------------------------------------------------------
 Center     Atomic      Atomic             Coordinates (Angstroms)
 Number     Number       Type             X           Y           Z
 ---------------------------------------------------------------------
      1          6           0       -4.701189   -0.499474    0.386206
      2          6           0       -5.694834   -1.218700   -0.526684
      3          6           0       -6.534441   -2.258410    0.216186
      4          1           0       -4.039279   -1.241272    0.853707
      5          1           0       -5.251023   -0.012217    1.203309
      6          1           0       -5.143412   -1.703299   -1.342597
      7          1           0       -6.354331   -0.475086   -0.992214
      8          1           0       -7.109751   -1.786540    1.019279
      9          1           0       -5.891952   -3.021731    0.666906
     10          1           0       -7.237952   -2.760456   -0.455292
     11          6           0       -3.854536    0.542981   -0.341939
     12          6           0       -2.860891    1.262206    0.570952
     13          6           0       -2.021283    2.301916   -0.171918
     14          1           0       -3.304702    0.055723   -1.159041
     15          1           0       -4.516446    1.284779   -0.809439
     16          1           0       -2.201394    0.518593    1.036482
     17          1           0       -3.412312    1.746806    1.386865
     18          1           0       -2.663773    3.065238   -0.622638
     19          1           0       -1.445974    1.830046   -0.975012
     20          1           0       -1.317773    2.803962    0.499560
     21          6           0        3.602883    0.163407   -0.327994
     22          6           0        2.928233    1.348360    0.363904
     23          6           0        1.578810    1.706776   -0.259304
     24          1           0        3.739739    0.397940   -1.392517
     25          1           0        2.934386   -0.707514   -0.283237
     26          1           0        3.598383    2.216407    0.319070
     27          1           0        2.793142    1.111055    1.426943
     28          1           0        0.889931    0.857863   -0.201048
     29          1           0        1.699748    1.969496   -1.315217
     30          1           0        1.114092    2.556408    0.250622
     31          6           0        4.952842   -0.206914    0.283725
     32          6           0        5.627491   -1.391866   -0.408172
     33          6           0        6.976915   -1.750283    0.215036
     34          1           0        5.621338    0.664007    0.238970
     35          1           0        4.815987   -0.441447    1.348250
     36          1           0        5.762583   -1.154561   -1.471211
     37          1           0        4.957342   -2.259913   -0.363337
     38          1           0        6.855977   -2.013003    1.270950
     39          1           0        7.665793   -0.901370    0.156782
     40          1           0        7.441632   -2.599915   -0.294889
 ---------------------------------------------------------------------

 SCF Done:  E(RHF) =  -470.732403829     A.U. after   11 cycles
 E2 =    -0.1582753451D+01 EUMP2 =    -0.47231515727960D+03

 The electronic state is 1-A.
 Alpha  occ. eigenvalues --  -11.21598 -11.21586 -11.21556 -11.21546 -11.21394
 Alpha  occ. eigenvalues --  -11.21377 -11.21335 -11.21316 -11.21069 -11.21061
 Alpha  occ. eigenvalues --  -11.20992 -11.20908  -1.08420  -1.08391  -1.03544
 Alpha  occ. eigenvalues --   -1.03452  -0.96049  -0.95846  -0.87121  -0.86810
 Alpha  occ. eigenvalues --   -0.79673  -0.79452  -0.78237  -0.78201  -0.65070
 Alpha  occ. eigenvalues --   -0.65008  -0.61004  -0.60803  -0.59563  -0.59115
 Alpha  occ. eigenvalues --   -0.57668  -0.57443  -0.55396  -0.55093  -0.52989
 Alpha  occ. eigenvalues --   -0.52476  -0.52322  -0.52203  -0.50000  -0.49739
 Alpha  occ. eigenvalues --   -0.47981  -0.47768  -0.46640  -0.46543  -0.45792
 Alpha  occ. eigenvalues --   -0.45732  -0.45697  -0.45660  -0.43946  -0.43514
 Alpha virt. eigenvalues --    0.21932   0.23022   0.23564   0.24936   0.26378
 Alpha virt. eigenvalues --    0.26676   0.27069   0.27401   0.27564   0.28868
 Alpha virt. eigenvalues --    0.29335   0.31266   0.31297   0.32030   0.32243

 Mulliken charges:
               1
     1  C   -0.298179
     2  C   -0.299614
     3  C   -0.475672
     4  H    0.149341
     5  H    0.149480
     6  H    0.151862
     7  H    0.151953
     8  H    0.155160
     9  H    0.155073
    10  H    0.160201
    11  C   -0.298405
    12  C   -0.300603
    13  C   -0.476753
    14  H    0.149364
    15  H    0.149698
    16  H    0.151373
    17  H    0.151520
    18  H    0.153500
    19  H    0.159180
    20  H    0.161524
    21  C   -0.298459
    22  C   -0.300883
    23  C   -0.475323
    24  H    0.149524
    25  H    0.149082
    26  H    0.151601
    27  H    0.151531
    28  H    0.155500
    29  H    0.154417
    30  H    0.163090
    31  C   -0.298182
    32  C   -0.299594
    33  C   -0.475687
    34  H    0.149546
    35  H    0.149572
    36  H    0.151908
    37  H    0.151788
    38  H    0.155155
    39  H    0.155198
    40  H    0.160211
 Sum of Mulliken charges =  -0.00000

 Dipole moment (field-independent basis, Debye):
    X=              0.0061    Y=              0.0205    Z=             -0.0111  Tot=              0.0241
 Quadrupole moment (field-independent basis, Debye-Ang):
   XX=            -85.7505   YY=            -84.6165   ZZ=            -84.6198
   XY=             -0.3365   XZ=             -0.5149   YZ=              0.1554

 Normal termination of Gaussian 16 at Wed May  5 21:23:04 2021.
