 Gaussian 16, Revision A.03,
 Gaussian 16:  EM64L-G16RevA.03 25-Dec-2016

 -------------
 #p 6-31g* mp2
 -------------

 ------------------------------------------------------
 Input file generated by CHIRIPA (05-May-2021 14:57:24)
 ------------------------------------------------------
 Symbolic Z-matrix:
 Charge =  0 Multiplicity = 1

                         Standard orientation:
 ---------------------------------------------------------------------
 Center     Atomic      Atomic             Coordinates (Angstroms)
 Number     Number       Type             X           Y           Z
 ---------------------------------------------------------------------
      1          6           0        3.679596    1.780852    1.754706
      2          6           0        2.500288    1.641846    1.015498
      3          6           0        2.386568    0.646221    0.040640
      4          6           0        3.476637   -0.196831   -0.169837
      5          6           0        4.664850   -0.083563    0.550310
      6          6           0        4.756215    0.919223    1.520167
      7          1           0        3.759254    2.557058    2.510056
      8          1           0        1.662561    2.309572    1.195498
      9          1           0        1.485267    0.516348   -0.546052
     10          1           0        5.482972   -0.764204    0.348267
     11          1           0        5.673306    1.024844    2.092734
     12          7           0        3.368080   -1.254645   -1.199228
     13          8           0        4.342756   -1.984696   -1.365570
     14          8           0        2.310372   -1.333679   -1.820231
     15          6           0       -2.909775    1.875913   -1.608798
     16          6           0       -4.245779    1.640310   -1.268053
     17          6           0       -4.581413    0.616118   -0.377589
     18          6           0       -3.551061   -0.156692    0.155731
     19          6           0       -2.210611    0.053377   -0.164198
     20          6           0       -1.898238    1.083092   -1.056756
     21          1           0       -2.658081    2.673674   -2.301346
     22          1           0       -5.033434    2.254445   -1.695232
     23          1           0       -5.607447    0.411958   -0.096533
     24          1           0       -1.447396   -0.575484    0.277904
     25          1           0       -0.859815    1.263781   -1.319575
     26          7           0       -3.894069   -1.243880    1.099535
     27          8           0       -2.967787   -1.910659    1.555655
     28          8           0       -5.082706   -1.408655    1.365296
 ---------------------------------------------------------------------

 SCF Done:  E(RHF) =  -868.336990897     A.U. after   16 cycles
 E2 =    -0.2599748400D+01 EUMP2 =    -0.87093673929675D+03

 The electronic state is 1-A.
 Alpha  occ. eigenvalues --  -20.61227 -20.61202 -20.60817 -20.60809 -15.86272
 Alpha  occ. eigenvalues --  -15.85874 -11.31703 -11.31315 -11.28389 -11.28197
 Alpha  occ. eigenvalues --  -11.27952 -11.27925 -11.27898 -11.27685 -11.27318
 Alpha  occ. eigenvalues --  -11.27220 -11.27017 -11.26914  -1.60286  -1.59891
 Alpha  occ. eigenvalues --   -1.39843  -1.39441  -1.19858  -1.19511  -1.09226
 Alpha  occ. eigenvalues --   -1.08891  -1.05286  -1.04938  -0.96065  -0.95707
 Alpha  occ. eigenvalues --   -0.86673  -0.86330  -0.82906  -0.82551  -0.77974
 Alpha  occ. eigenvalues --   -0.77572  -0.72489  -0.72091  -0.71606  -0.71215
 Alpha  occ. eigenvalues --   -0.70977  -0.70609  -0.65514  -0.65314  -0.65165
 Alpha  occ. eigenvalues --   -0.64952  -0.62738  -0.62198  -0.55748  -0.55425
 Alpha  occ. eigenvalues --   -0.53581  -0.53406  -0.53247  -0.53014  -0.49258
 Alpha  occ. eigenvalues --   -0.49236  -0.48858  -0.48839  -0.45235  -0.44830
 Alpha  occ. eigenvalues --   -0.37801  -0.37490  -0.36882  -0.36539
 Alpha virt. eigenvalues --    0.04590   0.04974   0.10763   0.11114   0.16102
 Alpha virt. eigenvalues --    0.16423   0.18269   0.22023   0.24491   0.27365
 Alpha virt. eigenvalues --    0.28079   0.29216   0.30332   0.31116   0.32240

 Mulliken charges:
               1
     1  C   -0.170157
     2  C   -0.218795
     3  C   -0.178720
     4  C    0.161501
     5  C   -0.169290
     6  C   -0.217799
     7  H    0.227870
     8  H    0.222673
     9  H    0.271489
    10  H    0.277739
    11  H    0.225983
    12  N    0.487618
    13  O   -0.456680
    14  O   -0.463220
    15  C   -0.170605
    16  C   -0.218682
    17  C   -0.170152
    18  C    0.158426
    19  C   -0.170775
    20  C   -0.222198
    21  H    0.226532
    22  H    0.224157
    23  H    0.276426
    24  H    0.277084
    25  H    0.220642
    26  N    0.488070
    27  O   -0.458832
    28  O   -0.460304
 Sum of Mulliken charges =  -0.00000

 Dipole moment (field-independent basis, Debye):
    X=              1.7136    Y=              7.5070    Z=              0.3813  Tot=              7.7095
 Quadrupole moment (field-independent basis, Debye-Ang):
   XX=           -100.2240   YY=           -108.0231   ZZ=           -108.1460
   XY=             -3.8141   XZ=             26.8057   YZ=             -0.5971

 Normal termination of Gaussian 16 at Thu May  6 00:17:16 2021.
