 Gaussian 16, Revision A.03,
 Gaussian 16:  EM64L-G16RevA.03 25-Dec-2016

 -------------
 #p 6-31g* mp2
 -------------

 ------------------------------------------------------
 Input file generated by CHIRIPA (05-May-2021 14:53:16)
 ------------------------------------------------------
 Symbolic Z-matrix:
 Charge =  0 Multiplicity = 1

                         Standard orientation:
 ---------------------------------------------------------------------
 Center     Atomic      Atomic             Coordinates (Angstroms)
 Number     Number       Type             X           Y           Z
 ---------------------------------------------------------------------
      1          6           0        3.348878    1.095575   -0.255843
      2          6           0        1.976347    1.699464   -0.554943
      3          6           0        2.067052    3.079446   -1.207029
      4          1           0        3.907021    1.776981    0.400745
      5          1           0        3.921616    1.023409   -1.190807
      6          1           0        1.405852    1.769188    0.380092
      7          1           0        1.421334    1.016451   -1.210740
      8          1           0        2.613451    3.022865   -2.154050
      9          1           0        2.597882    3.779879   -0.554179
     10          1           0        1.074523    3.492564   -1.412164
     11          6           0        3.274719   -0.283948    0.396188
     12          6           0        4.647251   -0.887837    0.695288
     13          6           0        4.556545   -2.267819    1.347374
     14          1           0        2.701981   -0.211782    1.331152
     15          1           0        2.716577   -0.965355   -0.260400
     16          1           0        5.202264   -0.204824    1.351085
     17          1           0        5.217745   -0.957562   -0.239747
     18          1           0        4.025716   -2.968253    0.694524
     19          1           0        4.010146   -2.211238    2.294395
     20          1           0        5.549074   -2.680937    1.552510
     21          6           0       -3.900639    1.248728    1.424887
     22          6           0       -4.475472    0.050248    0.989305
     23          6           0       -3.757101   -0.824893    0.169171
     24          6           0       -2.460378   -0.468414   -0.197875
     25          6           0       -1.860102    0.718399    0.219776
     26          6           0       -2.597086    1.578398    1.039412
     27          1           0       -4.465916    1.922678    2.061793
     28          1           0       -5.487639   -0.208369    1.287097
     29          1           0       -4.177804   -1.759124   -0.182453
     30          1           0       -0.849138    0.948894   -0.093658
     31          1           0       -2.148115    2.508482    1.376181
     32          7           0       -1.690018   -1.386872   -1.065851
     33          8           0       -0.549281   -1.049759   -1.375222
     34          8           0       -2.241534   -2.426482   -1.420364
 ---------------------------------------------------------------------

 SCF Done:  E(RHF) =  -669.535801271     A.U. after   15 cycles
 E2 =    -0.2092619320D+01 EUMP2 =    -0.67162842059062D+03

 The electronic state is 1-A.
 Alpha  occ. eigenvalues --  -20.60868 -20.60854 -15.85903 -11.31169 -11.27757
 Alpha  occ. eigenvalues --  -11.27660 -11.27494 -11.26756 -11.26731 -11.21459
 Alpha  occ. eigenvalues --  -11.21168 -11.21103 -11.21092 -11.20834 -11.20625
 Alpha  occ. eigenvalues --   -1.59929  -1.39486  -1.19347  -1.08766  -1.08097
 Alpha  occ. eigenvalues --   -1.04740  -1.03274  -0.95707  -0.95610  -0.86725
 Alpha  occ. eigenvalues --   -0.86144  -0.82452  -0.79401  -0.77963  -0.77410
 Alpha  occ. eigenvalues --   -0.72131  -0.71240  -0.70465  -0.65023  -0.64754
 Alpha  occ. eigenvalues --   -0.64694  -0.62114  -0.60657  -0.59092  -0.57324
 Alpha  occ. eigenvalues --   -0.55253  -0.54973  -0.53078  -0.52853  -0.52429
 Alpha  occ. eigenvalues --   -0.52122  -0.49648  -0.48914  -0.48876  -0.47625
 Alpha  occ. eigenvalues --   -0.46344  -0.45439  -0.45274  -0.44886  -0.43491
 Alpha  occ. eigenvalues --   -0.37338  -0.36339
 Alpha virt. eigenvalues --    0.05009   0.11300   0.16506   0.20820   0.23306
 Alpha virt. eigenvalues --    0.24279   0.26217   0.26982   0.27789   0.28232
 Alpha virt. eigenvalues --    0.29484   0.30802   0.31602   0.31743   0.32168

 Mulliken charges:
               1
     1  C   -0.295093
     2  C   -0.319519
     3  C   -0.474906
     4  H    0.146187
     5  H    0.151665
     6  H    0.137685
     7  H    0.180705
     8  H    0.159464
     9  H    0.153480
    10  H    0.154195
    11  C   -0.302803
    12  C   -0.299489
    13  C   -0.475893
    14  H    0.144423
    15  H    0.166743
    16  H    0.148704
    17  H    0.152246
    18  H    0.159580
    19  H    0.153206
    20  H    0.158427
    21  C   -0.170061
    22  C   -0.219493
    23  C   -0.169638
    24  C    0.154615
    25  C   -0.178610
    26  C   -0.224340
    27  H    0.225550
    28  H    0.223329
    29  H    0.275373
    30  H    0.295435
    31  H    0.223761
    32  N    0.491488
    33  O   -0.466826
    34  O   -0.459590
 Sum of Mulliken charges =  -0.00000

 Dipole moment (field-independent basis, Debye):
    X=             -2.7200    Y=              3.0665    Z=              2.8969  Tot=              5.0194
 Quadrupole moment (field-independent basis, Debye-Ang):
   XX=            -78.8254   YY=            -97.4359   ZZ=            -96.1371
   XY=             -4.1212   XZ=             -7.6222   YZ=             -1.0397

 Normal termination of Gaussian 16 at Wed May  5 21:56:25 2021.
