 Gaussian 16, Revision A.03,
 Gaussian 16:  EM64L-G16RevA.03 25-Dec-2016

 -------------
 #p 6-31g* mp2
 -------------

 ------------------------------------------------------
 Input file generated by CHIRIPA (05-May-2021 14:57:22)
 ------------------------------------------------------
 Symbolic Z-matrix:
 Charge =  0 Multiplicity = 1

                         Standard orientation:
 ---------------------------------------------------------------------
 Center     Atomic      Atomic             Coordinates (Angstroms)
 Number     Number       Type             X           Y           Z
 ---------------------------------------------------------------------
      1          6           0       -3.457968    1.916828    1.379274
      2          6           0       -3.937459    1.701744    0.082991
      3          6           0       -3.543859    0.572631   -0.641392
      4          6           0       -2.665598   -0.324880   -0.036064
      5          6           0       -2.170493   -0.138400    1.253659
      6          6           0       -2.577568    0.997690    1.959448
      7          1           0       -3.768960    2.796660    1.934770
      8          1           0       -4.621291    2.413871   -0.370103
      9          1           0       -3.899732    0.381579   -1.646515
     10          1           0       -1.489883   -0.866067    1.678733
     11          1           0       -2.203582    1.162155    2.965992
     12          7           0       -2.241779   -1.523915   -0.793094
     13          8           0       -1.467128   -2.299609   -0.237349
     14          8           0       -2.692266   -1.665321   -1.927864
     15          6           0        2.777124    2.438468   -1.099905
     16          6           0        1.761435    1.541186   -1.446002
     17          6           0        1.728394    0.258045   -0.891920
     18          6           0        2.731420   -0.096173    0.009056
     19          6           0        3.756546    0.775248    0.373787
     20          6           0        3.769689    2.053314   -0.192714
     21          1           0        2.795063    3.433271   -1.535153
     22          1           0        0.989292    1.837570   -2.150272
     23          1           0        0.953704   -0.456507   -1.142292
     24          1           0        4.512506    0.451029    1.078645
     25          1           0        4.559704    2.748068    0.077910
     26          7           0        2.706973   -1.451890    0.602212
     27          8           0        3.602251   -1.739671    1.393602
     28          8           0        1.792999   -2.201051    0.264505
 ---------------------------------------------------------------------

 SCF Done:  E(RHF) =  -868.336478551     A.U. after   16 cycles
 E2 =    -0.2601443024D+01 EUMP2 =    -0.87093792157486D+03

 The electronic state is 1-A.
 Alpha  occ. eigenvalues --  -20.60786 -20.60642 -20.60297 -20.60203 -15.85731
 Alpha  occ. eigenvalues --  -15.85295 -11.31259 -11.30892 -11.27876 -11.27773
 Alpha  occ. eigenvalues --  -11.27610 -11.27517 -11.27426 -11.27295 -11.26905
 Alpha  occ. eigenvalues --  -11.26840 -11.26578 -11.26535  -1.59802  -1.59343
 Alpha  occ. eigenvalues --   -1.39334  -1.38875  -1.19449  -1.19094  -1.08821
 Alpha  occ. eigenvalues --   -1.08455  -1.04855  -1.04521  -0.95620  -0.95241
 Alpha  occ. eigenvalues --   -0.86246  -0.85908  -0.82434  -0.82046  -0.77473
 Alpha  occ. eigenvalues --   -0.77046  -0.71958  -0.71490  -0.71131  -0.70687
 Alpha  occ. eigenvalues --   -0.70530  -0.70183  -0.65081  -0.64846  -0.64728
 Alpha  occ. eigenvalues --   -0.64520  -0.62182  -0.61847  -0.55351  -0.55028
 Alpha  occ. eigenvalues --   -0.53212  -0.52933  -0.52847  -0.52609  -0.48735
 Alpha  occ. eigenvalues --   -0.48703  -0.48311  -0.48242  -0.44688  -0.44187
 Alpha  occ. eigenvalues --   -0.37462  -0.37106  -0.36488  -0.36115
 Alpha virt. eigenvalues --    0.05017   0.05457   0.11084   0.11584   0.16478
 Alpha virt. eigenvalues --    0.16892   0.21330   0.21616   0.27270   0.27375
 Alpha virt. eigenvalues --    0.28155   0.28501   0.30712   0.31248   0.32280

 Mulliken charges:
               1
     1  C   -0.171476
     2  C   -0.219370
     3  C   -0.173704
     4  C    0.153159
     5  C   -0.173448
     6  C   -0.218599
     7  H    0.225236
     8  H    0.222515
     9  H    0.274637
    10  H    0.284126
    11  H    0.225019
    12  N    0.482198
    13  O   -0.443032
    14  O   -0.464620
    15  C   -0.171822
    16  C   -0.218827
    17  C   -0.175594
    18  C    0.155713
    19  C   -0.172033
    20  C   -0.219168
    21  H    0.223494
    22  H    0.223039
    23  H    0.283894
    24  H    0.274607
    25  H    0.221674
    26  N    0.484907
    27  O   -0.465900
    28  O   -0.446626
 Sum of Mulliken charges =  -0.00000

 Dipole moment (field-independent basis, Debye):
    X=             -1.4826    Y=              8.7097    Z=              0.6604  Tot=              8.8597
 Quadrupole moment (field-independent basis, Debye-Ang):
   XX=            -93.1565   YY=           -108.7968   ZZ=           -101.6846
   XY=              2.2595   XZ=             -8.3240   YZ=             -1.4323

 Normal termination of Gaussian 16 at Fri May  7 03:20:13 2021.
