 Gaussian 16, Revision A.03,
 Gaussian 16:  EM64L-G16RevA.03 25-Dec-2016

 -------------
 #p 6-31g* mp2
 -------------

 ------------------------------------------------------
 Input file generated by CHIRIPA (05-May-2021 14:55:19)
 ------------------------------------------------------
 Symbolic Z-matrix:
 Charge =  0 Multiplicity = 1

                         Standard orientation:
 ---------------------------------------------------------------------
 Center     Atomic      Atomic             Coordinates (Angstroms)
 Number     Number       Type             X           Y           Z
 ---------------------------------------------------------------------
      1          6           0       -3.648067   -1.795270   -0.221317
      2          6           0       -2.641263   -1.607604    0.731388
      3          6           0       -2.057866   -0.349641    0.909501
      4          6           0       -2.507462    0.703278    0.114193
      5          6           0       -3.508605    0.548009   -0.843353
      6          6           0       -4.077768   -0.718762   -1.004267
      7          1           0       -4.095735   -2.775907   -0.352999
      8          1           0       -2.305566   -2.441818    1.340846
      9          1           0       -1.276701   -0.176379    1.639692
     10          1           0       -3.822316    1.398728   -1.436043
     11          1           0       -4.859484   -0.861574   -1.744922
     12          7           0       -1.897381    2.039690    0.293648
     13          8           0       -2.311146    2.951160   -0.419555
     14          8           0       -1.016986    2.150395    1.144111
     15          6           0        3.929897   -0.264352    0.220531
     16          6           0        4.737464    0.597003   -0.751007
     17          6           0        5.917737    1.298583   -0.078301
     18          1           0        3.563593    0.366216    1.042206
     19          1           0        4.593399   -1.013922    0.673637
     20          1           0        4.072336    1.343836   -1.203183
     21          1           0        5.101726   -0.035651   -1.570566
     22          1           0        6.604043    0.565471    0.357742
     23          1           0        5.568804    1.952796    0.727213
     24          1           0        6.481236    1.908867   -0.790959
     25          6           0        2.746612   -0.972183   -0.437148
     26          6           0        1.939044   -1.833538    0.534390
     27          6           0        0.758772   -2.535118   -0.138317
     28          1           0        2.083109   -0.222613   -0.890254
     29          1           0        3.112914   -1.602751   -1.258823
     30          1           0        1.574782   -1.200884    1.353950
     31          1           0        2.604172   -2.580371    0.986566
     32          1           0        1.107705   -3.189331   -0.943830
     33          1           0        0.072466   -1.802006   -0.574359
     34          1           0        0.195273   -3.145402    0.574342
 ---------------------------------------------------------------------

 SCF Done:  E(RHF) =  -669.534505100     A.U. after   15 cycles
 E2 =    -0.2092841889D+01 EUMP2 =    -0.67162734698852D+03

 The electronic state is 1-A.
 Alpha  occ. eigenvalues --  -20.60827 -20.60819 -15.85877 -11.31225 -11.27763
 Alpha  occ. eigenvalues --  -11.27755 -11.27491 -11.26791 -11.26757 -11.21776
 Alpha  occ. eigenvalues --  -11.21355 -11.21336 -11.21324 -11.21163 -11.20783
 Alpha  occ. eigenvalues --   -1.59901  -1.39455  -1.19391  -1.08785  -1.08348
 Alpha  occ. eigenvalues --   -1.04795  -1.03495  -0.95958  -0.95620  -0.86983
 Alpha  occ. eigenvalues --   -0.86178  -0.82455  -0.79575  -0.78128  -0.77508
 Alpha  occ. eigenvalues --   -0.72094  -0.71227  -0.70487  -0.65055  -0.64962
 Alpha  occ. eigenvalues --   -0.64785  -0.62167  -0.60885  -0.59356  -0.57559
 Alpha  occ. eigenvalues --   -0.55329  -0.55253  -0.53190  -0.52949  -0.52546
 Alpha  occ. eigenvalues --   -0.52335  -0.49845  -0.48851  -0.48850  -0.47884
 Alpha  occ. eigenvalues --   -0.46590  -0.45681  -0.45567  -0.44862  -0.43744
 Alpha  occ. eigenvalues --   -0.37369  -0.36285
 Alpha virt. eigenvalues --    0.05010   0.11197   0.16490   0.20290   0.23051
 Alpha virt. eigenvalues --    0.24189   0.26181   0.26444   0.27294   0.28375
 Alpha virt. eigenvalues --    0.29065   0.29472   0.31485   0.31636   0.32467

 Mulliken charges:
               1
     1  C   -0.172019
     2  C   -0.212869
     3  C   -0.173746
     4  C    0.158414
     5  C   -0.171677
     6  C   -0.218269
     7  H    0.225842
     8  H    0.224704
     9  H    0.276821
    10  H    0.275496
    11  H    0.223568
    12  N    0.488008
    13  O   -0.460056
    14  O   -0.461209
    15  C   -0.299295
    16  C   -0.300268
    17  C   -0.476065
    18  H    0.154783
    19  H    0.147534
    20  H    0.155775
    21  H    0.150010
    22  H    0.153506
    23  H    0.157748
    24  H    0.160192
    25  C   -0.298379
    26  C   -0.301127
    27  C   -0.479235
    28  H    0.153744
    29  H    0.148542
    30  H    0.150761
    31  H    0.151956
    32  H    0.155908
    33  H    0.163063
    34  H    0.147838
 Sum of Mulliken charges =  -0.00000

 Dipole moment (field-independent basis, Debye):
    X=             -2.1554    Y=             -4.6204    Z=             -0.6656  Tot=              5.1417
 Quadrupole moment (field-independent basis, Debye-Ang):
   XX=            -83.0397   YY=           -101.2890   ZZ=            -92.8639
   XY=              8.5683   XZ=              3.4416   YZ=             -2.4536

 Normal termination of Gaussian 16 at Thu May  6 07:39:49 2021.
