 Gaussian 16, Revision A.03,
 Gaussian 16:  EM64L-G16RevA.03 25-Dec-2016

 -------------
 #p 6-31g* mp2
 -------------

 ------------------------------------------------------
 Input file generated by CHIRIPA (05-May-2021 14:53:11)
 ------------------------------------------------------
 Symbolic Z-matrix:
 Charge =  0 Multiplicity = 1

                         Standard orientation:
 ---------------------------------------------------------------------
 Center     Atomic      Atomic             Coordinates (Angstroms)
 Number     Number       Type             X           Y           Z
 ---------------------------------------------------------------------
      1          6           0       -3.332605    1.304783   -0.134553
      2          6           0       -1.929018    1.889199   -0.296991
      3          6           0       -1.906317    3.413605   -0.180944
      4          1           0       -3.994989    1.741684   -0.894363
      5          1           0       -3.736500    1.605135    0.842203
      6          1           0       -1.527346    1.586684   -1.272573
      7          1           0       -1.269853    1.450713    0.463171
      8          1           0       -2.282193    3.731144    0.797058
      9          1           0       -2.541149    3.867886   -0.948549
     10          1           0       -0.893248    3.810265   -0.300158
     11          6           0       -3.371597   -0.218149   -0.248068
     12          6           0       -4.775184   -0.802565   -0.085630
     13          6           0       -4.797885   -2.326970   -0.201678
     14          1           0       -2.967702   -0.518501   -1.224825
     15          1           0       -2.709213   -0.655049    0.511741
     16          1           0       -5.434349   -0.364079   -0.845793
     17          1           0       -5.176856   -0.500049    0.889952
     18          1           0       -4.163053   -2.781252    0.565927
     19          1           0       -4.422009   -2.644509   -1.179680
     20          1           0       -5.810954   -2.723631   -0.082464
     21          6           0        0.357792   -1.076685    1.059542
     22          6           0        1.236683   -0.321900    1.843359
     23          6           0        2.491983    0.045172    1.349366
     24          6           0        2.837417   -0.361413    0.061478
     25          6           0        1.983814   -1.113871   -0.743790
     26          6           0        0.733500   -1.469570   -0.229259
     27          1           0       -0.615419   -1.357419    1.451263
     28          1           0        0.947575   -0.015380    2.844612
     29          1           0        3.191853    0.629107    1.934701
     30          1           0        2.300169   -1.404666   -1.738162
     31          1           0        0.052982   -2.055787   -0.840232
     32          7           0        4.163708    0.021169   -0.472361
     33          8           0        4.444264   -0.349491   -1.610138
     34          8           0        4.897586    0.684454    0.257101
 ---------------------------------------------------------------------

 SCF Done:  E(RHF) =  -669.534976753     A.U. after   15 cycles
 E2 =    -0.2093074897D+01 EUMP2 =    -0.67162805164930D+03

 The electronic state is 1-A.
 Alpha  occ. eigenvalues --  -20.60765 -20.60760 -15.85820 -11.31188 -11.27772
 Alpha  occ. eigenvalues --  -11.27757 -11.27493 -11.26788 -11.26751 -11.22424
 Alpha  occ. eigenvalues --  -11.22352 -11.22067 -11.22005 -11.21923 -11.21435
 Alpha  occ. eigenvalues --   -1.59841  -1.39395  -1.19369  -1.09188  -1.08758
 Alpha  occ. eigenvalues --   -1.04770  -1.04181  -0.96659  -0.95599  -0.87667
 Alpha  occ. eigenvalues --   -0.86167  -0.82432  -0.80262  -0.79007  -0.77468
 Alpha  occ. eigenvalues --   -0.72038  -0.71165  -0.70508  -0.65820  -0.65021
 Alpha  occ. eigenvalues --   -0.64767  -0.62116  -0.61582  -0.60027  -0.58263
 Alpha  occ. eigenvalues --   -0.56014  -0.55260  -0.53349  -0.53114  -0.53035
 Alpha  occ. eigenvalues --   -0.52859  -0.50603  -0.48798  -0.48793  -0.48566
 Alpha  occ. eigenvalues --   -0.47312  -0.46513  -0.46440  -0.44800  -0.44466
 Alpha  occ. eigenvalues --   -0.37267  -0.36368
 Alpha virt. eigenvalues --    0.05034   0.11205   0.16430   0.19768   0.22832
 Alpha virt. eigenvalues --    0.23636   0.24976   0.26049   0.27287   0.27675
 Alpha virt. eigenvalues --    0.29922   0.30130   0.31078   0.31475   0.31628

 Mulliken charges:
               1
     1  C   -0.298708
     2  C   -0.303073
     3  C   -0.476383
     4  H    0.152636
     5  H    0.149321
     6  H    0.153050
     7  H    0.153493
     8  H    0.153914
     9  H    0.156260
    10  H    0.163676
    11  C   -0.299773
    12  C   -0.299750
    13  C   -0.475834
    14  H    0.149303
    15  H    0.138912
    16  H    0.155928
    17  H    0.153306
    18  H    0.150135
    19  H    0.155223
    20  H    0.164391
    21  C   -0.169607
    22  C   -0.220368
    23  C   -0.170523
    24  C    0.158565
    25  C   -0.171152
    26  C   -0.218298
    27  H    0.228765
    28  H    0.223467
    29  H    0.275658
    30  H    0.275583
    31  H    0.224781
    32  N    0.488049
    33  O   -0.460463
    34  O   -0.460483
 Sum of Mulliken charges =  -0.00000

 Dipole moment (field-independent basis, Debye):
    X=             -4.7454    Y=             -1.2978    Z=              1.8228  Tot=              5.2465
 Quadrupole moment (field-independent basis, Debye-Ang):
   XX=           -121.3693   YY=            -94.3887   ZZ=            -90.0191
   XY=             -1.8230   XZ=              6.4281   YZ=              1.4204

 Normal termination of Gaussian 16 at Wed May  5 16:56:40 2021.
