 Gaussian 16, Revision A.03,
 Gaussian 16:  EM64L-G16RevA.03 25-Dec-2016

 -------------
 #p 6-31g* mp2
 -------------

 ------------------------------------------------------
 Input file generated by CHIRIPA (05-May-2021 14:57:24)
 ------------------------------------------------------
 Symbolic Z-matrix:
 Charge =  0 Multiplicity = 1

                         Standard orientation:
 ---------------------------------------------------------------------
 Center     Atomic      Atomic             Coordinates (Angstroms)
 Number     Number       Type             X           Y           Z
 ---------------------------------------------------------------------
      1          6           0        1.187057   -0.379610    1.009189
      2          6           0        1.597238    0.831091    0.441320
      3          6           0        2.908725    0.992966   -0.015128
      4          6           0        3.787685   -0.081484    0.112449
      5          6           0        3.409095   -1.300095    0.673650
      6          6           0        2.092698   -1.439471    1.123340
      7          1           0        0.166355   -0.496620    1.361144
      8          1           0        0.896065    1.655902    0.351388
      9          1           0        3.252818    1.919345   -0.458795
     10          1           0        4.130818   -2.104293    0.749806
     11          1           0        1.776929   -2.380861    1.563931
     12          7           0        5.178697    0.077976   -0.367195
     13          8           0        5.933847   -0.883826   -0.243408
     14          8           0        5.487483    1.161743   -0.857845
     15          6           0       -4.188014   -2.317922   -0.484054
     16          6           0       -3.032057   -1.816586   -1.091464
     17          6           0       -2.673489   -0.474250   -0.936188
     18          6           0       -3.497564    0.342272   -0.163217
     19          6           0       -4.655509   -0.127560    0.454611
     20          6           0       -4.994628   -1.473297    0.285688
     21          1           0       -4.459004   -3.362003   -0.609978
     22          1           0       -2.403740   -2.470221   -1.689817
     23          1           0       -1.784090   -0.059961   -1.395262
     24          1           0       -5.261942    0.548378    1.045174
     25          1           0       -5.892936   -1.859898    0.758580
     26          7           0       -3.128260    1.765144    0.008391
     27          8           0       -3.871074    2.463932    0.694364
     28          8           0       -2.102977    2.154661   -0.546325
 ---------------------------------------------------------------------

 SCF Done:  E(RHF) =  -868.339580874     A.U. after   16 cycles
 E2 =    -0.2599392919D+01 EUMP2 =    -0.87093897379247D+03

 The electronic state is 1-A.
 Alpha  occ. eigenvalues --  -20.61876 -20.61811 -20.60580 -20.60568 -15.86878
 Alpha  occ. eigenvalues --  -15.85624 -11.32122 -11.30956 -11.28663 -11.28631
 Alpha  occ. eigenvalues --  -11.28341 -11.27629 -11.27608 -11.27541 -11.27418
 Alpha  occ. eigenvalues --  -11.27220 -11.26592 -11.26320  -1.60910  -1.59653
 Alpha  occ. eigenvalues --   -1.40467  -1.39206  -1.20271  -1.19107  -1.09681
 Alpha  occ. eigenvalues --   -1.08512  -1.05639  -1.04479  -0.96536  -0.95358
 Alpha  occ. eigenvalues --   -0.87039  -0.85874  -0.83364  -0.82172  -0.78437
 Alpha  occ. eigenvalues --   -0.77222  -0.73091  -0.72234  -0.71842  -0.71346
 Alpha  occ. eigenvalues --   -0.70976  -0.70219  -0.65911  -0.65616  -0.64746
 Alpha  occ. eigenvalues --   -0.64433  -0.62972  -0.61797  -0.56121  -0.55011
 Alpha  occ. eigenvalues --   -0.53981  -0.53708  -0.52845  -0.52531  -0.49858
 Alpha  occ. eigenvalues --   -0.49832  -0.48602  -0.48595  -0.45889  -0.44619
 Alpha  occ. eigenvalues --   -0.38243  -0.37300  -0.37061  -0.36088
 Alpha virt. eigenvalues --    0.04030   0.05270   0.10358   0.11528   0.15542
 Alpha virt. eigenvalues --    0.16779   0.20589   0.21781   0.26512   0.27171
 Alpha virt. eigenvalues --    0.28058   0.28350   0.30302   0.31223   0.31678

 Mulliken charges:
               1
     1  C   -0.177188
     2  C   -0.226573
     3  C   -0.172424
     4  C    0.158684
     5  C   -0.172829
     6  C   -0.219462
     7  H    0.224262
     8  H    0.244953
     9  H    0.277497
    10  H    0.273771
    11  H    0.219911
    12  N    0.487953
    13  O   -0.462066
    14  O   -0.459522
    15  C   -0.170709
    16  C   -0.219893
    17  C   -0.176888
    18  C    0.155827
    19  C   -0.170848
    20  C   -0.218410
    21  H    0.228686
    22  H    0.227046
    23  H    0.277085
    24  H    0.277621
    25  H    0.226545
    26  N    0.488509
    27  O   -0.454552
    28  O   -0.466985
 Sum of Mulliken charges =  -0.00000

 Dipole moment (field-independent basis, Debye):
    X=             -6.5431    Y=             -5.4890    Z=              1.0537  Tot=              8.6053
 Quadrupole moment (field-independent basis, Debye-Ang):
   XX=           -129.5452   YY=           -104.0436   ZZ=           -103.5588
   XY=             14.3416   XZ=              5.7583   YZ=             -0.4267

 Normal termination of Gaussian 16 at Fri May  7 08:01:37 2021.
