 Gaussian 16, Revision A.03,
 Gaussian 16:  EM64L-G16RevA.03 25-Dec-2016

 -------------
 #p 6-31g* mp2
 -------------

 ------------------------------------------------------
 Input file generated by CHIRIPA (05-May-2021 14:53:13)
 ------------------------------------------------------
 Symbolic Z-matrix:
 Charge =  0 Multiplicity = 1

                         Standard orientation:
 ---------------------------------------------------------------------
 Center     Atomic      Atomic             Coordinates (Angstroms)
 Number     Number       Type             X           Y           Z
 ---------------------------------------------------------------------
      1          6           0       -3.559301   -0.533987    0.079797
      2          6           0       -2.900392   -1.913690    0.064101
      3          6           0       -3.799946   -3.005043    0.645088
      4          1           0       -3.830805   -0.276068    1.112613
      5          1           0       -4.498588   -0.577437   -0.488750
      6          1           0       -1.961936   -1.867306    0.631344
      7          1           0       -2.630251   -2.168272   -0.968772
      8          1           0       -4.731522   -3.080429    0.074926
      9          1           0       -4.059409   -2.777753    1.684135
     10          1           0       -3.309251   -3.983122    0.624108
     11          6           0       -2.672356    0.567554   -0.497839
     12          6           0       -3.331264    1.947256   -0.482143
     13          6           0       -2.431710    3.038609   -1.063129
     14          1           0       -1.733068    0.611003    0.070709
     15          1           0       -2.400851    0.309634   -1.530655
     16          1           0       -3.601405    2.201838    0.550731
     17          1           0       -4.269720    1.900872   -1.049386
     18          1           0       -2.172247    2.811319   -2.102177
     19          1           0       -1.500134    3.113995   -0.492968
     20          1           0       -2.922405    4.016688   -1.042149
     21          6           0        1.631835    2.175233    1.129327
     22          6           0        2.860635    2.112420    0.464027
     23          6           0        3.315207    0.905284   -0.075173
     24          6           0        2.511814   -0.224673    0.069906
     25          6           0        1.282902   -0.194140    0.727274
     26          6           0        0.848271    1.023783    1.258599
     27          1           0        1.286458    3.117156    1.545132
     28          1           0        3.471262    3.005055    0.362126
     29          1           0        4.262420    0.828376   -0.595068
     30          1           0        0.696331   -1.100786    0.812985
     31          1           0       -0.106459    1.069601    1.774772
     32          7           0        2.982493   -1.508324   -0.496753
     33          8           0        2.256019   -2.489614   -0.355543
     34          8           0        4.068975   -1.508852   -1.071380
 ---------------------------------------------------------------------

 SCF Done:  E(RHF) =  -669.534797297     A.U. after   15 cycles
 E2 =    -0.2093393512D+01 EUMP2 =    -0.67162819080903D+03

 The electronic state is 1-A.
 Alpha  occ. eigenvalues --  -20.60784 -20.60779 -15.85838 -11.31227 -11.27798
 Alpha  occ. eigenvalues --  -11.27795 -11.27555 -11.26823 -11.26813 -11.22138
 Alpha  occ. eigenvalues --  -11.21973 -11.21855 -11.21786 -11.21619 -11.21272
 Alpha  occ. eigenvalues --   -1.59859  -1.39411  -1.19409  -1.08903  -1.08793
 Alpha  occ. eigenvalues --   -1.04821  -1.03954  -0.96395  -0.95627  -0.87411
 Alpha  occ. eigenvalues --   -0.86214  -0.82471  -0.80020  -0.78724  -0.77488
 Alpha  occ. eigenvalues --   -0.72057  -0.71181  -0.70512  -0.65628  -0.65058
 Alpha  occ. eigenvalues --   -0.64799  -0.62155  -0.61363  -0.59756  -0.57993
 Alpha  occ. eigenvalues --   -0.55716  -0.55307  -0.53176  -0.53065  -0.52970
 Alpha  occ. eigenvalues --   -0.52744  -0.50345  -0.48820  -0.48809  -0.48320
 Alpha  occ. eigenvalues --   -0.47070  -0.46232  -0.46169  -0.44810  -0.44207
 Alpha  occ. eigenvalues --   -0.37376  -0.36348
 Alpha virt. eigenvalues --    0.04996   0.11130   0.16338   0.19293   0.23073
 Alpha virt. eigenvalues --    0.23135   0.25120   0.26489   0.27083   0.27861
 Alpha virt. eigenvalues --    0.29807   0.31031   0.31167   0.31411   0.31725

 Mulliken charges:
               1
     1  C   -0.298967
     2  C   -0.300380
     3  C   -0.476276
     4  H    0.146572
     5  H    0.152408
     6  H    0.145060
     7  H    0.158529
     8  H    0.156543
     9  H    0.153735
    10  H    0.165200
    11  C   -0.304000
    12  C   -0.300071
    13  C   -0.475536
    14  H    0.146181
    15  H    0.154579
    16  H    0.148356
    17  H    0.155111
    18  H    0.159009
    19  H    0.149108
    20  H    0.160592
    21  C   -0.172481
    22  C   -0.218741
    23  C   -0.170230
    24  C    0.158290
    25  C   -0.172382
    26  C   -0.218473
    27  H    0.226226
    28  H    0.223886
    29  H    0.275874
    30  H    0.281039
    31  H    0.223823
    32  N    0.487699
    33  O   -0.459911
    34  O   -0.460372
 Sum of Mulliken charges =  -0.00000

 Dipole moment (field-independent basis, Debye):
    X=             -1.6754    Y=              4.4382    Z=              1.8882  Tot=              5.1059
 Quadrupole moment (field-independent basis, Debye-Ang):
   XX=            -99.6777   YY=            -96.8819   ZZ=            -93.8851
   XY=             13.9386   XZ=              4.2530   YZ=             -0.4112

 Normal termination of Gaussian 16 at Wed May  5 18:34:43 2021.
