 Gaussian 16, Revision A.03,
 Gaussian 16:  EM64L-G16RevA.03 25-Dec-2016

 -------------
 #p 6-31g* mp2
 -------------

 ------------------------------------------------------
 Input file generated by CHIRIPA (05-May-2021 14:57:26)
 ------------------------------------------------------
 Symbolic Z-matrix:
 Charge =  0 Multiplicity = 1

                         Standard orientation:
 ---------------------------------------------------------------------
 Center     Atomic      Atomic             Coordinates (Angstroms)
 Number     Number       Type             X           Y           Z
 ---------------------------------------------------------------------
      1          6           0       -3.726671   -1.542703    0.993634
      2          6           0       -3.271976   -0.516555    1.828375
      3          6           0       -2.623812    0.600155    1.292287
      4          6           0       -2.446354    0.658347   -0.089166
      5          6           0       -2.888001   -0.347792   -0.947025
      6          6           0       -3.533573   -1.455201   -0.388964
      7          1           0       -4.229173   -2.406578    1.418614
      8          1           0       -3.420557   -0.581829    2.902483
      9          1           0       -2.261764    1.408892    1.915411
     10          1           0       -2.725337   -0.254472   -2.013912
     11          1           0       -3.885643   -2.250619   -1.039657
     12          7           0       -1.761544    1.835635   -0.668329
     13          8           0       -1.617488    1.863051   -1.888629
     14          8           0       -1.381813    2.708685    0.108990
     15          6           0        0.465628   -1.557127   -0.894296
     16          6           0        0.519648   -1.124441    0.434757
     17          6           0        1.674455   -0.517647    0.937519
     18          6           0        2.761620   -0.358667    0.079563
     19          6           0        2.738542   -0.779211   -1.249310
     20          6           0        1.573295   -1.383438   -1.730614
     21          1           0       -0.435510   -2.027503   -1.276520
     22          1           0       -0.339061   -1.258030    1.086539
     23          1           0        1.743405   -0.173363    1.962279
     24          1           0        3.610560   -0.632328   -1.874953
     25          1           0        1.534185   -1.718491   -2.763210
     26          7           0        3.989689    0.282360    0.600455
     27          8           0        4.933962    0.410843   -0.175738
     28          8           0        3.984724    0.644175    1.775063
 ---------------------------------------------------------------------

 SCF Done:  E(RHF) =  -868.335641181     A.U. after   16 cycles
 E2 =    -0.2605357671D+01 EUMP2 =    -0.87094099885177D+03

 The electronic state is 1-A.
 Alpha  occ. eigenvalues --  -20.61447 -20.61437 -20.60420 -20.60415 -15.86505
 Alpha  occ. eigenvalues --  -15.85474 -11.32180 -11.30861 -11.28842 -11.28778
 Alpha  occ. eigenvalues --  -11.28640 -11.27949 -11.27891 -11.27443 -11.27419
 Alpha  occ. eigenvalues --  -11.27185 -11.26465 -11.26407  -1.60503  -1.59491
 Alpha  occ. eigenvalues --   -1.40053  -1.39046  -1.20476  -1.19037  -1.09758
 Alpha  occ. eigenvalues --   -1.08443  -1.05921  -1.04454  -0.96535  -0.95275
 Alpha  occ. eigenvalues --   -0.87253  -0.85861  -0.83362  -0.82111  -0.78352
 Alpha  occ. eigenvalues --   -0.77149  -0.72725  -0.71847  -0.71693  -0.71508
 Alpha  occ. eigenvalues --   -0.70805  -0.70200  -0.66074  -0.65856  -0.64704
 Alpha  occ. eigenvalues --   -0.64525  -0.63214  -0.61847  -0.56334  -0.55038
 Alpha  occ. eigenvalues --   -0.54347  -0.53944  -0.52736  -0.52366  -0.49505
 Alpha  occ. eigenvalues --   -0.49461  -0.48457  -0.48447  -0.45392  -0.44448
 Alpha  occ. eigenvalues --   -0.38684  -0.37615  -0.36784  -0.35936
 Alpha virt. eigenvalues --    0.04131   0.05343   0.10068   0.11581   0.15500
 Alpha virt. eigenvalues --    0.16938   0.20238   0.21960   0.25962   0.27271
 Alpha virt. eigenvalues --    0.27677   0.28925   0.30006   0.31306   0.31771

 Mulliken charges:
               1
     1  C   -0.172541
     2  C   -0.223441
     3  C   -0.178475
     4  C    0.168821
     5  C   -0.178272
     6  C   -0.223968
     7  H    0.230131
     8  H    0.228531
     9  H    0.280452
    10  H    0.276959
    11  H    0.226015
    12  N    0.490102
    13  O   -0.458896
    14  O   -0.455840
    15  C   -0.171625
    16  C   -0.227799
    17  C   -0.170481
    18  C    0.160663
    19  C   -0.169063
    20  C   -0.214532
    21  H    0.218586
    22  H    0.225952
    23  H    0.273590
    24  H    0.275768
    25  H    0.222209
    26  N    0.488531
    27  O   -0.460308
    28  O   -0.461069
 Sum of Mulliken charges =  -0.00000

 Dipole moment (field-independent basis, Debye):
    X=             -6.8818    Y=             -6.1708    Z=              0.2055  Tot=              9.2455
 Quadrupole moment (field-independent basis, Debye-Ang):
   XX=           -116.6503   YY=           -109.2397   ZZ=            -97.3567
   XY=              3.9385   XZ=            -12.2930   YZ=              4.7784

 Normal termination of Gaussian 16 at Fri May  7 05:06:54 2021.
