 Gaussian 16, Revision A.03,
 Gaussian 16:  EM64L-G16RevA.03 25-Dec-2016

 -------------
 #p 6-31g* mp2
 -------------

 ------------------------------------------------------
 Input file generated by CHIRIPA (05-May-2021 14:57:27)
 ------------------------------------------------------
 Symbolic Z-matrix:
 Charge =  0 Multiplicity = 1

                         Standard orientation:
 ---------------------------------------------------------------------
 Center     Atomic      Atomic             Coordinates (Angstroms)
 Number     Number       Type             X           Y           Z
 ---------------------------------------------------------------------
      1          6           0       -5.071646    0.987314   -0.859988
      2          6           0       -5.199380   -0.120839   -0.016068
      3          6           0       -4.065376   -0.750450    0.505636
      4          6           0       -2.813454   -0.243219    0.161112
      5          6           0       -2.653494    0.859044   -0.677172
      6          6           0       -3.801351    1.472863   -1.187270
      7          1           0       -5.957948    1.470277   -1.260753
      8          1           0       -6.184640   -0.500093    0.239810
      9          1           0       -4.135414   -1.609948    1.161209
     10          1           0       -1.657982    1.214233   -0.914266
     11          1           0       -3.699128    2.333301   -1.842435
     12          7           0       -1.605603   -0.901400    0.707273
     13          8           0       -0.513933   -0.435221    0.388570
     14          8           0       -1.773429   -1.871000    1.443716
     15          6           0        2.881927    2.325641    1.173423
     16          6           0        3.111146    2.316966   -0.206398
     17          6           0        3.185419    1.108959   -0.906220
     18          6           0        3.025148   -0.077066   -0.191414
     19          6           0        2.795622   -0.101247    1.183368
     20          6           0        2.725173    1.118634    1.862686
     21          1           0        2.825716    3.268662    1.709098
     22          1           0        3.233261    3.252813   -0.744286
     23          1           0        3.361856    1.073281   -1.974402
     24          1           0        2.677881   -1.050271    1.692200
     25          1           0        2.547054    1.122335    2.934277
     26          7           0        3.101754   -1.362214   -0.921431
     27          8           0        2.957186   -2.393490   -0.268586
     28          8           0        3.304911   -1.313903   -2.132641
 ---------------------------------------------------------------------

 SCF Done:  E(RHF) =  -868.337810587     A.U. after   16 cycles
 E2 =    -0.2600284166D+01 EUMP2 =    -0.87093809475367D+03

 The electronic state is 1-A.
 Alpha  occ. eigenvalues --  -20.60905 -20.60893 -20.59614 -20.59556 -15.85942
 Alpha  occ. eigenvalues --  -15.84641 -11.31287 -11.29945 -11.27861 -11.27846
 Alpha  occ. eigenvalues --  -11.27600 -11.26875 -11.26857 -11.26682 -11.26502
 Alpha  occ. eigenvalues --  -11.26455 -11.25724 -11.25572  -1.59967  -1.58653
 Alpha  occ. eigenvalues --   -1.39524  -1.38211  -1.19459  -1.18172  -1.08860
 Alpha  occ. eigenvalues --   -1.07603  -1.04861  -1.03604  -0.95700  -0.94438
 Alpha  occ. eigenvalues --   -0.86260  -0.85022  -0.82535  -0.81291  -0.77581
 Alpha  occ. eigenvalues --   -0.76307  -0.72193  -0.71281  -0.70887  -0.70570
 Alpha  occ. eigenvalues --   -0.69932  -0.69374  -0.65116  -0.64867  -0.63871
 Alpha  occ. eigenvalues --   -0.63670  -0.62209  -0.60974  -0.55366  -0.54198
 Alpha  occ. eigenvalues --   -0.53190  -0.52956  -0.51899  -0.51744  -0.48928
 Alpha  occ. eigenvalues --   -0.48907  -0.47649  -0.47615  -0.44935  -0.43633
 Alpha  occ. eigenvalues --   -0.37440  -0.36463  -0.36172  -0.35141
 Alpha virt. eigenvalues --    0.04934   0.06286   0.11192   0.12488   0.16442
 Alpha virt. eigenvalues --    0.17722   0.21324   0.22364   0.27228   0.28218
 Alpha virt. eigenvalues --    0.28266   0.29292   0.30876   0.31834   0.32436

 Mulliken charges:
               1
     1  C   -0.170628
     2  C   -0.218566
     3  C   -0.170510
     4  C    0.158278
     5  C   -0.170755
     6  C   -0.218523
     7  H    0.225790
     8  H    0.223908
     9  H    0.276243
    10  H    0.275245
    11  H    0.222902
    12  N    0.491337
    13  O   -0.465173
    14  O   -0.458374
    15  C   -0.171770
    16  C   -0.221706
    17  C   -0.173103
    18  C    0.164526
    19  C   -0.148620
    20  C   -0.218826
    21  H    0.219381
    22  H    0.216051
    23  H    0.270312
    24  H    0.278766
    25  H    0.220058
    26  N    0.489011
    27  O   -0.456572
    28  O   -0.468685
 Sum of Mulliken charges =  -0.00000

 Dipole moment (field-independent basis, Debye):
    X=             -4.7846    Y=              6.5481    Z=              0.8062  Tot=              8.1498
 Quadrupole moment (field-independent basis, Debye-Ang):
   XX=            -82.5935   YY=           -104.7254   ZZ=           -102.6764
   XY=             10.1784   XZ=             10.7819   YZ=             -4.7749

 Normal termination of Gaussian 16 at Thu May  6 21:26:37 2021.
