 Gaussian 16, Revision A.03,
 Gaussian 16:  EM64L-G16RevA.03 25-Dec-2016

 -------------
 #p 6-31g* mp2
 -------------

 ------------------------------------------------------
 Input file generated by CHIRIPA (05-May-2021 14:57:24)
 ------------------------------------------------------
 Symbolic Z-matrix:
 Charge =  0 Multiplicity = 1

                         Standard orientation:
 ---------------------------------------------------------------------
 Center     Atomic      Atomic             Coordinates (Angstroms)
 Number     Number       Type             X           Y           Z
 ---------------------------------------------------------------------
      1          6           0       -2.065179   -2.167792   -0.238836
      2          6           0       -3.431202   -2.261012    0.047190
      3          6           0       -4.222172   -1.110331    0.116819
      4          6           0       -3.611591    0.122895   -0.105975
      5          6           0       -2.253234    0.248444   -0.393014
      6          6           0       -1.481583   -0.915569   -0.457640
      7          1           0       -1.458238   -3.066847   -0.290982
      8          1           0       -3.887124   -3.232173    0.217559
      9          1           0       -5.282035   -1.153669    0.336430
     10          1           0       -1.827137    1.230576   -0.558174
     11          1           0       -0.420956   -0.840151   -0.679963
     12          7           0       -4.438729    1.348126   -0.034910
     13          8           0       -3.876840    2.422755   -0.235136
     14          8           0       -5.633268    1.210634    0.219670
     15          6           0        3.968823    2.551144    0.012704
     16          6           0        4.816970    1.640270   -0.625635
     17          6           0        4.553261    0.268284   -0.574079
     18          6           0        3.427554   -0.159956    0.127836
     19          6           0        2.563581    0.722774    0.774079
     20          6           0        2.846813    2.090301    0.709295
     21          1           0        4.181262    3.615204   -0.032484
     22          1           0        5.689061    1.995308   -1.167346
     23          1           0        5.193154   -0.458764   -1.059215
     24          1           0        1.701860    0.338731    1.306399
     25          1           0        2.186379    2.795404    1.205984
     26          7           0        3.138043   -1.610056    0.189418
     27          8           0        2.139858   -1.961903    0.814294
     28          8           0        3.914790   -2.367340   -0.388356
 ---------------------------------------------------------------------

 SCF Done:  E(RHF) =  -868.339881014     A.U. after   16 cycles
 E2 =    -0.2598963512D+01 EUMP2 =    -0.87093884452566D+03

 The electronic state is 1-A.
 Alpha  occ. eigenvalues --  -20.61759 -20.61702 -20.60619 -20.60604 -15.86753
 Alpha  occ. eigenvalues --  -15.85662 -11.31912 -11.30868 -11.28448 -11.28414
 Alpha  occ. eigenvalues --  -11.28091 -11.27438 -11.27412 -11.27381 -11.27371
 Alpha  occ. eigenvalues --  -11.26977 -11.26345 -11.26291  -1.60799  -1.59693
 Alpha  occ. eigenvalues --   -1.40358  -1.39252  -1.20049  -1.19004  -1.09474
 Alpha  occ. eigenvalues --   -1.08391  -1.05410  -1.04392  -0.96346  -0.95265
 Alpha  occ. eigenvalues --   -0.86814  -0.85767  -0.83179  -0.82118  -0.78267
 Alpha  occ. eigenvalues --   -0.77214  -0.72972  -0.72117  -0.71881  -0.71127
 Alpha  occ. eigenvalues --   -0.71015  -0.70036  -0.65693  -0.65391  -0.64638
 Alpha  occ. eigenvalues --   -0.64352  -0.62756  -0.61744  -0.55887  -0.54776
 Alpha  occ. eigenvalues --   -0.53759  -0.53484  -0.52718  -0.52461  -0.49744
 Alpha  occ. eigenvalues --   -0.49711  -0.48651  -0.48620  -0.45793  -0.44695
 Alpha  occ. eigenvalues --   -0.38003  -0.37012  -0.36913  -0.36011
 Alpha virt. eigenvalues --    0.04213   0.05317   0.10573   0.11653   0.15764
 Alpha virt. eigenvalues --    0.16849   0.20713   0.21980   0.26406   0.27301
 Alpha virt. eigenvalues --    0.28289   0.28830   0.30279   0.31225   0.32330

 Mulliken charges:
               1
     1  C   -0.169728
     2  C   -0.219299
     3  C   -0.171695
     4  C    0.158328
     5  C   -0.174919
     6  C   -0.220064
     7  H    0.236254
     8  H    0.223558
     9  H    0.274205
    10  H    0.269449
    11  H    0.227730
    12  N    0.488324
    13  O   -0.464356
    14  O   -0.460772
    15  C   -0.169859
    16  C   -0.218048
    17  C   -0.170747
    18  C    0.157118
    19  C   -0.177944
    20  C   -0.218729
    21  H    0.229496
    22  H    0.226257
    23  H    0.276755
    24  H    0.275652
    25  H    0.228345
    26  N    0.487596
    27  O   -0.467136
    28  O   -0.455770
 Sum of Mulliken charges =  -0.00000

 Dipole moment (field-independent basis, Debye):
    X=              4.2942    Y=              0.7181    Z=             -0.4794  Tot=              4.3801
 Quadrupole moment (field-independent basis, Debye-Ang):
   XX=           -112.3388   YY=           -106.1105   ZZ=           -104.5234
   XY=             36.1197   XZ=             -3.7642   YZ=              1.1684

 Normal termination of Gaussian 16 at Thu May  6 18:02:07 2021.
