 Gaussian 16, Revision A.03,
 Gaussian 16:  EM64L-G16RevA.03 25-Dec-2016

 -------------
 #p 6-31g* mp2
 -------------

 ------------------------------------------------------
 Input file generated by CHIRIPA (05-May-2021 14:55:21)
 ------------------------------------------------------
 Symbolic Z-matrix:
 Charge =  0 Multiplicity = 1

                         Standard orientation:
 ---------------------------------------------------------------------
 Center     Atomic      Atomic             Coordinates (Angstroms)
 Number     Number       Type             X           Y           Z
 ---------------------------------------------------------------------
      1          6           0        2.777926   -2.538227   -0.653531
      2          6           0        2.905846   -1.471282   -1.548955
      3          6           0        2.678195   -0.158299   -1.126108
      4          6           0        2.322578    0.052430    0.205215
      5          6           0        2.187148   -0.989570    1.121286
      6          6           0        2.419617   -2.294396    0.676387
      7          1           0        2.956642   -3.555015   -0.990574
      8          1           0        3.183986   -1.657665   -2.582369
      9          1           0        2.770184    0.686246   -1.798194
     10          1           0        1.908544   -0.772385    2.145312
     11          1           0        2.319535   -3.121055    1.373999
     12          7           0        2.079024    1.438108    0.664537
     13          8           0        1.766858    1.597261    1.842611
     14          8           0        2.204905    2.338812   -0.162218
     15          6           0       -3.534938   -0.226068    0.179198
     16          6           0       -3.402794   -1.698991   -0.209415
     17          6           0       -4.431259   -2.589176    0.488886
     18          1           0       -3.426310   -0.129573    1.268158
     19          1           0       -4.548268    0.121095   -0.065820
     20          1           0       -2.389575   -2.042897    0.034991
     21          1           0       -3.511558   -1.791969   -1.297597
     22          1           0       -5.448688   -2.273704    0.236068
     23          1           0       -4.320331   -2.526058    1.576228
     24          1           0       -4.318769   -3.637905    0.196697
     25          6           0       -2.513623    0.676491   -0.510752
     26          6           0       -2.645767    2.149415   -0.122139
     27          6           0       -1.617302    3.039599   -0.820440
     28          1           0       -1.500292    0.329328   -0.265733
     29          1           0       -2.622251    0.579996   -1.599712
     30          1           0       -2.537003    2.242392    0.966043
     31          1           0       -3.658985    2.493320   -0.366545
     32          1           0       -1.728230    2.976482   -1.907782
     33          1           0       -0.599873    2.724128   -0.567621
     34          1           0       -1.729792    4.088327   -0.528251
 ---------------------------------------------------------------------

 SCF Done:  E(RHF) =  -669.536271026     A.U. after   15 cycles
 E2 =    -0.2091803743D+01 EUMP2 =    -0.67162807476910D+03

 The electronic state is 1-A.
 Alpha  occ. eigenvalues --  -20.60983 -20.60969 -15.85999 -11.31320 -11.27880
 Alpha  occ. eigenvalues --  -11.27866 -11.27603 -11.26872 -11.26859 -11.21530
 Alpha  occ. eigenvalues --  -11.21135 -11.21062 -11.21000 -11.20889 -11.20023
 Alpha  occ. eigenvalues --   -1.60040  -1.39593  -1.19478  -1.08884  -1.08082
 Alpha  occ. eigenvalues --   -1.04869  -1.03105  -0.95728  -0.95537  -0.86554
 Alpha  occ. eigenvalues --   -0.86270  -0.82559  -0.79198  -0.77870  -0.77615
 Alpha  occ. eigenvalues --   -0.72215  -0.71366  -0.70582  -0.65131  -0.64870
 Alpha  occ. eigenvalues --   -0.64714  -0.62215  -0.60493  -0.58969  -0.57146
 Alpha  occ. eigenvalues --   -0.55373  -0.54822  -0.53201  -0.52959  -0.52221
 Alpha  occ. eigenvalues --   -0.51963  -0.49513  -0.48983  -0.48959  -0.47503
 Alpha  occ. eigenvalues --   -0.46263  -0.45434  -0.45347  -0.44862  -0.43372
 Alpha  occ. eigenvalues --   -0.37451  -0.36466
 Alpha virt. eigenvalues --    0.04878   0.11186   0.16360   0.21321   0.23086
 Alpha virt. eigenvalues --    0.24665   0.26784   0.27247   0.27698   0.28148
 Alpha virt. eigenvalues --    0.28589   0.30799   0.31823   0.32066   0.32445

 Mulliken charges:
               1
     1  C   -0.170238
     2  C   -0.218393
     3  C   -0.170423
     4  C    0.158454
     5  C   -0.171475
     6  C   -0.218649
     7  H    0.226219
     8  H    0.224086
     9  H    0.276420
    10  H    0.275826
    11  H    0.223954
    12  N    0.486690
    13  O   -0.458821
    14  O   -0.457835
    15  C   -0.298046
    16  C   -0.298873
    17  C   -0.475388
    18  H    0.150489
    19  H    0.149470
    20  H    0.148985
    21  H    0.150779
    22  H    0.155942
    23  H    0.154934
    24  H    0.157686
    25  C   -0.296601
    26  C   -0.300483
    27  C   -0.481050
    28  H    0.145054
    29  H    0.147175
    30  H    0.155538
    31  H    0.148322
    32  H    0.148265
    33  H    0.170810
    34  H    0.161178
 Sum of Mulliken charges =  -0.00000

 Dipole moment (field-independent basis, Debye):
    X=              1.0533    Y=             -4.8292    Z=             -1.5705  Tot=              5.1862
 Quadrupole moment (field-independent basis, Debye-Ang):
   XX=            -91.6880   YY=            -95.7432   ZZ=            -90.9157
   XY=            -11.7456   XZ=             -4.1311   YZ=             -2.4857

 Normal termination of Gaussian 16 at Thu May  6 10:52:56 2021.
