 Gaussian 16, Revision A.03,
 Gaussian 16:  EM64L-G16RevA.03 25-Dec-2016

 -------------
 #p 6-31g* mp2
 -------------

 ------------------------------------------------------
 Input file generated by CHIRIPA (05-May-2021 14:57:26)
 ------------------------------------------------------
 Symbolic Z-matrix:
 Charge =  0 Multiplicity = 1

                         Standard orientation:
 ---------------------------------------------------------------------
 Center     Atomic      Atomic             Coordinates (Angstroms)
 Number     Number       Type             X           Y           Z
 ---------------------------------------------------------------------
      1          6           0       -2.353211    2.079815   -0.716912
      2          6           0       -1.923193    0.749024   -0.741438
      3          6           0       -2.777322   -0.280720   -0.335681
      4          6           0       -4.060656    0.057756    0.090673
      5          6           0       -4.518344    1.374010    0.126516
      6          6           0       -3.647132    2.387519   -0.283776
      7          1           0       -1.683068    2.873439   -1.033875
      8          1           0       -0.918856    0.507108   -1.077337
      9          1           0       -2.470227   -1.319484   -0.344605
     10          1           0       -5.525201    1.584074    0.466412
     11          1           0       -3.983795    3.420136   -0.263674
     12          7           0       -4.973926   -1.023794    0.522631
     13          8           0       -6.099746   -0.699348    0.893981
     14          8           0       -4.546635   -2.175481    0.481669
     15          6           0        5.451926    1.574182    0.824335
     16          6           0        4.236926    1.914721    0.220737
     17          6           0        3.374843    0.920074   -0.250470
     18          6           0        3.761084   -0.411010   -0.101059
     19          6           0        4.964940   -0.782142    0.495833
     20          6           0        5.811421    0.229208    0.959717
     21          1           0        6.115552    2.353336    1.187536
     22          1           0        3.955141    2.958419    0.114254
     23          1           0        2.428341    1.155610   -0.721715
     24          1           0        5.218486   -1.831271    0.587824
     25          1           0        6.754388   -0.038205    1.428064
     26          7           0        2.856694   -1.472841   -0.596029
     27          8           0        3.220065   -2.638166   -0.452445
     28          8           0        1.801588   -1.119673   -1.118198
 ---------------------------------------------------------------------

 SCF Done:  E(RHF) =  -868.338895222     A.U. after   16 cycles
 E2 =    -0.2598803281D+01 EUMP2 =    -0.87093769850300D+03

 The electronic state is 1-A.
 Alpha  occ. eigenvalues --  -20.61610 -20.61544 -20.60275 -20.60256 -15.86625
 Alpha  occ. eigenvalues --  -15.85317 -11.31860 -11.30648 -11.28480 -11.28366
 Alpha  occ. eigenvalues --  -11.28104 -11.27421 -11.27353 -11.27255 -11.27101
 Alpha  occ. eigenvalues --  -11.27007 -11.26313 -11.26089  -1.60634  -1.59345
 Alpha  occ. eigenvalues --   -1.40199  -1.38898  -1.20013  -1.18818  -1.09424
 Alpha  occ. eigenvalues --   -1.08241  -1.05405  -1.04188  -0.96287  -0.95078
 Alpha  occ. eigenvalues --   -0.86807  -0.85606  -0.83133  -0.81884  -0.78203
 Alpha  occ. eigenvalues --   -0.76919  -0.72854  -0.71941  -0.71537  -0.71123
 Alpha  occ. eigenvalues --   -0.70668  -0.69969  -0.65675  -0.65407  -0.64467
 Alpha  occ. eigenvalues --   -0.64172  -0.62767  -0.61506  -0.55893  -0.54769
 Alpha  occ. eigenvalues --   -0.53727  -0.53500  -0.52560  -0.52257  -0.49614
 Alpha  occ. eigenvalues --   -0.49567  -0.48298  -0.48287  -0.45629  -0.44309
 Alpha  occ. eigenvalues --   -0.37970  -0.36998  -0.36849  -0.35790
 Alpha virt. eigenvalues --    0.04333   0.05573   0.10659   0.11840   0.15849
 Alpha virt. eigenvalues --    0.17064   0.20151   0.21932   0.25594   0.27057
 Alpha virt. eigenvalues --    0.28673   0.28760   0.30202   0.31186   0.32350

 Mulliken charges:
               1
     1  C   -0.172415
     2  C   -0.227108
     3  C   -0.172422
     4  C    0.158329
     5  C   -0.172429
     6  C   -0.218481
     7  H    0.219125
     8  H    0.240691
     9  H    0.282529
    10  H    0.273618
    11  H    0.220095
    12  N    0.487853
    13  O   -0.462977
    14  O   -0.458448
    15  C   -0.170025
    16  C   -0.217913
    17  C   -0.169327
    18  C    0.159218
    19  C   -0.170045
    20  C   -0.218116
    21  H    0.227742
    22  H    0.223115
    23  H    0.267846
    24  H    0.277758
    25  H    0.226076
    26  N    0.492462
    27  O   -0.453640
    28  O   -0.473113
 Sum of Mulliken charges =  -0.00000

 Dipole moment (field-independent basis, Debye):
    X=              6.8281    Y=              7.3422    Z=              0.2718  Tot=             10.0302
 Quadrupole moment (field-independent basis, Debye-Ang):
   XX=           -102.4216   YY=           -103.4143   ZZ=           -106.4517
   XY=             -7.5214   XZ=             13.6151   YZ=             -1.2232

 Normal termination of Gaussian 16 at Wed May  5 22:49:31 2021.
