 Gaussian 16, Revision A.03,
 Gaussian 16:  EM64L-G16RevA.03 25-Dec-2016

 -------------
 #p 6-31g* mp2
 -------------

 ------------------------------------------------------
 Input file generated by CHIRIPA (05-May-2021 14:57:24)
 ------------------------------------------------------
 Symbolic Z-matrix:
 Charge =  0 Multiplicity = 1

                         Standard orientation:
 ---------------------------------------------------------------------
 Center     Atomic      Atomic             Coordinates (Angstroms)
 Number     Number       Type             X           Y           Z
 ---------------------------------------------------------------------
      1          6           0        0.903510   -0.242018    0.697054
      2          6           0        1.782551    0.368443    1.597690
      3          6           0        3.153916    0.415585    1.329954
      4          6           0        3.614002   -0.160279    0.146741
      5          6           0        2.763412   -0.775668   -0.770365
      6          6           0        1.395878   -0.811122   -0.482020
      7          1           0       -0.160311   -0.274099    0.913042
      8          1           0        1.402990    0.811235    2.514158
      9          1           0        3.856694    0.881855    2.009743
     10          1           0        3.171475   -1.208439   -1.675689
     11          1           0        0.715536   -1.285877   -1.183296
     12          7           0        5.063777   -0.116559   -0.147607
     13          8           0        5.444039   -0.631179   -1.196990
     14          8           0        5.792396    0.431501    0.676638
     15          6           0       -4.657433   -1.891567    0.498833
     16          6           0       -5.066135   -0.629644    0.942723
     17          6           0       -4.363167    0.518089    0.564447
     18          6           0       -3.251086    0.366546   -0.262356
     19          6           0       -2.819053   -0.876921   -0.721080
     20          6           0       -3.537171   -2.010966   -0.330190
     21          1           0       -5.209401   -2.777836    0.797586
     22          1           0       -5.935769   -0.533904    1.586629
     23          1           0       -4.657658    1.507217    0.893562
     24          1           0       -1.948199   -0.940608   -1.362153
     25          1           0       -3.217472   -2.989713   -0.676444
     26          7           0       -2.498866    1.574354   -0.669496
     27          8           0       -1.522465    1.414038   -1.398588
     28          8           0       -2.899920    2.658482   -0.251811
 ---------------------------------------------------------------------

 SCF Done:  E(RHF) =  -868.337122126     A.U. after   16 cycles
 E2 =    -0.2601521029D+01 EUMP2 =    -0.87093864315523D+03

 The electronic state is 1-A.
 Alpha  occ. eigenvalues --  -20.61813 -20.61805 -20.60366 -20.60361 -15.86845
 Alpha  occ. eigenvalues --  -15.85420 -11.32325 -11.30708 -11.28937 -11.28790
 Alpha  occ. eigenvalues --  -11.28513 -11.27878 -11.27803 -11.27305 -11.27286
 Alpha  occ. eigenvalues --  -11.27027 -11.26350 -11.26269  -1.60882  -1.59443
 Alpha  occ. eigenvalues --   -1.40433  -1.38999  -1.20468  -1.18884  -1.09822
 Alpha  occ. eigenvalues --   -1.08294  -1.05866  -1.04295  -0.96650  -0.95143
 Alpha  occ. eigenvalues --   -0.87254  -0.85707  -0.83468  -0.81992  -0.78537
 Alpha  occ. eigenvalues --   -0.77046  -0.73050  -0.72262  -0.71647  -0.71529
 Alpha  occ. eigenvalues --   -0.70763  -0.69995  -0.66092  -0.65844  -0.64554
 Alpha  occ. eigenvalues --   -0.64358  -0.63187  -0.61660  -0.56299  -0.54902
 Alpha  occ. eigenvalues --   -0.54121  -0.53934  -0.52592  -0.52415  -0.49831
 Alpha  occ. eigenvalues --   -0.49808  -0.48399  -0.48396  -0.45795  -0.44423
 Alpha  occ. eigenvalues --   -0.38415  -0.37472  -0.36798  -0.35877
 Alpha virt. eigenvalues --    0.03966   0.05521   0.10048   0.11763   0.15499
 Alpha virt. eigenvalues --    0.17042   0.19361   0.21803   0.24928   0.26870
 Alpha virt. eigenvalues --    0.28215   0.28633   0.30140   0.30670   0.32148

 Mulliken charges:
               1
     1  C   -0.161743
     2  C   -0.218999
     3  C   -0.170220
     4  C    0.158193
     5  C   -0.171127
     6  C   -0.211203
     7  H    0.220148
     8  H    0.222484
     9  H    0.274497
    10  H    0.274056
    11  H    0.213997
    12  N    0.488203
    13  O   -0.461736
    14  O   -0.461423
    15  C   -0.170616
    16  C   -0.217491
    17  C   -0.171033
    18  C    0.155616
    19  C   -0.182721
    20  C   -0.218015
    21  H    0.229843
    22  H    0.227677
    23  H    0.278678
    24  H    0.274704
    25  H    0.226400
    26  N    0.486850
    27  O   -0.459482
    28  O   -0.455535
 Sum of Mulliken charges =  -0.00000

 Dipole moment (field-independent basis, Debye):
    X=             -8.1385    Y=             -4.3162    Z=              2.5039  Tot=              9.5464
 Quadrupole moment (field-independent basis, Debye-Ang):
   XX=           -122.3090   YY=           -105.8596   ZZ=           -101.0276
   XY=             11.9761   XZ=             -2.4497   YZ=              5.5591

 Normal termination of Gaussian 16 at Fri May  7 04:56:39 2021.
