 Gaussian 16, Revision A.03,
 Gaussian 16:  EM64L-G16RevA.03 25-Dec-2016

 -------------
 #p 6-31g* mp2
 -------------

 ------------------------------------------------------
 Input file generated by CHIRIPA (05-May-2021 14:57:24)
 ------------------------------------------------------
 Symbolic Z-matrix:
 Charge =  0 Multiplicity = 1

                         Standard orientation:
 ---------------------------------------------------------------------
 Center     Atomic      Atomic             Coordinates (Angstroms)
 Number     Number       Type             X           Y           Z
 ---------------------------------------------------------------------
      1          6           0       -3.621589    2.494924    0.180422
      2          6           0       -4.419015    1.438934    0.633764
      3          6           0       -4.055838    0.113662    0.376267
      4          6           0       -2.883466   -0.120394   -0.340707
      5          6           0       -2.068019    0.910202   -0.805687
      6          6           0       -2.450700    2.227659   -0.536593
      7          1           0       -3.911289    3.521391    0.384956
      8          1           0       -5.328877    1.643515    1.190847
      9          1           0       -4.654690   -0.722831    0.715491
     10          1           0       -1.166661    0.674859   -1.358485
     11          1           0       -1.829471    3.045764   -0.889895
     12          7           0       -2.488663   -1.519263   -0.619447
     13          8           0       -1.451041   -1.698952   -1.253238
     14          8           0       -3.224312   -2.409520   -0.198854
     15          6           0        1.263325   -1.412130    1.647861
     16          6           0        1.661797   -1.877996    0.390598
     17          6           0        2.594861   -1.164787   -0.367870
     18          6           0        3.111454    0.015714    0.163956
     19          6           0        2.734373    0.505773    1.413333
     20          6           0        1.799941   -0.223827    2.154323
     21          1           0        0.537968   -1.972533    2.230269
     22          1           0        1.246725   -2.800529   -0.005245
     23          1           0        2.920926   -1.502589   -1.344082
     24          1           0        3.165728    1.428747    1.781396
     25          1           0        1.492325    0.140367    3.130428
     26          7           0        4.099972    0.779431   -0.629749
     27          8           0        4.540242    1.816629   -0.138810
     28          8           0        4.415787    0.326375   -1.727764
 ---------------------------------------------------------------------

 SCF Done:  E(RHF) =  -868.339707971     A.U. after   16 cycles
 E2 =    -0.2599691318D+01 EUMP2 =    -0.87093939928929D+03

 The electronic state is 1-A.
 Alpha  occ. eigenvalues --  -20.61498 -20.61486 -20.60542 -20.60526 -15.86516
 Alpha  occ. eigenvalues --  -15.85579 -11.31659 -11.30791 -11.28224 -11.28167
 Alpha  occ. eigenvalues --  -11.27903 -11.27345 -11.27193 -11.27182 -11.27126
 Alpha  occ. eigenvalues --  -11.26939 -11.26374 -11.26099  -1.60567  -1.59618
 Alpha  occ. eigenvalues --   -1.40122  -1.39173  -1.19814  -1.18912  -1.09253
 Alpha  occ. eigenvalues --   -1.08332  -1.05175  -1.04258  -0.96123  -0.95201
 Alpha  occ. eigenvalues --   -0.86583  -0.85659  -0.82959  -0.82019  -0.78030
 Alpha  occ. eigenvalues --   -0.77097  -0.72753  -0.71891  -0.71792  -0.70946
 Alpha  occ. eigenvalues --   -0.70911  -0.69998  -0.65466  -0.65168  -0.64542
 Alpha  occ. eigenvalues --   -0.64214  -0.62517  -0.61591  -0.55685  -0.54755
 Alpha  occ. eigenvalues --   -0.53530  -0.53259  -0.52637  -0.52316  -0.49514
 Alpha  occ. eigenvalues --   -0.49491  -0.48564  -0.48538  -0.45574  -0.44612
 Alpha  occ. eigenvalues --   -0.37792  -0.36899  -0.36758  -0.35824
 Alpha virt. eigenvalues --    0.04445   0.05390   0.10884   0.11808   0.15999
 Alpha virt. eigenvalues --    0.16966   0.21072   0.22019   0.27007   0.27856
 Alpha virt. eigenvalues --    0.28085   0.28799   0.30654   0.31604   0.32132

 Mulliken charges:
               1
     1  C   -0.170445
     2  C   -0.219100
     3  C   -0.172062
     4  C    0.156099
     5  C   -0.169283
     6  C   -0.219373
     7  H    0.227553
     8  H    0.224332
     9  H    0.275011
    10  H    0.278246
    11  H    0.227424
    12  N    0.487287
    13  O   -0.463321
    14  O   -0.461261
    15  C   -0.177450
    16  C   -0.206731
    17  C   -0.175519
    18  C    0.155899
    19  C   -0.175600
    20  C   -0.219050
    21  H    0.227186
    22  H    0.238101
    23  H    0.276387
    24  H    0.271820
    25  H    0.220094
    26  N    0.487642
    27  O   -0.463665
    28  O   -0.460222
 Sum of Mulliken charges =  -0.00000

 Dipole moment (field-independent basis, Debye):
    X=             -5.0855    Y=              2.1162    Z=              3.6695  Tot=              6.6186
 Quadrupole moment (field-independent basis, Debye-Ang):
   XX=           -116.8018   YY=           -103.5804   ZZ=           -101.9350
   XY=            -21.6840   XZ=              3.4761   YZ=             -0.3249

 Normal termination of Gaussian 16 at Wed May  5 21:06:42 2021.
