 Gaussian 16, Revision A.03,
 Gaussian 16:  EM64L-G16RevA.03 25-Dec-2016

 -------------
 #p 6-31g* mp2
 -------------

 ------------------------------------------------------
 Input file generated by CHIRIPA (05-May-2021 14:57:27)
 ------------------------------------------------------
 Symbolic Z-matrix:
 Charge =  0 Multiplicity = 1

                         Standard orientation:
 ---------------------------------------------------------------------
 Center     Atomic      Atomic             Coordinates (Angstroms)
 Number     Number       Type             X           Y           Z
 ---------------------------------------------------------------------
      1          6           0       -1.473242    0.572415    2.391892
      2          6           0       -1.947020   -0.732758    2.222842
      3          6           0       -2.659498   -1.086121    1.073034
      4          6           0       -2.881112   -0.104742    0.108113
      5          6           0       -2.421941    1.204080    0.247527
      6          6           0       -1.711793    1.534972    1.405434
      7          1           0       -0.920677    0.838188    3.288236
      8          1           0       -1.763243   -1.482360    2.987282
      9          1           0       -3.037635   -2.089089    0.916560
     10          1           0       -2.620792    1.929529   -0.531960
     11          1           0       -1.345041    2.549368    1.534037
     12          7           0       -3.634147   -0.466937   -1.113424
     13          8           0       -3.816173    0.416056   -1.948785
     14          8           0       -4.028091   -1.626960   -1.212375
     15          6           0        3.755250   -2.250914    0.003587
     16          6           0        4.552441   -1.113007    0.165375
     17          6           0        4.009971    0.164116   -0.005603
     18          6           0        2.660496    0.267013   -0.339699
     19          6           0        1.840396   -0.847648   -0.507798
     20          6           0        2.404155   -2.114843   -0.331893
     21          1           0        4.184923   -3.239157    0.138320
     22          1           0        5.602028   -1.215659    0.425899
     23          1           0        4.604329    1.061866    0.113557
     24          1           0        0.797375   -0.713477   -0.767646
     25          1           0        1.782656   -2.996793   -0.458179
     26          7           0        2.074938    1.613790   -0.523314
     27          8           0        0.883298    1.677560   -0.817529
     28          8           0        2.818706    2.580123   -0.369537
 ---------------------------------------------------------------------

 SCF Done:  E(RHF) =  -868.338907007     A.U. after   16 cycles
 E2 =    -0.2600827791D+01 EUMP2 =    -0.87093973479827D+03

 The electronic state is 1-A.
 Alpha  occ. eigenvalues --  -20.61252 -20.61230 -20.60467 -20.60432 -15.86268
 Alpha  occ. eigenvalues --  -15.85499 -11.31496 -11.30757 -11.28072 -11.28016
 Alpha  occ. eigenvalues --  -11.27784 -11.27379 -11.27152 -11.27051 -11.27012
 Alpha  occ. eigenvalues --  -11.27007 -11.26403 -11.26126  -1.60316  -1.59534
 Alpha  occ. eigenvalues --   -1.39870  -1.39087  -1.19664  -1.18908  -1.09090
 Alpha  occ. eigenvalues --   -1.08334  -1.05039  -1.04255  -0.95946  -0.95181
 Alpha  occ. eigenvalues --   -0.86444  -0.85676  -0.82784  -0.81991  -0.77840
 Alpha  occ. eigenvalues --   -0.77057  -0.72517  -0.71715  -0.71634  -0.70864
 Alpha  occ. eigenvalues --   -0.70765  -0.70013  -0.65318  -0.65038  -0.64544
 Alpha  occ. eigenvalues --   -0.64253  -0.62381  -0.61594  -0.55555  -0.54799
 Alpha  occ. eigenvalues --   -0.53389  -0.53148  -0.52612  -0.52338  -0.49270
 Alpha  occ. eigenvalues --   -0.49251  -0.48483  -0.48460  -0.45309  -0.44512
 Alpha  occ. eigenvalues --   -0.37654  -0.36937  -0.36630  -0.35756
 Alpha virt. eigenvalues --    0.04622   0.05490   0.11013   0.11800   0.16142
 Alpha virt. eigenvalues --    0.17024   0.21144   0.21919   0.27026   0.27841
 Alpha virt. eigenvalues --    0.27997   0.28768   0.30648   0.31437   0.32062

 Mulliken charges:
               1
     1  C   -0.176246
     2  C   -0.220545
     3  C   -0.178875
     4  C    0.151571
     5  C   -0.159291
     6  C   -0.207465
     7  H    0.223797
     8  H    0.219070
     9  H    0.271149
    10  H    0.280825
    11  H    0.231154
    12  N    0.487579
    13  O   -0.457062
    14  O   -0.465407
    15  C   -0.170621
    16  C   -0.219118
    17  C   -0.171480
    18  C    0.156263
    19  C   -0.169720
    20  C   -0.220031
    21  H    0.226513
    22  H    0.223920
    23  H    0.275264
    24  H    0.278791
    25  H    0.225575
    26  N    0.488569
    27  O   -0.462884
    28  O   -0.461298
 Sum of Mulliken charges =  -0.00000

 Dipole moment (field-independent basis, Debye):
    X=              4.8306    Y=             -3.1827    Z=              4.8533  Tot=              7.5511
 Quadrupole moment (field-independent basis, Debye-Ang):
   XX=           -106.4431   YY=           -102.7150   ZZ=           -105.2414
   XY=            -14.5301   XZ=            -10.0640   YZ=              0.3732

 Normal termination of Gaussian 16 at Thu May  6 06:50:45 2021.
