 Gaussian 16, Revision A.03,
 Gaussian 16:  EM64L-G16RevA.03 25-Dec-2016

 -------------
 #p 6-31g* mp2
 -------------

 ------------------------------------------------------
 Input file generated by CHIRIPA (05-May-2021 14:57:24)
 ------------------------------------------------------
 Symbolic Z-matrix:
 Charge =  0 Multiplicity = 1

                         Standard orientation:
 ---------------------------------------------------------------------
 Center     Atomic      Atomic             Coordinates (Angstroms)
 Number     Number       Type             X           Y           Z
 ---------------------------------------------------------------------
      1          6           0       -3.908894   -2.175069   -0.265203
      2          6           0       -3.027630   -1.774224    0.744360
      3          6           0       -2.587680   -0.449243    0.817964
      4          6           0       -3.051148    0.452584   -0.138695
      5          6           0       -3.929385    0.083793   -1.156528
      6          6           0       -4.356170   -1.246418   -1.210758
      7          1           0       -4.245545   -3.206377   -0.314856
      8          1           0       -2.678620   -2.493260    1.480039
      9          1           0       -1.905622   -0.111938    1.588964
     10          1           0       -4.259913    0.823379   -1.875680
     11          1           0       -5.040591   -1.554891   -1.995906
     12          7           0       -2.592361    1.858050   -0.071029
     13          8           0       -3.015353    2.633298   -0.925842
     14          8           0       -1.818460    2.157794    0.835540
     15          6           0        1.240701   -0.583539    1.786069
     16          6           0        1.520212   -1.550316    0.814607
     17          6           0        2.562834   -1.359985   -0.097127
     18          6           0        3.309099   -0.185891   -0.008337
     19          6           0        3.055177    0.795916    0.948150
     20          6           0        2.007724    0.584432    1.849628
     21          1           0        0.428890   -0.739609    2.490343
     22          1           0        0.926191   -2.458340    0.762892
     23          1           0        2.800894   -2.092032   -0.859263
     24          1           0        3.664810    1.690932    0.974884
     25          1           0        1.792923    1.336963    2.603023
     26          7           0        4.415435    0.026800   -0.968120
     27          8           0        5.058135    1.069746   -0.868944
     28          8           0        4.618931   -0.853466   -1.801402
 ---------------------------------------------------------------------

 SCF Done:  E(RHF) =  -868.336992383     A.U. after   16 cycles
 E2 =    -0.2600669089D+01 EUMP2 =    -0.87093766147231D+03

 The electronic state is 1-A.
 Alpha  occ. eigenvalues --  -20.61349 -20.61327 -20.60637 -20.60621 -15.86398
 Alpha  occ. eigenvalues --  -15.85684 -11.31834 -11.31084 -11.28512 -11.28367
 Alpha  occ. eigenvalues --  -11.28161 -11.27676 -11.27568 -11.27521 -11.27500
 Alpha  occ. eigenvalues --  -11.27378 -11.26799 -11.26615  -1.60407  -1.59704
 Alpha  occ. eigenvalues --   -1.39962  -1.39257  -1.20017  -1.19256  -1.09389
 Alpha  occ. eigenvalues --   -1.08676  -1.05451  -1.04651  -0.96220  -0.95505
 Alpha  occ. eigenvalues --   -0.86838  -0.86066  -0.83065  -0.82326  -0.78109
 Alpha  occ. eigenvalues --   -0.77340  -0.72624  -0.71906  -0.71724  -0.71177
 Alpha  occ. eigenvalues --   -0.71023  -0.70422  -0.65678  -0.65461  -0.64924
 Alpha  occ. eigenvalues --   -0.64672  -0.62814  -0.61994  -0.55947  -0.55260
 Alpha  occ. eigenvalues --   -0.53756  -0.53547  -0.52949  -0.52756  -0.49385
 Alpha  occ. eigenvalues --   -0.49363  -0.48667  -0.48655  -0.45352  -0.44654
 Alpha  occ. eigenvalues --   -0.37983  -0.37391  -0.36923  -0.36206
 Alpha virt. eigenvalues --    0.04427   0.05168   0.10581   0.11422   0.15907
 Alpha virt. eigenvalues --    0.16508   0.19115   0.22117   0.25473   0.26567
 Alpha virt. eigenvalues --    0.27732   0.29807   0.30110   0.31018   0.32804

 Mulliken charges:
               1
     1  C   -0.170151
     2  C   -0.221420
     3  C   -0.169562
     4  C    0.159542
     5  C   -0.169162
     6  C   -0.218243
     7  H    0.227286
     8  H    0.218499
     9  H    0.269097
    10  H    0.278319
    11  H    0.226308
    12  N    0.488615
    13  O   -0.456634
    14  O   -0.463638
    15  C   -0.171019
    16  C   -0.216823
    17  C   -0.171544
    18  C    0.159562
    19  C   -0.170035
    20  C   -0.210561
    21  H    0.215176
    22  H    0.217068
    23  H    0.274340
    24  H    0.277730
    25  H    0.229503
    26  N    0.488055
    27  O   -0.458674
    28  O   -0.461636
 Sum of Mulliken charges =  -0.00000

 Dipole moment (field-independent basis, Debye):
    X=             -5.5632    Y=             -5.4768    Z=              2.9927  Tot=              8.3606
 Quadrupole moment (field-independent basis, Debye-Ang):
   XX=           -119.4314   YY=           -105.6907   ZZ=           -101.5646
   XY=             13.4589   XZ=             15.9535   YZ=              1.4100

 Normal termination of Gaussian 16 at Thu May  6 21:16:05 2021.
