 Gaussian 16, Revision A.03,
 Gaussian 16:  EM64L-G16RevA.03 25-Dec-2016

 -------------
 #p 6-31g* mp2
 -------------

 ------------------------------------------------------
 Input file generated by CHIRIPA (05-May-2021 14:55:21)
 ------------------------------------------------------
 Symbolic Z-matrix:
 Charge =  0 Multiplicity = 1

                         Standard orientation:
 ---------------------------------------------------------------------
 Center     Atomic      Atomic             Coordinates (Angstroms)
 Number     Number       Type             X           Y           Z
 ---------------------------------------------------------------------
      1          6           0       -2.057933   -1.721655    1.871977
      2          6           0       -0.991200   -1.141490    1.177707
      3          6           0       -1.227409   -0.205150    0.166757
      4          6           0       -2.548809    0.129407   -0.125246
      5          6           0       -3.632842   -0.431129    0.548520
      6          6           0       -3.373031   -1.365251    1.555725
      7          1           0       -1.865273   -2.448166    2.655852
      8          1           0        0.031152   -1.416379    1.421178
      9          1           0       -0.420305    0.259434   -0.386563
     10          1           0       -4.641122   -0.137091    0.283318
     11          1           0       -4.203433   -1.814197    2.093243
     12          7           0       -2.811366    1.119495   -1.193511
     13          8           0       -3.984682    1.397342   -1.431771
     14          8           0       -1.838870    1.598930   -1.772330
     15          6           0        3.598966    0.627917    0.231602
     16          6           0        2.705210    1.731889    0.797668
     17          6           0        3.503775    2.894695    1.387558
     18          1           0        4.258853    0.255249    1.026972
     19          1           0        4.252133    1.055090   -0.541892
     20          1           0        2.052958    1.302476    1.568893
     21          1           0        2.047242    2.101839    0.000905
     22          1           0        4.142719    3.349852    0.623894
     23          1           0        4.148469    2.545947    2.200790
     24          1           0        2.845187    3.672499    1.786485
     25          6           0        2.815206   -0.541462   -0.361693
     26          6           0        3.708962   -1.645434   -0.927759
     27          6           0        2.910397   -2.808240   -1.517650
     28          1           0        2.162039   -0.968635    0.411799
     29          1           0        2.155320   -0.168795   -1.157063
     30          1           0        4.366930   -2.015385   -0.130997
     31          1           0        4.361214   -1.216021   -1.698985
     32          1           0        2.265705   -2.459492   -2.330882
     33          1           0        2.271453   -3.263397   -0.753985
     34          1           0        3.568985   -3.586045   -1.916577
 ---------------------------------------------------------------------

 SCF Done:  E(RHF) =  -669.535510775     A.U. after   15 cycles
 E2 =    -0.2092491731D+01 EUMP2 =    -0.67162800250602D+03

 The electronic state is 1-A.
 Alpha  occ. eigenvalues --  -20.60714 -20.60708 -15.85765 -11.31087 -11.27677
 Alpha  occ. eigenvalues --  -11.27617 -11.27417 -11.26687 -11.26643 -11.22233
 Alpha  occ. eigenvalues --  -11.22161 -11.22043 -11.21900 -11.21582 -11.21343
 Alpha  occ. eigenvalues --   -1.59788  -1.39343  -1.19266  -1.09032  -1.08674
 Alpha  occ. eigenvalues --   -1.04662  -1.04014  -0.96475  -0.95511  -0.87484
 Alpha  occ. eigenvalues --   -0.86069  -0.82353  -0.80095  -0.78920  -0.77364
 Alpha  occ. eigenvalues --   -0.71985  -0.71110  -0.70380  -0.65707  -0.64918
 Alpha  occ. eigenvalues --   -0.64644  -0.62030  -0.61395  -0.59839  -0.58082
 Alpha  occ. eigenvalues --   -0.55769  -0.55184  -0.53121  -0.53004  -0.52901
 Alpha  occ. eigenvalues --   -0.52761  -0.50403  -0.48743  -0.48741  -0.48400
 Alpha  occ. eigenvalues --   -0.47126  -0.46376  -0.46297  -0.44757  -0.44310
 Alpha  occ. eigenvalues --   -0.37258  -0.36259
 Alpha virt. eigenvalues --    0.05125   0.11374   0.16588   0.19429   0.22971
 Alpha virt. eigenvalues --    0.23519   0.24323   0.24819   0.27473   0.28448
 Alpha virt. eigenvalues --    0.30414   0.30726   0.31328   0.31494   0.31829

 Mulliken charges:
               1
     1  C   -0.170976
     2  C   -0.225256
     3  C   -0.175715
     4  C    0.158105
     5  C   -0.170396
     6  C   -0.218987
     7  H    0.225364
     8  H    0.228496
     9  H    0.282545
    10  H    0.275197
    11  H    0.222973
    12  N    0.487989
    13  O   -0.460703
    14  O   -0.461249
    15  C   -0.297261
    16  C   -0.304952
    17  C   -0.475885
    18  H    0.150051
    19  H    0.154425
    20  H    0.146600
    21  H    0.159509
    22  H    0.157951
    23  H    0.154519
    24  H    0.163544
    25  C   -0.308135
    26  C   -0.299375
    27  C   -0.476510
    28  H    0.140605
    29  H    0.155365
    30  H    0.152548
    31  H    0.156723
    32  H    0.159386
    33  H    0.150300
    34  H    0.163203
 Sum of Mulliken charges =  -0.00000

 Dipole moment (field-independent basis, Debye):
    X=              1.1299    Y=             -3.4026    Z=              3.6557  Tot=              5.1204
 Quadrupole moment (field-independent basis, Debye-Ang):
   XX=            -94.1790   YY=            -96.7051   ZZ=            -95.6096
   XY=              9.4261   XZ=            -11.2250   YZ=              0.0678

 Normal termination of Gaussian 16 at Wed May  5 22:15:17 2021.
