 Gaussian 16, Revision A.03,
 Gaussian 16:  EM64L-G16RevA.03 25-Dec-2016

 -------------
 #p 6-31g* mp2
 -------------

 ------------------------------------------------------
 Input file generated by CHIRIPA (05-May-2021 14:55:21)
 ------------------------------------------------------
 Symbolic Z-matrix:
 Charge =  0 Multiplicity = 1

                         Standard orientation:
 ---------------------------------------------------------------------
 Center     Atomic      Atomic             Coordinates (Angstroms)
 Number     Number       Type             X           Y           Z
 ---------------------------------------------------------------------
      1          6           0       -2.304529   -1.964695    1.710102
      2          6           0       -1.409507   -0.897291    1.583198
      3          6           0       -1.607074    0.082581    0.605770
      4          6           0       -2.715156   -0.036646   -0.231625
      5          6           0       -3.624677   -1.088193   -0.130085
      6          6           0       -3.407313   -2.056578    0.854564
      7          1           0       -2.143365   -2.721421    2.472196
      8          1           0       -0.552205   -0.823373    2.246233
      9          1           0       -0.929873    0.919460    0.485556
     10          1           0       -4.470164   -1.134900   -0.805649
     11          1           0       -4.104044   -2.884434    0.950816
     12          7           0       -2.934790    0.994620   -1.270206
     13          8           0       -3.918706    0.866803   -1.995610
     14          8           0       -2.118865    1.911215   -1.339177
     15          6           0        4.083443   -0.099741   -0.072879
     16          6           0        3.952606   -1.152025   -1.174499
     17          6           0        5.270073   -1.872048   -1.463711
     18          1           0        4.847590    0.633840   -0.364228
     19          1           0        4.447488   -0.582705    0.844515
     20          1           0        3.587599   -0.667465   -2.089149
     21          1           0        3.188547   -1.883079   -0.880580
     22          1           0        5.635943   -2.381161   -0.566190
     23          1           0        6.037262   -1.158639   -1.781626
     24          1           0        5.153728   -2.619884   -2.254322
     25          6           0        2.774688    0.628665    0.227641
     26          6           0        2.905525    1.680950    1.329260
     27          6           0        1.588058    2.400973    1.618473
     28          1           0        2.410643    1.111629   -0.689753
     29          1           0        2.010542   -0.104916    0.518990
     30          1           0        3.669585    2.412004    1.035342
     31          1           0        3.270533    1.196390    2.243911
     32          1           0        0.820870    1.687564    1.936388
     33          1           0        1.222188    2.910086    0.720952
     34          1           0        1.704403    3.148809    2.409084
 ---------------------------------------------------------------------

 SCF Done:  E(RHF) =  -669.535467883     A.U. after   15 cycles
 E2 =    -0.2092127817D+01 EUMP2 =    -0.67162759569989D+03

 The electronic state is 1-A.
 Alpha  occ. eigenvalues --  -20.60723 -20.60717 -15.85774 -11.31115 -11.27717
 Alpha  occ. eigenvalues --  -11.27640 -11.27469 -11.26728 -11.26717 -11.22058
 Alpha  occ. eigenvalues --  -11.21816 -11.21798 -11.21673 -11.21666 -11.21248
 Alpha  occ. eigenvalues --   -1.59797  -1.39350  -1.19305  -1.08796  -1.08708
 Alpha  occ. eigenvalues --   -1.04714  -1.03895  -0.96357  -0.95540  -0.87375
 Alpha  occ. eigenvalues --   -0.86108  -0.82382  -0.79964  -0.78605  -0.77410
 Alpha  occ. eigenvalues --   -0.71996  -0.71118  -0.70425  -0.65438  -0.64959
 Alpha  occ. eigenvalues --   -0.64722  -0.62137  -0.61248  -0.59706  -0.57954
 Alpha  occ. eigenvalues --   -0.55662  -0.55215  -0.53068  -0.53017  -0.52932
 Alpha  occ. eigenvalues --   -0.52632  -0.50304  -0.48754  -0.48748  -0.48254
 Alpha  occ. eigenvalues --   -0.46983  -0.46137  -0.46039  -0.44760  -0.44137
 Alpha  occ. eigenvalues --   -0.37295  -0.36305
 Alpha virt. eigenvalues --    0.05092   0.11338   0.16523   0.19440   0.22807
 Alpha virt. eigenvalues --    0.23794   0.25428   0.26345   0.27348   0.28103
 Alpha virt. eigenvalues --    0.29139   0.30441   0.31396   0.31606   0.32685

 Mulliken charges:
               1
     1  C   -0.170476
     2  C   -0.223407
     3  C   -0.176154
     4  C    0.158226
     5  C   -0.170112
     6  C   -0.219193
     7  H    0.225324
     8  H    0.223726
     9  H    0.285559
    10  H    0.275411
    11  H    0.223256
    12  N    0.488094
    13  O   -0.460710
    14  O   -0.460807
    15  C   -0.298345
    16  C   -0.300119
    17  C   -0.475960
    18  H    0.152061
    19  H    0.148058
    20  H    0.155449
    21  H    0.150528
    22  H    0.154172
    23  H    0.156306
    24  H    0.161332
    25  C   -0.301654
    26  C   -0.299850
    27  C   -0.482589
    28  H    0.157360
    29  H    0.142016
    30  H    0.156497
    31  H    0.150238
    32  H    0.142479
    33  H    0.167961
    34  H    0.165325
 Sum of Mulliken charges =  -0.00000

 Dipole moment (field-independent basis, Debye):
    X=              0.9127    Y=             -3.5135    Z=              3.5601  Tot=              5.0845
 Quadrupole moment (field-independent basis, Debye-Ang):
   XX=            -96.1435   YY=            -93.3466   ZZ=            -96.3906
   XY=             13.2723   XZ=             -8.8307   YZ=              0.7969

 Normal termination of Gaussian 16 at Thu May  6 20:42:56 2021.
