 Gaussian 16, Revision A.03,
 Gaussian 16:  EM64L-G16RevA.03 25-Dec-2016

 -------------
 #p 6-31g* mp2
 -------------

 ------------------------------------------------------
 Input file generated by CHIRIPA (05-May-2021 14:57:25)
 ------------------------------------------------------
 Symbolic Z-matrix:
 Charge =  0 Multiplicity = 1

                         Standard orientation:
 ---------------------------------------------------------------------
 Center     Atomic      Atomic             Coordinates (Angstroms)
 Number     Number       Type             X           Y           Z
 ---------------------------------------------------------------------
      1          6           0        2.786757    2.362926    0.348324
      2          6           0        2.173034    1.310661    1.035785
      3          6           0        2.654384    0.004104    0.910254
      4          6           0        3.756321   -0.215239    0.085079
      5          6           0        4.389419    0.812106   -0.612803
      6          6           0        3.891044    2.110735   -0.472328
      7          1           0        2.406220    3.374812    0.451644
      8          1           0        1.315272    1.503563    1.673811
      9          1           0        2.198346   -0.829102    1.431038
     10          1           0        5.242814    0.588702   -1.241472
     11          1           0        4.369670    2.925991   -1.007417
     12          7           0        4.274917   -1.594236   -0.055724
     13          8           0        5.247129   -1.761213   -0.788908
     14          8           0        3.699359   -2.482006    0.569764
     15          6           0       -1.320978    0.894856   -0.255145
     16          6           0       -1.537574   -0.486728   -0.226341
     17          6           0       -2.835289   -1.000422   -0.145086
     18          6           0       -3.898027   -0.099711   -0.094087
     19          6           0       -3.714616    1.281928   -0.120970
     20          6           0       -2.408273    1.773227   -0.202461
     21          1           0       -0.309529    1.285207   -0.318358
     22          1           0       -0.695068   -1.171247   -0.267118
     23          1           0       -3.031551   -2.065470   -0.121182
     24          1           0       -4.574507    1.939372   -0.078866
     25          1           0       -2.243056    2.846658   -0.224664
     26          7           0       -5.276427   -0.631681   -0.007941
     27          8           0       -6.195782    0.182883    0.035761
     28          8           0       -5.411362   -1.853130    0.014248
 ---------------------------------------------------------------------

 SCF Done:  E(RHF) =  -868.337080275     A.U. after   16 cycles
 E2 =    -0.2601175248D+01 EUMP2 =    -0.87093825552371D+03

 The electronic state is 1-A.
 Alpha  occ. eigenvalues --  -20.61666 -20.61649 -20.60989 -20.60980 -15.86720
 Alpha  occ. eigenvalues --  -15.86043 -11.32288 -11.31490 -11.28915 -11.28820
 Alpha  occ. eigenvalues --  -11.28659 -11.28088 -11.28041 -11.27952 -11.27864
 Alpha  occ. eigenvalues --  -11.27762 -11.27145 -11.27067  -1.60732  -1.60061
 Alpha  occ. eigenvalues --   -1.40280  -1.39612  -1.20488  -1.19674  -1.09846
 Alpha  occ. eigenvalues --   -1.09060  -1.05913  -1.05086  -0.96637  -0.95880
 Alpha  occ. eigenvalues --   -0.87297  -0.86485  -0.83461  -0.82702  -0.78475
 Alpha  occ. eigenvalues --   -0.77734  -0.72930  -0.72258  -0.72063  -0.71567
 Alpha  occ. eigenvalues --   -0.71386  -0.70818  -0.66125  -0.65883  -0.65323
 Alpha  occ. eigenvalues --   -0.65102  -0.63223  -0.62424  -0.56397  -0.55738
 Alpha  occ. eigenvalues --   -0.54127  -0.53933  -0.53407  -0.53171  -0.49704
 Alpha  occ. eigenvalues --   -0.49676  -0.49026  -0.49008  -0.45641  -0.44998
 Alpha  occ. eigenvalues --   -0.38480  -0.37760  -0.37426  -0.36696
 Alpha virt. eigenvalues --    0.04027   0.04776   0.09975   0.10931   0.15425
 Alpha virt. eigenvalues --    0.16214   0.19891   0.21687   0.25792   0.26422
 Alpha virt. eigenvalues --    0.27801   0.28785   0.29781   0.30545   0.31789

 Mulliken charges:
               1
     1  C   -0.174181
     2  C   -0.230498
     3  C   -0.176033
     4  C    0.160012
     5  C   -0.169185
     6  C   -0.217125
     7  H    0.227602
     8  H    0.228957
     9  H    0.277572
    10  H    0.279577
    11  H    0.227733
    12  N    0.487887
    13  O   -0.456363
    14  O   -0.459342
    15  C   -0.180702
    16  C   -0.224690
    17  C   -0.169968
    18  C    0.158647
    19  C   -0.170288
    20  C   -0.220637
    21  H    0.230329
    22  H    0.227011
    23  H    0.278350
    24  H    0.275963
    25  H    0.220242
    26  N    0.487945
    27  O   -0.460223
    28  O   -0.458591
 Sum of Mulliken charges =  -0.00000

 Dipole moment (field-independent basis, Debye):
    X=              3.3111    Y=              6.6397    Z=              0.1486  Tot=              7.4210
 Quadrupole moment (field-independent basis, Debye-Ang):
   XX=           -152.5549   YY=           -102.8202   ZZ=           -104.0485
   XY=             10.6940   XZ=             -0.2649   YZ=             -0.9882

 Normal termination of Gaussian 16 at Thu May  6 06:44:42 2021.
