 Gaussian 16, Revision A.03,
 Gaussian 16:  EM64L-G16RevA.03 25-Dec-2016

 -------------
 #p 6-31g* mp2
 -------------

 ------------------------------------------------------
 Input file generated by CHIRIPA (05-May-2021 14:53:16)
 ------------------------------------------------------
 Symbolic Z-matrix:
 Charge =  0 Multiplicity = 1

                         Standard orientation:
 ---------------------------------------------------------------------
 Center     Atomic      Atomic             Coordinates (Angstroms)
 Number     Number       Type             X           Y           Z
 ---------------------------------------------------------------------
      1          6           0       -3.651941   -0.125251   -0.152118
      2          6           0       -3.409188   -1.449278    0.573146
      3          6           0       -4.203877   -2.607992   -0.029884
      4          1           0       -4.724713    0.109875   -0.123476
      5          1           0       -3.385609   -0.241468   -1.211814
      6          1           0       -3.674590   -1.330201    1.631446
      7          1           0       -2.336843   -1.681185    0.542940
      8          1           0       -3.932961   -2.755444   -1.080343
      9          1           0       -5.278308   -2.402466    0.014347
     10          1           0       -4.015404   -3.544753    0.503798
     11          6           0       -2.864423    1.042632    0.439144
     12          6           0       -3.107176    2.366659   -0.286121
     13          6           0       -2.312487    3.525373    0.316910
     14          1           0       -3.130755    1.158849    1.498840
     15          1           0       -1.791651    0.807506    0.410501
     16          1           0       -4.179521    2.598566   -0.255915
     17          1           0       -2.841774    2.247582   -1.344420
     18          1           0       -1.238056    3.319848    0.272678
     19          1           0       -2.583403    3.672826    1.367369
     20          1           0       -2.500960    4.462134   -0.216773
     21          6           0        0.580024   -1.905464   -0.442956
     22          6           0        0.491561   -0.566833   -0.838887
     23          6           0        1.574297    0.299410   -0.660409
     24          6           0        2.735465   -0.208783   -0.080136
     25          6           0        2.854357   -1.537417    0.324695
     26          6           0        1.759061   -2.385636    0.136551
     27          1           0       -0.265949   -2.571382   -0.585356
     28          1           0       -0.422842   -0.191170   -1.289207
     29          1           0        1.532947    1.340213   -0.957793
     30          1           0        3.779070   -1.882869    0.770772
     31          1           0        1.830608   -3.424765    0.444995
     32          7           0        3.888357    0.698729    0.113928
     33          8           0        4.900211    0.226505    0.627534
     34          8           0        3.758310    1.865080   -0.251246
 ---------------------------------------------------------------------

 SCF Done:  E(RHF) =  -669.534657264     A.U. after   15 cycles
 E2 =    -0.2093677423D+01 EUMP2 =    -0.67162833468624D+03

 The electronic state is 1-A.
 Alpha  occ. eigenvalues --  -20.60809 -20.60804 -15.85864 -11.31261 -11.27834
 Alpha  occ. eigenvalues --  -11.27824 -11.27556 -11.26842 -11.26827 -11.22568
 Alpha  occ. eigenvalues --  -11.22315 -11.22265 -11.22082 -11.22010 -11.21550
 Alpha  occ. eigenvalues --   -1.59884  -1.39437  -1.19437  -1.09288  -1.08818
 Alpha  occ. eigenvalues --   -1.04845  -1.04324  -0.96756  -0.95655  -0.87762
 Alpha  occ. eigenvalues --   -0.86242  -0.82491  -0.80387  -0.79070  -0.77528
 Alpha  occ. eigenvalues --   -0.72082  -0.71207  -0.70558  -0.66133  -0.65087
 Alpha  occ. eigenvalues --   -0.64698  -0.62175  -0.61741  -0.60125  -0.58354
 Alpha  occ. eigenvalues --   -0.56115  -0.55297  -0.53433  -0.53213  -0.53142
 Alpha  occ. eigenvalues --   -0.52884  -0.50696  -0.48846  -0.48835  -0.48680
 Alpha  occ. eigenvalues --   -0.47448  -0.46574  -0.46544  -0.44835  -0.44570
 Alpha  occ. eigenvalues --   -0.37379  -0.36408
 Alpha virt. eigenvalues --    0.04959   0.11080   0.16289   0.18534   0.22483
 Alpha virt. eigenvalues --    0.23483   0.25414   0.26177   0.27088   0.27607
 Alpha virt. eigenvalues --    0.29915   0.30806   0.31050   0.31247   0.32480

 Mulliken charges:
               1
     1  C   -0.300035
     2  C   -0.304842
     3  C   -0.476907
     4  H    0.154902
     5  H    0.143033
     6  H    0.157595
     7  H    0.146848
     8  H    0.152189
     9  H    0.160158
    10  H    0.160971
    11  C   -0.306534
    12  C   -0.300809
    13  C   -0.475470
    14  H    0.154358
    15  H    0.151053
    16  H    0.154940
    17  H    0.147514
    18  H    0.154366
    19  H    0.158277
    20  H    0.163373
    21  C   -0.173287
    22  C   -0.218881
    23  C   -0.173376
    24  C    0.159130
    25  C   -0.170443
    26  C   -0.219170
    27  H    0.228199
    28  H    0.228851
    29  H    0.276154
    30  H    0.275990
    31  H    0.224048
    32  N    0.488073
    33  O   -0.460143
    34  O   -0.460125
 Sum of Mulliken charges =  -0.00000

 Dipole moment (field-independent basis, Debye):
    X=             -4.1355    Y=             -3.1415    Z=             -0.5807  Tot=              5.2257
 Quadrupole moment (field-independent basis, Debye-Ang):
   XX=           -115.0946   YY=            -91.3656   ZZ=            -94.2710
   XY=            -11.0609   XZ=             -1.3308   YZ=             -1.4793

 Normal termination of Gaussian 16 at Thu May  6 20:27:55 2021.
