 Gaussian 16, Revision A.03,
 Gaussian 16:  EM64L-G16RevA.03 25-Dec-2016

 -------------
 #p 6-31g* mp2
 -------------

 ------------------------------------------------------
 Input file generated by CHIRIPA (05-May-2021 14:53:18)
 ------------------------------------------------------
 Symbolic Z-matrix:
 Charge =  0 Multiplicity = 1

                         Standard orientation:
 ---------------------------------------------------------------------
 Center     Atomic      Atomic             Coordinates (Angstroms)
 Number     Number       Type             X           Y           Z
 ---------------------------------------------------------------------
      1          6           0        3.400291   -0.460920    0.301764
      2          6           0        4.295744   -1.698505    0.234440
      3          6           0        3.576235   -2.973473    0.675525
      4          1           0        3.031286   -0.338621    1.329297
      5          1           0        2.516283   -0.621694   -0.330753
      6          1           0        5.178480   -1.534892    0.865808
      7          1           0        4.662815   -1.817763   -0.793009
      8          1           0        2.705615   -3.164110    0.039695
      9          1           0        3.224211   -2.879632    1.707936
     10          1           0        4.234735   -3.845889    0.619591
     11          6           0        4.105406    0.821574   -0.136129
     12          6           0        3.209952    2.059158   -0.068805
     13          6           0        3.929462    3.334127   -0.509890
     14          1           0        4.989413    0.982347    0.496388
     15          1           0        4.474411    0.699274   -1.163662
     16          1           0        2.842882    2.178416    0.958644
     17          1           0        2.327217    1.895545   -0.700173
     18          1           0        4.281486    3.240285   -1.542301
     19          1           0        4.800081    3.524763    0.125940
     20          1           0        3.270962    4.206542   -0.453956
     21          6           0       -1.567050   -2.180610   -0.649999
     22          6           0       -2.954810   -2.283894   -0.508660
     23          6           0       -3.721059   -1.160342   -0.184564
     24          6           0       -3.063862    0.056313   -0.008117
     25          6           0       -1.682873    0.191290   -0.142056
     26          6           0       -0.936623   -0.945525   -0.466569
     27          1           0       -0.979576   -3.058565   -0.901928
     28          1           0       -3.447098   -3.241794   -0.650531
     29          1           0       -4.796889   -1.212002   -0.069073
     30          1           0       -1.220482    1.159709    0.005515
     31          1           0        0.140975   -0.862346   -0.575699
     32          7           0       -3.864471    1.252789    0.335211
     33          8           0       -3.261549    2.313234    0.485470
     34          8           0       -5.079750    1.107485    0.447550
 ---------------------------------------------------------------------

 SCF Done:  E(RHF) =  -669.535592604     A.U. after   15 cycles
 E2 =    -0.2091374647D+01 EUMP2 =    -0.67162696725080D+03

 The electronic state is 1-A.
 Alpha  occ. eigenvalues --  -20.60715 -20.60710 -15.85767 -11.31121 -11.27691
 Alpha  occ. eigenvalues --  -11.27674 -11.27429 -11.26709 -11.26661 -11.22431
 Alpha  occ. eigenvalues --  -11.22350 -11.22234 -11.22073 -11.21953 -11.21481
 Alpha  occ. eigenvalues --   -1.59791  -1.39344  -1.19291  -1.09215  -1.08689
 Alpha  occ. eigenvalues --   -1.04691  -1.04235  -0.96690  -0.95526  -0.87702
 Alpha  occ. eigenvalues --   -0.86093  -0.82360  -0.80313  -0.79051  -0.77402
 Alpha  occ. eigenvalues --   -0.71986  -0.71113  -0.70403  -0.65875  -0.64942
 Alpha  occ. eigenvalues --   -0.64686  -0.62048  -0.61622  -0.60058  -0.58298
 Alpha  occ. eigenvalues --   -0.55993  -0.55196  -0.53348  -0.53147  -0.53023
 Alpha  occ. eigenvalues --   -0.52765  -0.50628  -0.48756  -0.48742  -0.48612
 Alpha  occ. eigenvalues --   -0.47352  -0.46559  -0.46479  -0.44752  -0.44511
 Alpha  occ. eigenvalues --   -0.37275  -0.36293
 Alpha virt. eigenvalues --    0.05125   0.11354   0.16619   0.18940   0.22766
 Alpha virt. eigenvalues --    0.23393   0.24527   0.26262   0.26798   0.27988
 Alpha virt. eigenvalues --    0.29603   0.30651   0.31033   0.31211   0.31677

 Mulliken charges:
               1
     1  C   -0.304792
     2  C   -0.299682
     3  C   -0.474935
     4  H    0.153204
     5  H    0.142252
     6  H    0.156337
     7  H    0.153524
     8  H    0.146223
     9  H    0.158079
    10  H    0.163966
    11  C   -0.297981
    12  C   -0.300436
    13  C   -0.476342
    14  H    0.153321
    15  H    0.151169
    16  H    0.154498
    17  H    0.146200
    18  H    0.156007
    19  H    0.156947
    20  H    0.164396
    21  C   -0.173613
    22  C   -0.218515
    23  C   -0.171325
    24  C    0.158900
    25  C   -0.174729
    26  C   -0.225830
    27  H    0.225782
    28  H    0.223142
    29  H    0.275312
    30  H    0.276456
    31  H    0.235664
    32  N    0.488080
    33  O   -0.460515
    34  O   -0.460765
 Sum of Mulliken charges =  -0.00000

 Dipole moment (field-independent basis, Debye):
    X=              3.0748    Y=             -4.1501    Z=             -1.1412  Tot=              5.2896
 Quadrupole moment (field-independent basis, Debye-Ang):
   XX=           -107.7950   YY=            -94.7795   ZZ=            -94.7313
   XY=             15.6510   XZ=              4.4033   YZ=              0.4260

 Normal termination of Gaussian 16 at Thu May  6 14:00:20 2021.
