 Gaussian 16, Revision A.03,
 Gaussian 16:  EM64L-G16RevA.03 25-Dec-2016

 -------------
 #p 6-31g* mp2
 -------------

 ------------------------------------------------------
 Input file generated by CHIRIPA (05-May-2021 14:51:11)
 ------------------------------------------------------
 Symbolic Z-matrix:
 Charge =  0 Multiplicity = 1

                         Standard orientation:
 ---------------------------------------------------------------------
 Center     Atomic      Atomic             Coordinates (Angstroms)
 Number     Number       Type             X           Y           Z
 ---------------------------------------------------------------------
      1          6           0        4.620529   -0.496055    0.111740
      2          6           0        5.343615    0.428749   -0.867990
      3          6           0        6.865449    0.345504   -0.745985
      4          1           0        4.922081   -0.241428    1.137010
      5          1           0        4.947209   -1.530644   -0.062329
      6          1           0        5.014632    1.461116   -0.693048
      7          1           0        5.040160    0.172017   -1.891034
      8          1           0        7.212374   -0.674333   -0.941374
      9          1           0        7.186701    0.622090    0.263420
     10          1           0        7.362277    1.014631   -1.455415
     11          6           0        3.098533   -0.424079    0.001859
     12          6           0        2.375447   -1.348882    0.981589
     13          6           0        0.853613   -1.265638    0.859584
     14          1           0        2.771853    0.610510    0.175928
     15          1           0        2.796981   -0.678706   -1.023410
     16          1           0        2.678902   -1.092151    2.004634
     17          1           0        2.704430   -2.381250    0.806647
     18          1           0        0.532361   -1.542224   -0.149821
     19          1           0        0.506688   -0.245801    1.054973
     20          1           0        0.356785   -1.934765    1.569014
     21          6           0       -3.525636    1.147050   -0.057234
     22          6           0       -2.119940    1.138411    0.544372
     23          6           0       -1.465022    2.520009    0.536424
     24          1           0       -3.474194    1.524093   -1.087834
     25          1           0       -4.152514    1.854239    0.503393
     26          1           0       -1.496280    0.430421   -0.016355
     27          1           0       -2.174709    0.761164    1.573596
     28          1           0       -2.063432    3.233318    1.112353
     29          1           0       -1.381148    2.900697   -0.486631
     30          1           0       -0.460928    2.490830    0.970939
     31          6           0       -4.193426   -0.226916   -0.056365
     32          6           0       -5.599121   -0.218277   -0.657971
     33          6           0       -6.254041   -1.599875   -0.650024
     34          1           0       -3.566548   -0.934105   -0.616993
     35          1           0       -4.244868   -0.603960    0.974236
     36          1           0       -5.544353    0.158970   -1.687194
     37          1           0       -6.222783    0.489712   -0.097244
     38          1           0       -6.337914   -1.980563    0.373032
     39          1           0       -5.655630   -2.313184   -1.225952
     40          1           0       -7.258135   -1.570696   -1.084539
 ---------------------------------------------------------------------

 SCF Done:  E(RHF) =  -470.732622317     A.U. after   11 cycles
 E2 =    -0.1583036966D+01 EUMP2 =    -0.47231565928316D+03

 The electronic state is 1-A.
 Alpha  occ. eigenvalues --  -11.21599 -11.21576 -11.21565 -11.21474 -11.21403
 Alpha  occ. eigenvalues --  -11.21347 -11.21344 -11.21287 -11.21069 -11.21068
 Alpha  occ. eigenvalues --  -11.21044 -11.21006  -1.08429  -1.08373  -1.03553
 Alpha  occ. eigenvalues --   -1.03458  -0.96004  -0.95916  -0.87016  -0.86939
 Alpha  occ. eigenvalues --   -0.79721  -0.79436  -0.78282  -0.78134  -0.65060
 Alpha  occ. eigenvalues --   -0.65008  -0.60960  -0.60870  -0.59373  -0.59303
 Alpha  occ. eigenvalues --   -0.57730  -0.57428  -0.55266  -0.55206  -0.52686
 Alpha  occ. eigenvalues --   -0.52639  -0.52405  -0.52361  -0.49926  -0.49871
 Alpha  occ. eigenvalues --   -0.48114  -0.47691  -0.46636  -0.46531  -0.45886
 Alpha  occ. eigenvalues --   -0.45726  -0.45675  -0.45460  -0.43778  -0.43732
 Alpha virt. eigenvalues --    0.21771   0.23011   0.23480   0.24984   0.25859
 Alpha virt. eigenvalues --    0.26366   0.26936   0.27380   0.27938   0.29181
 Alpha virt. eigenvalues --    0.30487   0.31231   0.31559   0.31872   0.32297

 Mulliken charges:
               1
     1  C   -0.298221
     2  C   -0.299649
     3  C   -0.475704
     4  H    0.149643
     5  H    0.149557
     6  H    0.151994
     7  H    0.151867
     8  H    0.155162
     9  H    0.155189
    10  H    0.160253
    11  C   -0.298253
    12  C   -0.300080
    13  C   -0.480259
    14  H    0.149220
    15  H    0.149370
    16  H    0.151686
    17  H    0.151576
    18  H    0.153565
    19  H    0.163667
    20  H    0.160251
    21  C   -0.297833
    22  C   -0.304880
    23  C   -0.477450
    24  H    0.149164
    25  H    0.148885
    26  H    0.159856
    27  H    0.151614
    28  H    0.155397
    29  H    0.155426
    30  H    0.159235
    31  C   -0.298115
    32  C   -0.299602
    33  C   -0.475643
    34  H    0.149587
    35  H    0.149584
    36  H    0.151783
    37  H    0.151825
    38  H    0.155125
    39  H    0.155110
    40  H    0.160097
 Sum of Mulliken charges =  -0.00000

 Dipole moment (field-independent basis, Debye):
    X=              0.0043    Y=             -0.0112    Z=              0.0025  Tot=              0.0123
 Quadrupole moment (field-independent basis, Debye-Ang):
   XX=            -86.4442   YY=            -85.1516   ZZ=            -83.4353
   XY=             -0.6528   XZ=             -0.3980   YZ=              0.6445

 Normal termination of Gaussian 16 at Wed May  5 21:29:27 2021.
