 Gaussian 16, Revision A.03,
 Gaussian 16:  EM64L-G16RevA.03 25-Dec-2016

 -------------
 #p 6-31g* mp2
 -------------

 ------------------------------------------------------
 Input file generated by CHIRIPA (05-May-2021 14:53:17)
 ------------------------------------------------------
 Symbolic Z-matrix:
 Charge =  0 Multiplicity = 1

                         Standard orientation:
 ---------------------------------------------------------------------
 Center     Atomic      Atomic             Coordinates (Angstroms)
 Number     Number       Type             X           Y           Z
 ---------------------------------------------------------------------
      1          6           0        3.007981   -0.210995    0.036866
      2          6           0        4.171648   -1.058169   -0.479041
      3          6           0        3.999473   -2.546715   -0.175103
      4          1           0        2.909568   -0.356260    1.121374
      5          1           0        2.072843   -0.572266   -0.413017
      6          1           0        5.104486   -0.694520   -0.029386
      7          1           0        4.267423   -0.910722   -1.562417
      8          1           0        3.084411   -2.930948   -0.637301
      9          1           0        3.926229   -2.713519    0.904440
     10          1           0        4.842546   -3.133693   -0.552655
     11          6           0        3.165609    1.279347   -0.259383
     12          6           0        2.001942    2.126521    0.256524
     13          6           0        2.174117    3.615067   -0.047415
     14          1           0        4.100747    1.640618    0.190499
     15          1           0        3.264022    1.424613   -1.343891
     16          1           0        1.906166    1.979074    1.339900
     17          1           0        1.069104    1.762872   -0.193131
     18          1           0        2.247361    3.781871   -1.126958
     19          1           0        3.089179    3.999301    0.414784
     20          1           0        1.331044    4.202045    0.330138
     21          6           0       -0.903093   -2.407028    0.449600
     22          6           0       -2.151470   -2.576595   -0.158120
     23          6           0       -2.995511   -1.481280   -0.364100
     24          6           0       -2.557391   -0.224968    0.051859
     25          6           0       -1.319325   -0.023805    0.660147
     26          6           0       -0.491730   -1.133420    0.856078
     27          1           0       -0.253809   -3.263449    0.605707
     28          1           0       -2.473554   -3.564528   -0.474810
     29          1           0       -3.967012   -1.584122   -0.832103
     30          1           0       -1.025805    0.973312    0.965144
     31          1           0        0.477247   -0.998753    1.328300
     32          7           0       -3.442235    0.942162   -0.160884
     33          8           0       -3.032991    2.038595    0.214605
     34          8           0       -4.528264    0.738427   -0.699093
 ---------------------------------------------------------------------

 SCF Done:  E(RHF) =  -669.534395641     A.U. after   15 cycles
 E2 =    -0.2093967761D+01 EUMP2 =    -0.67162836340145D+03

 The electronic state is 1-A.
 Alpha  occ. eigenvalues --  -20.60733 -20.60728 -15.85783 -11.31131 -11.27693
 Alpha  occ. eigenvalues --  -11.27630 -11.27410 -11.26721 -11.26589 -11.22355
 Alpha  occ. eigenvalues --  -11.22220 -11.22194 -11.21993 -11.21946 -11.21328
 Alpha  occ. eigenvalues --   -1.59808  -1.39362  -1.19297  -1.09160  -1.08691
 Alpha  occ. eigenvalues --   -1.04691  -1.04176  -0.96621  -0.95532  -0.87638
 Alpha  occ. eigenvalues --   -0.86090  -0.82377  -0.80280  -0.79090  -0.77358
 Alpha  occ. eigenvalues --   -0.72002  -0.71131  -0.70398  -0.65774  -0.64939
 Alpha  occ. eigenvalues --   -0.64710  -0.62057  -0.61547  -0.59991  -0.58248
 Alpha  occ. eigenvalues --   -0.55910  -0.55193  -0.53298  -0.53195  -0.53020
 Alpha  occ. eigenvalues --   -0.52630  -0.50552  -0.48778  -0.48762  -0.48533
 Alpha  occ. eigenvalues --   -0.47301  -0.46488  -0.46416  -0.44769  -0.44432
 Alpha  occ. eigenvalues --   -0.37270  -0.36229
 Alpha virt. eigenvalues --    0.05067   0.11233   0.16507   0.20469   0.22678
 Alpha virt. eigenvalues --    0.23176   0.24682   0.26164   0.27093   0.27935
 Alpha virt. eigenvalues --    0.29677   0.30448   0.31058   0.31364   0.31908

 Mulliken charges:
               1
     1  C   -0.309598
     2  C   -0.298371
     3  C   -0.477613
     4  H    0.142281
     5  H    0.155705
     6  H    0.154813
     7  H    0.155780
     8  H    0.151322
     9  H    0.152682
    10  H    0.164738
    11  C   -0.296429
    12  C   -0.308767
    13  C   -0.476045
    14  H    0.151823
    15  H    0.153754
    16  H    0.146849
    17  H    0.155756
    18  H    0.158171
    19  H    0.155525
    20  H    0.167194
    21  C   -0.175350
    22  C   -0.218046
    23  C   -0.171418
    24  C    0.158525
    25  C   -0.177307
    26  C   -0.220869
    27  H    0.226408
    28  H    0.223131
    29  H    0.275211
    30  H    0.279273
    31  H    0.234109
    32  N    0.488080
    33  O   -0.460700
    34  O   -0.460619
 Sum of Mulliken charges =  -0.00000

 Dipole moment (field-independent basis, Debye):
    X=              3.2633    Y=             -3.9898    Z=              0.6490  Tot=              5.1951
 Quadrupole moment (field-independent basis, Debye-Ang):
   XX=           -108.1474   YY=            -92.2909   ZZ=            -93.7574
   XY=             12.4666   XZ=             -0.0243   YZ=              1.2635

 Normal termination of Gaussian 16 at Thu May  6 10:39:58 2021.
