 Gaussian 16, Revision A.03,
 Gaussian 16:  EM64L-G16RevA.03 25-Dec-2016

 -------------
 #p 6-31g* mp2
 -------------

 ------------------------------------------------------
 Input file generated by CHIRIPA (05-May-2021 14:55:23)
 ------------------------------------------------------
 Symbolic Z-matrix:
 Charge =  0 Multiplicity = 1

                         Standard orientation:
 ---------------------------------------------------------------------
 Center     Atomic      Atomic             Coordinates (Angstroms)
 Number     Number       Type             X           Y           Z
 ---------------------------------------------------------------------
      1          6           0        3.928607    2.401076    0.594850
      2          6           0        4.697593    1.242528    0.746336
      3          6           0        4.206708    0.004046    0.322376
      4          6           0        2.937017   -0.039585   -0.251445
      5          6           0        2.146815    1.096981   -0.416036
      6          6           0        2.657913    2.324739    0.015169
      7          1           0        4.317789    3.358993    0.927006
      8          1           0        5.684771    1.298813    1.196179
      9          1           0        4.780818   -0.908502    0.427598
     10          1           0        1.166322    1.009273   -0.868094
     11          1           0        2.058484    3.222843   -0.103740
     12          7           0        2.406640   -1.345034   -0.704107
     13          8           0        1.285023   -1.356793   -1.206577
     14          8           0        3.122589   -2.331766   -0.547863
     15          6           0       -3.149158   -0.473622    0.220193
     16          6           0       -2.972576   -1.838665    0.886124
     17          6           0       -1.522513   -2.323128    0.865899
     18          1           0       -2.794564   -0.530635   -0.818054
     19          1           0       -2.509221    0.260412    0.729185
     20          1           0       -3.613697   -2.569609    0.376909
     21          1           0       -3.327809   -1.778446    1.922848
     22          1           0       -0.872676   -1.615830    1.391296
     23          1           0       -1.160188   -2.411488   -0.163428
     24          1           0       -1.419092   -3.300698    1.347063
     25          6           0       -4.593382    0.024165    0.232520
     26          6           0       -4.769963    1.389208   -0.433411
     27          6           0       -6.220026    1.873670   -0.413186
     28          1           0       -5.233317   -0.709868   -0.276472
     29          1           0       -4.947976    0.081179    1.270767
     30          1           0       -4.414731    1.328989   -1.470136
     31          1           0       -4.128842    2.120152    0.075804
     32          1           0       -6.582352    1.962031    0.616141
     33          1           0       -6.869864    1.166373   -0.938582
     34          1           0       -6.323448    2.851242   -0.894350
 ---------------------------------------------------------------------

 SCF Done:  E(RHF) =  -669.535932867     A.U. after   15 cycles
 E2 =    -0.2091145762D+01 EUMP2 =    -0.67162707862892D+03

 The electronic state is 1-A.
 Alpha  occ. eigenvalues --  -20.60859 -20.60836 -15.85883 -11.31231 -11.27797
 Alpha  occ. eigenvalues --  -11.27790 -11.27541 -11.26812 -11.26802 -11.21421
 Alpha  occ. eigenvalues --  -11.21041 -11.20932 -11.20896 -11.20835 -11.19871
 Alpha  occ. eigenvalues --   -1.59908  -1.39465  -1.19402  -1.08802  -1.07983
 Alpha  occ. eigenvalues --   -1.04801  -1.03000  -0.95646  -0.95417  -0.86433
 Alpha  occ. eigenvalues --   -0.86200  -0.82475  -0.79095  -0.77779  -0.77513
 Alpha  occ. eigenvalues --   -0.72114  -0.71221  -0.70510  -0.65058  -0.64805
 Alpha  occ. eigenvalues --   -0.64619  -0.62147  -0.60398  -0.58854  -0.57030
 Alpha  occ. eigenvalues --   -0.55307  -0.54698  -0.53134  -0.52894  -0.52115
 Alpha  occ. eigenvalues --   -0.51836  -0.49383  -0.48862  -0.48848  -0.47398
 Alpha  occ. eigenvalues --   -0.46144  -0.45374  -0.45233  -0.44718  -0.43274
 Alpha  occ. eigenvalues --   -0.37382  -0.36405
 Alpha virt. eigenvalues --    0.04995   0.11243   0.16469   0.21317   0.23243
 Alpha virt. eigenvalues --    0.24780   0.26990   0.27214   0.27679   0.28435
 Alpha virt. eigenvalues --    0.28766   0.30980   0.31926   0.32099   0.32539

 Mulliken charges:
               1
     1  C   -0.170729
     2  C   -0.218599
     3  C   -0.170811
     4  C    0.158229
     5  C   -0.171205
     6  C   -0.218674
     7  H    0.225740
     8  H    0.223585
     9  H    0.275747
    10  H    0.276395
    11  H    0.223718
    12  N    0.489551
    13  O   -0.460296
    14  O   -0.459581
    15  C   -0.297254
    16  C   -0.300315
    17  C   -0.478718
    18  H    0.153381
    19  H    0.143276
    20  H    0.150787
    21  H    0.147195
    22  H    0.146431
    23  H    0.179831
    24  H    0.156895
    25  C   -0.297677
    26  C   -0.298991
    27  C   -0.475303
    28  H    0.150103
    29  H    0.148316
    30  H    0.151820
    31  H    0.148126
    32  H    0.154671
    33  H    0.155890
    34  H    0.158466
 Sum of Mulliken charges =  -0.00000

 Dipole moment (field-independent basis, Debye):
    X=              2.0506    Y=              4.5072    Z=              1.4726  Tot=              5.1660
 Quadrupole moment (field-independent basis, Debye-Ang):
   XX=            -81.9331   YY=            -94.5730   ZZ=            -95.2950
   XY=             12.1855   XZ=              6.1816   YZ=             -1.2547

 Normal termination of Gaussian 16 at Thu May  6 15:57:39 2021.
