 Gaussian 16, Revision A.03,
 Gaussian 16:  EM64L-G16RevA.03 25-Dec-2016

 -------------
 #p 6-31g* mp2
 -------------

 ------------------------------------------------------
 Input file generated by CHIRIPA (05-May-2021 14:57:24)
 ------------------------------------------------------
 Symbolic Z-matrix:
 Charge =  0 Multiplicity = 1

                         Standard orientation:
 ---------------------------------------------------------------------
 Center     Atomic      Atomic             Coordinates (Angstroms)
 Number     Number       Type             X           Y           Z
 ---------------------------------------------------------------------
      1          6           0        0.452640   -2.269688   -0.869669
      2          6           0        0.503458   -2.006482    0.503161
      3          6           0        1.439426   -1.105216    1.019138
      4          6           0        2.313395   -0.482145    0.129616
      5          6           0        2.287585   -0.723452   -1.243117
      6          6           0        1.343295   -1.628463   -1.736897
      7          1           0       -0.277675   -2.971268   -1.261871
      8          1           0       -0.186996   -2.503004    1.179019
      9          1           0        1.500669   -0.882980    2.077571
     10          1           0        2.988936   -0.213099   -1.892012
     11          1           0        1.306125   -1.830937   -2.803512
     12          7           0        3.308668    0.473967    0.664109
     13          8           0        4.067600    1.009895   -0.140527
     14          8           0        3.310984    0.669336    1.877559
     15          6           0       -3.392848   -1.321532    0.944955
     16          6           0       -3.020243   -0.247405    1.759781
     17          6           0       -2.330973    0.844549    1.223973
     18          6           0       -2.029147    0.829332   -0.136894
     19          6           0       -2.386746   -0.225950   -0.974626
     20          6           0       -3.075470   -1.307400   -0.417246
     21          1           0       -3.928077   -2.165708    1.369562
     22          1           0       -3.265393   -0.255670    2.818023
     23          1           0       -2.030484    1.689247    1.831929
     24          1           0       -2.128350   -0.189159   -2.025957
     25          1           0       -3.363579   -2.140203   -1.052446
     26          7           0       -1.299737    1.979774   -0.715549
     27          8           0       -1.045664    1.942262   -1.917496
     28          8           0       -0.995910    2.897220    0.043805
 ---------------------------------------------------------------------

 SCF Done:  E(RHF) =  -868.335684738     A.U. after   16 cycles
 E2 =    -0.2605141693D+01 EUMP2 =    -0.87094082643100D+03

 The electronic state is 1-A.
 Alpha  occ. eigenvalues --  -20.61065 -20.61039 -20.60455 -20.60436 -15.86117
 Alpha  occ. eigenvalues --  -15.85511 -11.31660 -11.31015 -11.28339 -11.28284
 Alpha  occ. eigenvalues --  -11.28149 -11.27628 -11.27571 -11.27449 -11.27415
 Alpha  occ. eigenvalues --  -11.27353 -11.26675 -11.26653  -1.60124  -1.59515
 Alpha  occ. eigenvalues --   -1.39674  -1.39068  -1.19918  -1.19215  -1.09275
 Alpha  occ. eigenvalues --   -1.08608  -1.05360  -1.04634  -0.96067  -0.95412
 Alpha  occ. eigenvalues --   -0.86745  -0.86037  -0.82908  -0.82231  -0.77900
 Alpha  occ. eigenvalues --   -0.77240  -0.72336  -0.71733  -0.71456  -0.71040
 Alpha  occ. eigenvalues --   -0.70828  -0.70385  -0.65570  -0.65376  -0.64875
 Alpha  occ. eigenvalues --   -0.64660  -0.62699  -0.61983  -0.55872  -0.55213
 Alpha  occ. eigenvalues --   -0.54184  -0.53456  -0.52759  -0.52452  -0.49108
 Alpha  occ. eigenvalues --   -0.49075  -0.48502  -0.48471  -0.45040  -0.44444
 Alpha  occ. eigenvalues --   -0.37959  -0.37874  -0.36254  -0.36174
 Alpha virt. eigenvalues --    0.04541   0.05383   0.10627   0.11392   0.15824
 Alpha virt. eigenvalues --    0.16962   0.20208   0.21772   0.26011   0.27173
 Alpha virt. eigenvalues --    0.27858   0.28704   0.29997   0.31411   0.32107

 Mulliken charges:
               1
     1  C   -0.172043
     2  C   -0.211879
     3  C   -0.174423
     4  C    0.157798
     5  C   -0.165196
     6  C   -0.218724
     7  H    0.216973
     8  H    0.218790
     9  H    0.273517
    10  H    0.279007
    11  H    0.223122
    12  N    0.489549
    13  O   -0.457084
    14  O   -0.461828
    15  C   -0.175900
    16  C   -0.221521
    17  C   -0.170556
    18  C    0.163520
    19  C   -0.163608
    20  C   -0.224405
    21  H    0.225444
    22  H    0.225419
    23  H    0.279965
    24  H    0.273687
    25  H    0.219442
    26  N    0.487622
    27  O   -0.461184
    28  O   -0.455504
 Sum of Mulliken charges =  -0.00000

 Dipole moment (field-independent basis, Debye):
    X=             -5.9647    Y=             -7.0988    Z=              0.1253  Tot=              9.2729
 Quadrupole moment (field-independent basis, Debye-Ang):
   XX=           -111.4035   YY=           -108.8220   ZZ=            -97.7597
   XY=              0.2559   XZ=            -10.7319   YZ=              4.2198

 Normal termination of Gaussian 16 at Thu May  6 19:40:47 2021.
