 Gaussian 16, Revision A.03,
 Gaussian 16:  EM64L-G16RevA.03 25-Dec-2016

 -------------
 #p 6-31g* mp2
 -------------

 ------------------------------------------------------
 Input file generated by CHIRIPA (05-May-2021 14:55:20)
 ------------------------------------------------------
 Symbolic Z-matrix:
 Charge =  0 Multiplicity = 1

                         Standard orientation:
 ---------------------------------------------------------------------
 Center     Atomic      Atomic             Coordinates (Angstroms)
 Number     Number       Type             X           Y           Z
 ---------------------------------------------------------------------
      1          6           0        3.147225    2.671525    0.355111
      2          6           0        3.923764    1.658327    0.926896
      3          6           0        3.667885    0.315816    0.632384
      4          6           0        2.622944    0.021072   -0.241981
      5          6           0        1.831522    1.007972   -0.827618
      6          6           0        2.105419    2.343692   -0.518780
      7          1           0        3.352996    3.711782    0.589459
      8          1           0        4.733489    1.909978    1.605912
      9          1           0        4.253405   -0.488487    1.060963
     10          1           0        1.031135    0.726040   -1.500904
     11          1           0        1.500708    3.128466   -0.964312
     12          7           0        2.342518   -1.396589   -0.561351
     13          8           0        1.416193   -1.630024   -1.334699
     14          8           0        3.054356   -2.247474   -0.032277
     15          6           0       -2.872611   -0.614990    0.694133
     16          6           0       -2.098269   -1.765933    0.050929
     17          6           0       -1.013583   -2.333461    0.966988
     18          1           0       -2.169363    0.182687    0.969994
     19          1           0       -3.328779   -0.966893    1.629799
     20          1           0       -1.644845   -1.412341   -0.883948
     21          1           0       -2.803467   -2.560881   -0.223606
     22          1           0       -1.452952   -2.712671    1.895296
     23          1           0       -0.287746   -1.557605    1.231202
     24          1           0       -0.472488   -3.155064    0.487359
     25          6           0       -3.960441   -0.037094   -0.209410
     26          6           0       -4.734784    1.113849    0.433793
     27          6           0       -5.819469    1.681378   -0.482265
     28          1           0       -3.504273    0.314809   -1.145075
     29          1           0       -4.663689   -0.834770   -0.485270
     30          1           0       -4.029586    1.908797    0.708329
     31          1           0       -5.188208    0.760258    1.368670
     32          1           0       -6.545305    0.905521   -0.746479
     33          1           0       -5.380101    2.060587   -1.410573
     34          1           0       -6.360564    2.502981   -0.002636
 ---------------------------------------------------------------------

 SCF Done:  E(RHF) =  -669.535933571     A.U. after   15 cycles
 E2 =    -0.2092393037D+01 EUMP2 =    -0.67162832660865D+03

 The electronic state is 1-A.
 Alpha  occ. eigenvalues --  -20.60915 -20.60909 -15.85930 -11.31291 -11.27858
 Alpha  occ. eigenvalues --  -11.27845 -11.27589 -11.26863 -11.26852 -11.21475
 Alpha  occ. eigenvalues --  -11.21115 -11.21003 -11.20925 -11.20736 -11.20036
 Alpha  occ. eigenvalues --   -1.59964  -1.39522  -1.19456  -1.08854  -1.08026
 Alpha  occ. eigenvalues --   -1.04855  -1.03027  -0.95701  -0.95476  -0.86511
 Alpha  occ. eigenvalues --   -0.86254  -0.82526  -0.79136  -0.77801  -0.77572
 Alpha  occ. eigenvalues --   -0.72166  -0.71293  -0.70562  -0.65115  -0.64859
 Alpha  occ. eigenvalues --   -0.64665  -0.62203  -0.60427  -0.58882  -0.57053
 Alpha  occ. eigenvalues --   -0.55357  -0.54805  -0.53186  -0.52947  -0.52128
 Alpha  occ. eigenvalues --   -0.51914  -0.49492  -0.48928  -0.48906  -0.47424
 Alpha  occ. eigenvalues --   -0.46202  -0.45354  -0.45248  -0.44865  -0.43277
 Alpha  occ. eigenvalues --   -0.37431  -0.36456
 Alpha virt. eigenvalues --    0.04918   0.11174   0.16389   0.21110   0.23061
 Alpha virt. eigenvalues --    0.24565   0.26574   0.27337   0.27663   0.28369
 Alpha virt. eigenvalues --    0.28607   0.30693   0.31671   0.31889   0.32883

 Mulliken charges:
               1
     1  C   -0.170557
     2  C   -0.218511
     3  C   -0.170881
     4  C    0.157622
     5  C   -0.171489
     6  C   -0.218560
     7  H    0.226045
     8  H    0.223909
     9  H    0.276078
    10  H    0.275722
    11  H    0.223810
    12  N    0.490085
    13  O   -0.459229
    14  O   -0.458875
    15  C   -0.297813
    16  C   -0.302234
    17  C   -0.470731
    18  H    0.143857
    19  H    0.148266
    20  H    0.160527
    21  H    0.150008
    22  H    0.147309
    23  H    0.142419
    24  H    0.178164
    25  C   -0.297153
    26  C   -0.298727
    27  C   -0.475225
    28  H    0.146344
    29  H    0.150692
    30  H    0.148331
    31  H    0.152280
    32  H    0.156114
    33  H    0.153486
    34  H    0.158916
 Sum of Mulliken charges =  -0.00000

 Dipole moment (field-independent basis, Debye):
    X=              1.1934    Y=              4.8631    Z=              1.0289  Tot=              5.1120
 Quadrupole moment (field-independent basis, Debye-Ang):
   XX=            -87.6393   YY=            -94.1539   ZZ=            -94.4524
   XY=             13.1385   XZ=              4.8795   YZ=             -1.9372

 Normal termination of Gaussian 16 at Wed May  5 17:25:39 2021.
