 Gaussian 16, Revision A.03,
 Gaussian 16:  EM64L-G16RevA.03 25-Dec-2016

 -------------
 #p 6-31g* mp2
 -------------

 ------------------------------------------------------
 Input file generated by CHIRIPA (05-May-2021 14:51:11)
 ------------------------------------------------------
 Symbolic Z-matrix:
 Charge =  0 Multiplicity = 1

                         Standard orientation:
 ---------------------------------------------------------------------
 Center     Atomic      Atomic             Coordinates (Angstroms)
 Number     Number       Type             X           Y           Z
 ---------------------------------------------------------------------
      1          6           0        2.958081   -0.286903    0.527459
      2          6           0        2.532800   -1.617171   -0.095041
      3          6           0        2.788417   -2.809818    0.826939
      4          1           0        4.025795   -0.333185    0.781996
      5          1           0        2.417270   -0.143042    1.473092
      6          1           0        3.073226   -1.757828   -1.039907
      7          1           0        1.466019   -1.567648   -0.348302
      8          1           0        2.236693   -2.696221    1.765713
      9          1           0        3.853031   -2.887481    1.070179
     10          1           0        2.477102   -3.750522    0.362161
     11          6           0        2.708832    0.914802   -0.382217
     12          6           0        3.134113    2.245071    0.240283
     13          6           0        2.878496    3.437717   -0.681697
     14          1           0        3.249643    0.770941   -1.327850
     15          1           0        1.641117    0.961084   -0.636754
     16          1           0        4.200894    2.195548    0.493544
     17          1           0        2.593687    2.385728    1.185149
     18          1           0        1.813882    3.515381   -0.924936
     19          1           0        3.430220    3.324120   -1.620471
     20          1           0        3.189810    4.378421   -0.216918
     21          6           0       -3.478068    0.076647    0.051243
     22          6           0       -3.247720    1.571573    0.275118
     23          6           0       -4.546717    2.339468    0.521570
     24          1           0       -4.154152   -0.059667   -0.803904
     25          1           0       -3.992772   -0.343073    0.926634
     26          1           0       -2.732369    1.988069   -0.599846
     27          1           0       -2.571954    1.704339    1.129711
     28          1           0       -5.061777    1.951304    1.406240
     29          1           0       -5.223102    2.236646   -0.333142
     30          1           0       -4.358828    3.406114    0.679123
     31          6           0       -2.188845   -0.704546   -0.196485
     32          6           0       -2.419193   -2.199472   -0.420360
     33          6           0       -1.120195   -2.967367   -0.666811
     34          1           0       -1.674141   -0.284826   -1.071876
     35          1           0       -1.512762   -0.568232    0.658661
     36          1           0       -3.094959   -2.332238   -1.274953
     37          1           0       -2.934544   -2.615968    0.454603
     38          1           0       -0.443811   -2.864544    0.187900
     39          1           0       -0.605137   -2.579202   -1.551483
     40          1           0       -1.308085   -4.034013   -0.824366
 ---------------------------------------------------------------------

 SCF Done:  E(RHF) =  -470.732684616     A.U. after   11 cycles
 E2 =    -0.1583676659D+01 EUMP2 =    -0.47231636127497D+03

 The electronic state is 1-A.
 Alpha  occ. eigenvalues --  -11.21664 -11.21659 -11.21556 -11.21489 -11.21424
 Alpha  occ. eigenvalues --  -11.21413 -11.21330 -11.21267 -11.21115 -11.21086
 Alpha  occ. eigenvalues --  -11.21037 -11.21005  -1.08505  -1.08350  -1.03608
 Alpha  occ. eigenvalues --   -1.03442  -0.96060  -0.95900  -0.87062  -0.86932
 Alpha  occ. eigenvalues --   -0.79719  -0.79473  -0.78356  -0.78124  -0.65145
 Alpha  occ. eigenvalues --   -0.64985  -0.61062  -0.60832  -0.59420  -0.59278
 Alpha  occ. eigenvalues --   -0.57743  -0.57433  -0.55390  -0.55149  -0.52730
 Alpha  occ. eigenvalues --   -0.52617  -0.52449  -0.52338  -0.49988  -0.49849
 Alpha  occ. eigenvalues --   -0.48164  -0.47721  -0.46690  -0.46518  -0.46035
 Alpha  occ. eigenvalues --   -0.45780  -0.45679  -0.45341  -0.43848  -0.43705
 Alpha virt. eigenvalues --    0.21053   0.23132   0.23604   0.24558   0.25892
 Alpha virt. eigenvalues --    0.26508   0.26949   0.27445   0.28360   0.29467
 Alpha virt. eigenvalues --    0.30871   0.31411   0.31685   0.31812   0.32319

 Mulliken charges:
               1
     1  C   -0.297184
     2  C   -0.308236
     3  C   -0.476273
     4  H    0.149033
     5  H    0.148274
     6  H    0.150814
     7  H    0.162312
     8  H    0.153364
     9  H    0.155062
    10  H    0.161301
    11  C   -0.299060
    12  C   -0.299423
    13  C   -0.475711
    14  H    0.149159
    15  H    0.150542
    16  H    0.151805
    17  H    0.151721
    18  H    0.155202
    19  H    0.154990
    20  H    0.160058
    21  C   -0.298189
    22  C   -0.299737
    23  C   -0.475757
    24  H    0.150079
    25  H    0.149844
    26  H    0.151826
    27  H    0.151742
    28  H    0.155316
    29  H    0.155372
    30  H    0.160478
    31  C   -0.299829
    32  C   -0.299722
    33  C   -0.481193
    34  H    0.149815
    35  H    0.149312
    36  H    0.152165
    37  H    0.152087
    38  H    0.161190
    39  H    0.156770
    40  H    0.160679
 Sum of Mulliken charges =  -0.00000

 Dipole moment (field-independent basis, Debye):
    X=             -0.0668    Y=             -0.0293    Z=             -0.0195  Tot=              0.0755
 Quadrupole moment (field-independent basis, Debye-Ang):
   XX=            -84.7438   YY=            -86.1184   ZZ=            -83.9648
   XY=              0.5914   XZ=             -0.2237   YZ=              0.3125

 Normal termination of Gaussian 16 at Wed May  5 21:26:54 2021.
