 Gaussian 16, Revision A.03,
 Gaussian 16:  EM64L-G16RevA.03 25-Dec-2016

 -------------
 #p 6-31g* mp2
 -------------

 ------------------------------------------------------
 Input file generated by CHIRIPA (05-May-2021 14:53:13)
 ------------------------------------------------------
 Symbolic Z-matrix:
 Charge =  0 Multiplicity = 1

                         Standard orientation:
 ---------------------------------------------------------------------
 Center     Atomic      Atomic             Coordinates (Angstroms)
 Number     Number       Type             X           Y           Z
 ---------------------------------------------------------------------
      1          6           0        4.541309   -0.124558    0.165190
      2          6           0        5.086737    0.654246   -1.032289
      3          6           0        6.578481    0.964830   -0.905670
      4          1           0        4.720505    0.452888    1.082464
      5          1           0        5.104307   -1.062218    0.271125
      6          1           0        4.521960    1.589515   -1.136768
      7          1           0        4.906051    0.074966   -1.946840
      8          1           0        7.158957    0.040145   -0.824397
      9          1           0        6.772684    1.563299   -0.009723
     10          1           0        6.947532    1.522001   -1.772400
     11          6           0        3.051317   -0.442558    0.053266
     12          6           0        2.505889   -1.221362    1.250746
     13          6           0        1.014145   -1.531946    1.124127
     14          1           0        2.488319    0.495102   -0.052668
     15          1           0        2.872122   -1.020004   -0.864007
     16          1           0        2.686575   -0.642082    2.165296
     17          1           0        3.070666   -2.156631    1.355225
     18          1           0        0.819942   -2.130415    0.228180
     19          1           0        0.433669   -0.607260    1.042854
     20          1           0        0.645094   -2.089117    1.990857
     21          6           0       -2.669990    2.593974    0.720821
     22          6           0       -2.144044    1.531630    1.463334
     23          6           0       -2.301961    0.213089    1.026229
     24          6           0       -2.994474   -0.007830   -0.163271
     25          6           0       -3.530081    1.029370   -0.925263
     26          6           0       -3.360114    2.339902   -0.469010
     27          1           0       -2.542636    3.615137    1.067812
     28          1           0       -1.607629    1.725965    2.387747
     29          1           0       -1.905020   -0.628084    1.581462
     30          1           0       -4.060005    0.804246   -1.842823
     31          1           0       -3.769643    3.162968   -1.047709
     32          7           0       -3.168033   -1.399470   -0.636150
     33          8           0       -3.782191   -1.567589   -1.687427
     34          8           0       -2.686623   -2.295768    0.053438
 ---------------------------------------------------------------------

 SCF Done:  E(RHF) =  -669.534942763     A.U. after   15 cycles
 E2 =    -0.2092142857D+01 EUMP2 =    -0.67162708562019D+03

 The electronic state is 1-A.
 Alpha  occ. eigenvalues --  -20.60755 -20.60742 -15.85797 -11.31160 -11.27759
 Alpha  occ. eigenvalues --  -11.27698 -11.27508 -11.26767 -11.26757 -11.21657
 Alpha  occ. eigenvalues --  -11.21612 -11.21444 -11.21381 -11.21130 -11.20987
 Alpha  occ. eigenvalues --   -1.59820  -1.39373  -1.19356  -1.08746  -1.08465
 Alpha  occ. eigenvalues --   -1.04767  -1.03556  -0.96016  -0.95572  -0.87039
 Alpha  occ. eigenvalues --   -0.86145  -0.82412  -0.79635  -0.78283  -0.77441
 Alpha  occ. eigenvalues --   -0.72017  -0.71140  -0.70471  -0.65114  -0.65001
 Alpha  occ. eigenvalues --   -0.64761  -0.62148  -0.60938  -0.59372  -0.57617
 Alpha  occ. eigenvalues --   -0.55404  -0.55182  -0.53144  -0.52938  -0.52627
 Alpha  occ. eigenvalues --   -0.52333  -0.49923  -0.48778  -0.48767  -0.47931
 Alpha  occ. eigenvalues --   -0.46652  -0.45819  -0.45747  -0.44762  -0.43809
 Alpha  occ. eigenvalues --   -0.37338  -0.36319
 Alpha virt. eigenvalues --    0.05044   0.11261   0.16479   0.21259   0.22851
 Alpha virt. eigenvalues --    0.24277   0.26542   0.26726   0.27476   0.27837
 Alpha virt. eigenvalues --    0.29093   0.30105   0.31548   0.31649   0.31915

 Mulliken charges:
               1
     1  C   -0.298151
     2  C   -0.299542
     3  C   -0.475667
     4  H    0.147988
     5  H    0.150626
     6  H    0.150457
     7  H    0.153247
     8  H    0.155904
     9  H    0.154340
    10  H    0.160226
    11  C   -0.298387
    12  C   -0.300116
    13  C   -0.480718
    14  H    0.147199
    15  H    0.152534
    16  H    0.147530
    17  H    0.154059
    18  H    0.167818
    19  H    0.147959
    20  H    0.159778
    21  C   -0.170248
    22  C   -0.221570
    23  C   -0.170377
    24  C    0.156145
    25  C   -0.170758
    26  C   -0.218773
    27  H    0.225498
    28  H    0.223726
    29  H    0.282825
    30  H    0.275590
    31  H    0.223353
    32  N    0.488240
    33  O   -0.460713
    34  O   -0.460024
 Sum of Mulliken charges =  -0.00000

 Dipole moment (field-independent basis, Debye):
    X=              0.5840    Y=              4.8117    Z=              1.6064  Tot=              5.1063
 Quadrupole moment (field-independent basis, Debye-Ang):
   XX=            -99.0077   YY=            -93.9462   ZZ=            -92.3269
   XY=            -16.4790   XZ=             -3.0008   YZ=             -1.8587

 Normal termination of Gaussian 16 at Thu May  6 15:22:09 2021.
