 Gaussian 16, Revision A.03,
 Gaussian 16:  EM64L-G16RevA.03 25-Dec-2016

 -------------
 #p 6-31g* mp2
 -------------

 ------------------------------------------------------
 Input file generated by CHIRIPA (05-May-2021 14:53:16)
 ------------------------------------------------------
 Symbolic Z-matrix:
 Charge =  0 Multiplicity = 1

                         Standard orientation:
 ---------------------------------------------------------------------
 Center     Atomic      Atomic             Coordinates (Angstroms)
 Number     Number       Type             X           Y           Z
 ---------------------------------------------------------------------
      1          6           0       -2.911982    0.422653   -0.435354
      2          6           0       -4.220001    0.174459    0.316624
      3          6           0       -5.059506   -0.939637   -0.309327
      4          1           0       -3.139330    0.675713   -1.479968
      5          1           0       -2.328510   -0.508148   -0.459103
      6          1           0       -4.800212    1.105812    0.340146
      7          1           0       -3.989522   -0.077852    1.359617
      8          1           0       -4.503037   -1.882430   -0.318619
      9          1           0       -5.318334   -0.692040   -1.343882
     10          1           0       -5.990009   -1.100345    0.244025
     11          6           0       -2.061756    1.533581    0.178390
     12          6           0       -0.753737    1.781775   -0.573588
     13          6           0        0.085768    2.895872    0.052363
     14          1           0       -2.645228    2.464382    0.202139
     15          1           0       -1.834408    1.280521    1.223004
     16          1           0       -0.984216    2.034086   -1.616581
     17          1           0       -0.173526    0.850422   -0.597110
     18          1           0        0.344596    2.648274    1.086918
     19          1           0       -0.470701    3.838664    0.061655
     20          1           0        1.016271    3.056579   -0.500989
     21          6           0        0.149392   -2.521783    0.345552
     22          6           0        0.858458   -2.407895   -0.854771
     23          6           0        1.854290   -1.437723   -1.001839
     24          6           0        2.116253   -0.594232    0.076674
     25          6           0        1.427127   -0.682821    1.285204
     26          6           0        0.435484   -1.660401    1.409833
     27          1           0       -0.622569   -3.278313    0.451083
     28          1           0        0.638409   -3.075493   -1.682983
     29          1           0        2.418521   -1.327602   -1.919955
     30          1           0        1.668976   -0.002975    2.093125
     31          1           0       -0.113583   -1.746546    2.343187
     32          7           0        3.168279    0.436766   -0.067142
     33          8           0        3.380078    1.167765    0.897957
     34          8           0        3.761137    0.494341   -1.142243
 ---------------------------------------------------------------------

 SCF Done:  E(RHF) =  -669.534564278     A.U. after   15 cycles
 E2 =    -0.2096181847D+01 EUMP2 =    -0.67163074612453D+03

 The electronic state is 1-A.
 Alpha  occ. eigenvalues --  -20.60889 -20.60873 -15.85923 -11.31302 -11.27903
 Alpha  occ. eigenvalues --  -11.27889 -11.27696 -11.26964 -11.26954 -11.21938
 Alpha  occ. eigenvalues --  -11.21563 -11.21514 -11.21433 -11.21315 -11.20676
 Alpha  occ. eigenvalues --   -1.59949  -1.39501  -1.19545  -1.08919  -1.08538
 Alpha  occ. eigenvalues --   -1.04936  -1.03600  -0.96049  -0.95735  -0.87053
 Alpha  occ. eigenvalues --   -0.86325  -0.82565  -0.79681  -0.78346  -0.77596
 Alpha  occ. eigenvalues --   -0.72146  -0.71294  -0.70629  -0.65228  -0.65171
 Alpha  occ. eigenvalues --   -0.64926  -0.62273  -0.61062  -0.59433  -0.57647
 Alpha  occ. eigenvalues --   -0.55455  -0.55343  -0.53343  -0.53017  -0.52690
 Alpha  occ. eigenvalues --   -0.52463  -0.50002  -0.48910  -0.48897  -0.47974
 Alpha  occ. eigenvalues --   -0.46745  -0.45862  -0.45667  -0.44874  -0.43819
 Alpha  occ. eigenvalues --   -0.37443  -0.36534
 Alpha virt. eigenvalues --    0.04884   0.11049   0.16321   0.20789   0.22892
 Alpha virt. eigenvalues --    0.23920   0.26167   0.26685   0.27384   0.27820
 Alpha virt. eigenvalues --    0.28605   0.30650   0.31259   0.31624   0.31808

 Mulliken charges:
               1
     1  C   -0.300777
     2  C   -0.299131
     3  C   -0.474353
     4  H    0.150030
     5  H    0.147353
     6  H    0.154126
     7  H    0.147861
     8  H    0.148814
     9  H    0.156897
    10  H    0.160927
    11  C   -0.294719
    12  C   -0.308876
    13  C   -0.479280
    14  H    0.150092
    15  H    0.143271
    16  H    0.150881
    17  H    0.159633
    18  H    0.154524
    19  H    0.154100
    20  H    0.169672
    21  C   -0.171408
    22  C   -0.216264
    23  C   -0.172770
    24  C    0.159138
    25  C   -0.173081
    26  C   -0.215555
    27  H    0.226928
    28  H    0.224905
    29  H    0.276529
    30  H    0.276228
    31  H    0.224587
    32  N    0.489236
    33  O   -0.459251
    34  O   -0.460264
 Sum of Mulliken charges =  -0.00000

 Dipole moment (field-independent basis, Debye):
    X=             -3.5166    Y=             -3.6478    Z=              0.4787  Tot=              5.0894
 Quadrupole moment (field-independent basis, Debye-Ang):
   XX=           -111.5615   YY=            -90.4964   ZZ=            -90.1710
   XY=             -6.6805   XZ=             -0.0705   YZ=              0.3932

 Normal termination of Gaussian 16 at Thu May  6 09:05:23 2021.
