 Gaussian 16, Revision A.03,
 Gaussian 16:  EM64L-G16RevA.03 25-Dec-2016

 -------------
 #p 6-31g* mp2
 -------------

 ------------------------------------------------------
 Input file generated by CHIRIPA (05-May-2021 14:51:09)
 ------------------------------------------------------
 Symbolic Z-matrix:
 Charge =  0 Multiplicity = 1

                         Standard orientation:
 ---------------------------------------------------------------------
 Center     Atomic      Atomic             Coordinates (Angstroms)
 Number     Number       Type             X           Y           Z
 ---------------------------------------------------------------------
      1          6           0       -2.448749   -0.119187   -0.609504
      2          6           0       -3.670793   -0.988651   -0.907205
      3          6           0       -3.324204   -2.237799   -1.717945
      4          1           0       -1.977116    0.175959   -1.556814
      5          1           0       -1.706052   -0.717356   -0.063618
      6          1           0       -4.411538   -0.388626   -1.451156
      7          1           0       -4.139682   -1.281604    0.040918
      8          1           0       -2.603306   -2.859942   -1.177717
      9          1           0       -2.876707   -1.961891   -2.678269
     10          1           0       -4.212323   -2.844846   -1.919435
     11          6           0       -2.779157    1.133321    0.200298
     12          6           0       -1.557113    2.002785    0.497999
     13          6           0       -1.903702    3.251933    1.308739
     14          1           0       -3.521853    1.731490   -0.345588
     15          1           0       -3.250790    0.838175    1.147608
     16          1           0       -1.088224    2.295737   -0.450124
     17          1           0       -0.816368    1.402760    1.041950
     18          1           0       -2.351199    2.976025    2.269063
     19          1           0       -2.624600    3.874076    0.768511
     20          1           0       -1.015583    3.858979    1.510229
     21          6           0        2.442341   -0.692173    0.925517
     22          6           0        1.379880   -1.786418    1.034096
     23          6           0        1.047270   -2.145791    2.482549
     24          1           0        3.354182   -1.022830    1.441420
     25          1           0        2.091056    0.204134    1.455260
     26          1           0        1.732472   -2.679932    0.503128
     27          1           0        0.470527   -1.453196    0.517710
     28          1           0        0.671086   -1.269454    3.020246
     29          1           0        1.940201   -2.503160    3.005582
     30          1           0        0.285654   -2.929913    2.536897
     31          6           0        2.785565   -0.321961   -0.516311
     32          6           0        3.848026    0.772284   -0.624890
     33          6           0        4.180635    1.131658   -2.073343
     34          1           0        3.136850   -1.218268   -1.046054
     35          1           0        1.873723    0.008696   -1.032214
     36          1           0        4.757379    0.439063   -0.108504
     37          1           0        3.495435    1.665799   -0.093922
     38          1           0        3.287705    1.489027   -2.596376
     39          1           0        4.556820    0.255320   -2.611041
     40          1           0        4.942251    1.915779   -2.127691
 ---------------------------------------------------------------------

 SCF Done:  E(RHF) =  -470.733413055     A.U. after   11 cycles
 E2 =    -0.1583571441D+01 EUMP2 =    -0.47231698449537D+03

 The electronic state is 1-A.
 Alpha  occ. eigenvalues --  -11.21691 -11.21637 -11.21589 -11.21580 -11.21462
 Alpha  occ. eigenvalues --  -11.21401 -11.21389 -11.21324 -11.21136 -11.21110
 Alpha  occ. eigenvalues --  -11.21089 -11.21057  -1.08499  -1.08412  -1.03582
 Alpha  occ. eigenvalues --   -1.03530  -0.96030  -0.95977  -0.87045  -0.86994
 Alpha  occ. eigenvalues --   -0.79663  -0.79582  -0.78364  -0.78178  -0.65247
 Alpha  occ. eigenvalues --   -0.64939  -0.60979  -0.60933  -0.59404  -0.59342
 Alpha  occ. eigenvalues --   -0.57648  -0.57583  -0.55347  -0.55235  -0.52724
 Alpha  occ. eigenvalues --   -0.52675  -0.52464  -0.52396  -0.49998  -0.49907
 Alpha  occ. eigenvalues --   -0.48008  -0.47907  -0.46819  -0.46610  -0.46084
 Alpha  occ. eigenvalues --   -0.45795  -0.45711  -0.45277  -0.43838  -0.43776
 Alpha virt. eigenvalues --    0.19725   0.23192   0.23853   0.24185   0.25585
 Alpha virt. eigenvalues --    0.26617   0.26821   0.27936   0.28006   0.29904
 Alpha virt. eigenvalues --    0.30621   0.31600   0.31728   0.31798   0.32180

 Mulliken charges:
               1
     1  C   -0.307932
     2  C   -0.298954
     3  C   -0.475959
     4  H    0.149300
     5  H    0.158674
     6  H    0.152094
     7  H    0.152039
     8  H    0.155461
     9  H    0.155303
    10  H    0.160391
    11  C   -0.297640
    12  C   -0.302137
    13  C   -0.475723
    14  H    0.149946
    15  H    0.149894
    16  H    0.151783
    17  H    0.153071
    18  H    0.155487
    19  H    0.155619
    20  H    0.160271
    21  C   -0.298381
    22  C   -0.309800
    23  C   -0.475531
    24  H    0.149593
    25  H    0.150065
    26  H    0.152199
    27  H    0.160527
    28  H    0.154537
    29  H    0.155713
    30  H    0.159757
    31  C   -0.298891
    32  C   -0.299686
    33  C   -0.475660
    34  H    0.149360
    35  H    0.151022
    36  H    0.151770
    37  H    0.152052
    38  H    0.155075
    39  H    0.155141
    40  H    0.160149
 Sum of Mulliken charges =  -0.00000

 Dipole moment (field-independent basis, Debye):
    X=             -0.0262    Y=              0.0035    Z=             -0.0093  Tot=              0.0281
 Quadrupole moment (field-independent basis, Debye-Ang):
   XX=            -84.3161   YY=            -85.0188   ZZ=            -85.3735
   XY=             -0.6688   XZ=              0.5253   YZ=             -0.6088

 Normal termination of Gaussian 16 at Thu May  6 05:18:45 2021.
