 Gaussian 16, Revision A.03,
 Gaussian 16:  EM64L-G16RevA.03 25-Dec-2016

 -------------
 #p 6-31g* mp2
 -------------

 ------------------------------------------------------
 Input file generated by CHIRIPA (05-May-2021 14:51:12)
 ------------------------------------------------------
 Symbolic Z-matrix:
 Charge =  0 Multiplicity = 1

                         Standard orientation:
 ---------------------------------------------------------------------
 Center     Atomic      Atomic             Coordinates (Angstroms)
 Number     Number       Type             X           Y           Z
 ---------------------------------------------------------------------
      1          6           0        2.980219    1.011077    0.297109
      2          6           0        3.189388    2.382114   -0.346700
      3          6           0        2.169818    3.418883    0.125936
      4          1           0        1.964646    0.658130    0.071312
      5          1           0        3.039781    1.113769    1.389492
      6          1           0        3.130826    2.276630   -1.437598
      7          1           0        4.204647    2.731753   -0.119505
      8          1           0        2.231808    3.553474    1.210667
      9          1           0        1.151886    3.095765   -0.114915
     10          1           0        2.337776    4.391612   -0.346768
     11          6           0        3.991785   -0.036075   -0.165421
     12          6           0        3.782617   -1.407113    0.478388
     13          6           0        4.802186   -2.443881    0.005752
     14          1           0        3.932224   -0.138767   -1.257805
     15          1           0        5.007359    0.316872    0.060376
     16          1           0        2.767358   -1.756751    0.251193
     17          1           0        3.841179   -1.301628    1.569286
     18          1           0        5.820119   -2.120763    0.246603
     19          1           0        4.740196   -2.578472   -1.078980
     20          1           0        4.634229   -3.416610    0.478456
     21          6           0       -2.755878   -0.421625   -0.280349
     22          6           0       -1.922238   -1.668963    0.014904
     23          6           0       -0.463792   -1.521821   -0.419929
     24          1           0       -2.712668   -0.205812   -1.356686
     25          1           0       -2.305465    0.441114    0.229755
     26          1           0       -2.374876   -2.529349   -0.494478
     27          1           0       -1.967594   -1.881942    1.090636
     28          1           0        0.009634   -0.681321    0.097786
     29          1           0       -0.399962   -1.332406   -1.496335
     30          1           0        0.113914   -2.424892   -0.199524
     31          6           0       -4.216125   -0.553377    0.148661
     32          6           0       -5.049767    0.693961   -0.146592
     33          6           0       -6.508213    0.546819    0.288241
     34          1           0       -4.666539   -1.416115   -0.361443
     35          1           0       -4.259337   -0.769190    1.224999
     36          1           0       -5.004410    0.906940   -1.222323
     37          1           0       -4.597128    1.554347    0.362790
     38          1           0       -6.572043    0.357404    1.364646
     39          1           0       -6.981639   -0.293681   -0.229473
     40          1           0       -7.085919    1.449890    0.067836
 ---------------------------------------------------------------------

 SCF Done:  E(RHF) =  -470.733086513     A.U. after   11 cycles
 E2 =    -0.1583161381D+01 EUMP2 =    -0.47231624789333D+03

 The electronic state is 1-A.
 Alpha  occ. eigenvalues --  -11.21656 -11.21622 -11.21561 -11.21497 -11.21445
 Alpha  occ. eigenvalues --  -11.21383 -11.21332 -11.21273 -11.21145 -11.21086
 Alpha  occ. eigenvalues --  -11.21055 -11.21011  -1.08471  -1.08367  -1.03575
 Alpha  occ. eigenvalues --   -1.03473  -0.96033  -0.95926  -0.87052  -0.86945
 Alpha  occ. eigenvalues --   -0.79653  -0.79535  -0.78305  -0.78156  -0.65131
 Alpha  occ. eigenvalues --   -0.64978  -0.60972  -0.60880  -0.59417  -0.59273
 Alpha  occ. eigenvalues --   -0.57684  -0.57503  -0.55380  -0.55167  -0.52753
 Alpha  occ. eigenvalues --   -0.52617  -0.52498  -0.52313  -0.50027  -0.49837
 Alpha  occ. eigenvalues --   -0.48015  -0.47823  -0.46743  -0.46558  -0.45929
 Alpha  occ. eigenvalues --   -0.45773  -0.45689  -0.45380  -0.43807  -0.43720
 Alpha virt. eigenvalues --    0.21587   0.22980   0.24062   0.24105   0.25475
 Alpha virt. eigenvalues --    0.26716   0.27129   0.27414   0.27874   0.29374
 Alpha virt. eigenvalues --    0.29690   0.31599   0.31707   0.31899   0.32267

 Mulliken charges:
               1
     1  C   -0.306870
     2  C   -0.298899
     3  C   -0.475779
     4  H    0.158230
     5  H    0.148691
     6  H    0.151915
     7  H    0.151808
     8  H    0.154903
     9  H    0.154776
    10  H    0.160248
    11  C   -0.297162
    12  C   -0.305449
    13  C   -0.475512
    14  H    0.149343
    15  H    0.149225
    16  H    0.158910
    17  H    0.151094
    18  H    0.154885
    19  H    0.155043
    20  H    0.159730
    21  C   -0.298641
    22  C   -0.299644
    23  C   -0.483347
    24  H    0.149574
    25  H    0.149528
    26  H    0.152107
    27  H    0.152479
    28  H    0.161496
    29  H    0.154980
    30  H    0.161788
    31  C   -0.298319
    32  C   -0.299720
    33  C   -0.475736
    34  H    0.149619
    35  H    0.149844
    36  H    0.151934
    37  H    0.152114
    38  H    0.155256
    39  H    0.155191
    40  H    0.160366
 Sum of Mulliken charges =  -0.00000

 Dipole moment (field-independent basis, Debye):
    X=             -0.0497    Y=             -0.0141    Z=             -0.0049  Tot=              0.0519
 Quadrupole moment (field-independent basis, Debye-Ang):
   XX=            -86.1204   YY=            -85.3761   ZZ=            -83.4688
   XY=              0.8940   XZ=              1.1007   YZ=              0.3310

 Normal termination of Gaussian 16 at Wed May  5 16:49:00 2021.
