 Gaussian 16, Revision A.03,
 Gaussian 16:  EM64L-G16RevA.03 25-Dec-2016

 -------------
 #p 6-31g* mp2
 -------------

 ------------------------------------------------------
 Input file generated by CHIRIPA (05-May-2021 14:55:25)
 ------------------------------------------------------
 Symbolic Z-matrix:
 Charge =  0 Multiplicity = 1

                         Standard orientation:
 ---------------------------------------------------------------------
 Center     Atomic      Atomic             Coordinates (Angstroms)
 Number     Number       Type             X           Y           Z
 ---------------------------------------------------------------------
      1          6           0        0.557797   -1.340721    0.154706
      2          6           0        0.811120   -0.167691    0.873281
      3          6           0        2.074854    0.429061    0.835695
      4          6           0        3.066529   -0.176828    0.065780
      5          6           0        2.845091   -1.345524   -0.661134
      6          6           0        1.573800   -1.924864   -0.608862
      7          1           0       -0.426837   -1.797529    0.189608
      8          1           0        0.023983    0.288172    1.467124
      9          1           0        2.298281    1.337201    1.382302
     10          1           0        3.649818   -1.776666   -1.244186
     11          1           0        1.379930   -2.835852   -1.167932
     12          7           0        4.408387    0.445710    0.018215
     13          8           0        5.265110   -0.107737   -0.667612
     14          8           0        4.578005    1.475315    0.667662
     15          6           0       -3.809566    1.096105    0.006232
     16          6           0       -2.753047    2.040984   -0.567317
     17          6           0       -3.102280    3.514837   -0.358542
     18          1           0       -4.779712    1.314249   -0.460858
     19          1           0       -3.927319    1.297441    1.080008
     20          1           0       -2.636328    1.836984   -1.639406
     21          1           0       -1.785263    1.820437   -0.098947
     22          1           0       -3.198917    3.740451    0.708398
     23          1           0       -4.054817    3.757093   -0.840815
     24          1           0       -2.333632    4.172605   -0.776134
     25          6           0       -3.474593   -0.380766   -0.194697
     26          6           0       -4.531112   -1.325644    0.378852
     27          6           0       -4.181879   -2.799498    0.170077
     28          1           0       -3.356839   -0.582102   -1.268472
     29          1           0       -2.504445   -0.598910    0.272394
     30          1           0       -5.498894   -1.105097   -0.089518
     31          1           0       -4.647831   -1.121645    1.450942
     32          1           0       -3.229342   -3.041753    0.652350
     33          1           0       -4.085241   -3.025111   -0.896862
     34          1           0       -4.950525   -3.457266    0.587669
 ---------------------------------------------------------------------

 SCF Done:  E(RHF) =  -669.535259297     A.U. after   15 cycles
 E2 =    -0.2092318499D+01 EUMP2 =    -0.67162757779617D+03

 The electronic state is 1-A.
 Alpha  occ. eigenvalues --  -20.60743 -20.60737 -15.85797 -11.31159 -11.27745
 Alpha  occ. eigenvalues --  -11.27736 -11.27443 -11.26751 -11.26726 -11.22586
 Alpha  occ. eigenvalues --  -11.22507 -11.22355 -11.22244 -11.22126 -11.21653
 Alpha  occ. eigenvalues --   -1.59819  -1.39372  -1.19337  -1.09383  -1.08725
 Alpha  occ. eigenvalues --   -1.04743  -1.04399  -0.96861  -0.95564  -0.87870
 Alpha  occ. eigenvalues --   -0.86141  -0.82402  -0.80467  -0.79208  -0.77446
 Alpha  occ. eigenvalues --   -0.72015  -0.71142  -0.70458  -0.66052  -0.64986
 Alpha  occ. eigenvalues --   -0.64724  -0.62102  -0.61791  -0.60228  -0.58464
 Alpha  occ. eigenvalues --   -0.56175  -0.55249  -0.53510  -0.53277  -0.53063
 Alpha  occ. eigenvalues --   -0.52837  -0.50808  -0.48810  -0.48770  -0.48736
 Alpha  occ. eigenvalues --   -0.47508  -0.46720  -0.46638  -0.44779  -0.44671
 Alpha  occ. eigenvalues --   -0.37291  -0.36341
 Alpha virt. eigenvalues --    0.05087   0.11185   0.16533   0.18797   0.22164
 Alpha virt. eigenvalues --    0.23082   0.25049   0.26123   0.26302   0.27919
 Alpha virt. eigenvalues --    0.29350   0.30579   0.31002   0.31434   0.31985

 Mulliken charges:
               1
     1  C   -0.173468
     2  C   -0.220093
     3  C   -0.171223
     4  C    0.158078
     5  C   -0.170382
     6  C   -0.219675
     7  H    0.231396
     8  H    0.223551
     9  H    0.275521
    10  H    0.275543
    11  H    0.223795
    12  N    0.488107
    13  O   -0.460494
    14  O   -0.460560
    15  C   -0.299066
    16  C   -0.301734
    17  C   -0.476507
    18  H    0.153791
    19  H    0.149490
    20  H    0.155084
    21  H    0.148290
    22  H    0.154992
    23  H    0.157247
    24  H    0.163901
    25  C   -0.301672
    26  C   -0.300128
    27  C   -0.477317
    28  H    0.152763
    29  H    0.139696
    30  H    0.156669
    31  H    0.153630
    32  H    0.148353
    33  H    0.156748
    34  H    0.165674
 Sum of Mulliken charges =  -0.00000

 Dipole moment (field-independent basis, Debye):
    X=             -4.9397    Y=             -2.1418    Z=              0.0882  Tot=              5.3847
 Quadrupole moment (field-independent basis, Debye-Ang):
   XX=           -122.6630   YY=            -92.5975   ZZ=            -92.5715
   XY=             -7.1675   XZ=             -0.2890   YZ=              2.2881

 Normal termination of Gaussian 16 at Wed May  5 19:11:48 2021.
