 Gaussian 16, Revision A.03,
 Gaussian 16:  EM64L-G16RevA.03 25-Dec-2016

 -------------
 #p 6-31g* mp2
 -------------

 ------------------------------------------------------
 Input file generated by CHIRIPA (05-May-2021 14:51:12)
 ------------------------------------------------------
 Symbolic Z-matrix:
 Charge =  0 Multiplicity = 1

                         Standard orientation:
 ---------------------------------------------------------------------
 Center     Atomic      Atomic             Coordinates (Angstroms)
 Number     Number       Type             X           Y           Z
 ---------------------------------------------------------------------
      1          6           0        4.979457   -0.590220    0.243527
      2          6           0        6.353844   -0.255508   -0.337000
      3          6           0        7.453103   -1.189577    0.169893
      4          1           0        5.029230   -0.539243    1.339825
      5          1           0        4.725139   -1.628733   -0.009865
      6          1           0        6.604888    0.782503   -0.083769
      7          1           0        6.300745   -0.307100   -1.432050
      8          1           0        7.229275   -2.227791   -0.095841
      9          1           0        7.535145   -1.131997    1.260101
     10          1           0        8.427213   -0.932392   -0.257687
     11          6           0        3.870115    0.334844   -0.253813
     12          6           0        2.495728    0.000132    0.326713
     13          6           0        1.396469    0.934201   -0.180179
     14          1           0        4.124433    1.373357   -0.000421
     15          1           0        3.820342    0.283868   -1.350111
     16          1           0        2.548827    0.051724    1.421763
     17          1           0        2.244684   -1.037879    0.073482
     18          1           0        1.314427    0.876621   -1.270388
     19          1           0        1.620298    1.972415    0.085554
     20          1           0        0.422359    0.677017    0.247401
     21          6           0       -4.018005    0.671309    0.355054
     22          6           0       -2.822002    1.156180   -0.464983
     23          6           0       -2.018046    2.243678    0.248317
     24          1           0       -4.671721    1.525501    0.578564
     25          1           0       -3.660580    0.289934    1.321592
     26          1           0       -3.181440    1.535252   -1.430241
     27          1           0       -2.171155    0.300701   -0.686729
     28          1           0       -1.631803    1.873302    1.203430
     29          1           0       -2.647828    3.114867    0.455693
     30          1           0       -1.167832    2.575717   -0.355625
     31          6           0       -4.831567   -0.415933   -0.344767
     32          6           0       -6.027570   -0.900804    0.475269
     33          6           0       -6.831527   -1.988303   -0.238031
     34          1           0       -5.188992   -0.034558   -1.311305
     35          1           0       -4.177851   -1.270125   -0.568278
     36          1           0       -6.678417   -0.045326    0.697016
     37          1           0       -5.668132   -1.279876    1.440528
     38          1           0       -6.201744   -2.859491   -0.445407
     39          1           0       -7.217769   -1.617927   -1.193142
     40          1           0       -7.681740   -2.320342    0.365913
 ---------------------------------------------------------------------

 SCF Done:  E(RHF) =  -470.732463416     A.U. after   11 cycles
 E2 =    -0.1582871866D+01 EUMP2 =    -0.47231533528207D+03

 The electronic state is 1-A.
 Alpha  occ. eigenvalues --  -11.21592 -11.21590 -11.21568 -11.21561 -11.21388
 Alpha  occ. eigenvalues --  -11.21385 -11.21328 -11.21325 -11.21065 -11.21063
 Alpha  occ. eigenvalues --  -11.20981 -11.20953  -1.08423  -1.08396  -1.03558
 Alpha  occ. eigenvalues --   -1.03454  -0.96063  -0.95849  -0.87109  -0.86836
 Alpha  occ. eigenvalues --   -0.79633  -0.79507  -0.78227  -0.78220  -0.65052
 Alpha  occ. eigenvalues --   -0.65043  -0.60988  -0.60906  -0.59535  -0.59104
 Alpha  occ. eigenvalues --   -0.57609  -0.57512  -0.55290  -0.55220  -0.52911
 Alpha  occ. eigenvalues --   -0.52439  -0.52381  -0.52216  -0.49956  -0.49816
 Alpha  occ. eigenvalues --   -0.47945  -0.47818  -0.46660  -0.46551  -0.45773
 Alpha  occ. eigenvalues --   -0.45755  -0.45705  -0.45677  -0.43855  -0.43607
 Alpha virt. eigenvalues --    0.21852   0.23026   0.23579   0.24996   0.26560
 Alpha virt. eigenvalues --    0.26650   0.26985   0.27514   0.27592   0.29032
 Alpha virt. eigenvalues --    0.29538   0.31384   0.31441   0.31813   0.32268

 Mulliken charges:
               1
     1  C   -0.298190
     2  C   -0.299590
     3  C   -0.475682
     4  H    0.149564
     5  H    0.149391
     6  H    0.151917
     7  H    0.151898
     8  H    0.155134
     9  H    0.155151
    10  H    0.160221
    11  C   -0.298547
    12  C   -0.300430
    13  C   -0.480418
    14  H    0.149478
    15  H    0.149500
    16  H    0.151596
    17  H    0.151317
    18  H    0.154147
    19  H    0.154688
    20  H    0.169443
    21  C   -0.297982
    22  C   -0.302598
    23  C   -0.479800
    24  H    0.149749
    25  H    0.149120
    26  H    0.152035
    27  H    0.153188
    28  H    0.153730
    29  H    0.155031
    30  H    0.167160
    31  C   -0.298231
    32  C   -0.299622
    33  C   -0.475688
    34  H    0.149521
    35  H    0.149487
    36  H    0.151945
    37  H    0.151861
    38  H    0.155124
    39  H    0.155169
    40  H    0.160209
 Sum of Mulliken charges =  -0.00000

 Dipole moment (field-independent basis, Debye):
    X=             -0.0041    Y=              0.0196    Z=             -0.0062  Tot=              0.0210
 Quadrupole moment (field-independent basis, Debye-Ang):
   XX=            -85.9195   YY=            -84.8339   ZZ=            -84.2225
   XY=             -0.2950   XZ=             -0.0727   YZ=              0.0288

 Normal termination of Gaussian 16 at Wed May  5 23:08:04 2021.
