 Gaussian 16, Revision A.03,
 Gaussian 16:  EM64L-G16RevA.03 25-Dec-2016

 -------------
 #p 6-31g* mp2
 -------------

 ------------------------------------------------------
 Input file generated by CHIRIPA (05-May-2021 14:57:26)
 ------------------------------------------------------
 Symbolic Z-matrix:
 Charge =  0 Multiplicity = 1

                         Standard orientation:
 ---------------------------------------------------------------------
 Center     Atomic      Atomic             Coordinates (Angstroms)
 Number     Number       Type             X           Y           Z
 ---------------------------------------------------------------------
      1          6           0       -2.125124    2.112438    0.281836
      2          6           0       -3.490312    2.398313    0.176672
      3          6           0       -4.420094    1.368640    0.003969
      4          6           0       -3.947670    0.058655   -0.059621
      5          6           0       -2.593942   -0.258211    0.041903
      6          6           0       -1.682077    0.787425    0.214234
      7          1           0       -1.409806    2.918513    0.415851
      8          1           0       -3.837255    3.426396    0.228824
      9          1           0       -5.482661    1.561683   -0.080316
     10          1           0       -2.278309   -1.292955   -0.013752
     11          1           0       -0.622451    0.562447    0.295605
     12          7           0       -4.922504   -1.039863   -0.242258
     13          8           0       -4.480786   -2.185603   -0.295184
     14          8           0       -6.109839   -0.734340   -0.329024
     15          6           0        4.808029    2.037928   -0.339020
     16          6           0        3.503074    1.926967    0.152201
     17          6           0        2.927215    0.670127    0.360259
     18          6           0        3.688297   -0.459897    0.065149
     19          6           0        4.990831   -0.382083   -0.425398
     20          6           0        5.546442    0.885082   -0.625747
     21          1           0        5.247505    3.018282   -0.497650
     22          1           0        2.927265    2.820565    0.375750
     23          1           0        1.919057    0.555337    0.739548
     24          1           0        5.540089   -1.290978   -0.639047
     25          1           0        6.560107    0.968227   -1.007341
     26          7           0        3.089378   -1.795922    0.281330
     27          8           0        3.780777   -2.776184    0.013574
     28          8           0        1.939889   -1.837540    0.714434
 ---------------------------------------------------------------------

 SCF Done:  E(RHF) =  -868.337227734     A.U. after   16 cycles
 E2 =    -0.2599610032D+01 EUMP2 =    -0.87093683776528D+03

 The electronic state is 1-A.
 Alpha  occ. eigenvalues --  -20.61518 -20.61475 -20.60524 -20.60504 -15.86551
 Alpha  occ. eigenvalues --  -15.85572 -11.31960 -11.31006 -11.28641 -11.28456
 Alpha  occ. eigenvalues --  -11.28225 -11.27626 -11.27597 -11.27525 -11.27474
 Alpha  occ. eigenvalues --  -11.27467 -11.26690 -11.26661  -1.60562  -1.59592
 Alpha  occ. eigenvalues --   -1.40122  -1.39141  -1.20121  -1.19210  -1.09495
 Alpha  occ. eigenvalues --   -1.08620  -1.05544  -1.04611  -0.96334  -0.95429
 Alpha  occ. eigenvalues --   -0.86937  -0.86033  -0.83175  -0.82245  -0.78237
 Alpha  occ. eigenvalues --   -0.77257  -0.72769  -0.71880  -0.71791  -0.71234
 Alpha  occ. eigenvalues --   -0.70916  -0.70364  -0.65777  -0.65567  -0.64871
 Alpha  occ. eigenvalues --   -0.64648  -0.62919  -0.61924  -0.56011  -0.55204
 Alpha  occ. eigenvalues --   -0.53844  -0.53658  -0.52956  -0.52691  -0.49536
 Alpha  occ. eigenvalues --   -0.49509  -0.48562  -0.48534  -0.45516  -0.44530
 Alpha  occ. eigenvalues --   -0.38071  -0.37246  -0.37139  -0.36207
 Alpha virt. eigenvalues --    0.04310   0.05266   0.10487   0.11425   0.15832
 Alpha virt. eigenvalues --    0.16715   0.18642   0.21975   0.24719   0.26822
 Alpha virt. eigenvalues --    0.28226   0.29297   0.29707   0.31001   0.32297

 Mulliken charges:
               1
     1  C   -0.172162
     2  C   -0.218552
     3  C   -0.171038
     4  C    0.158605
     5  C   -0.171932
     6  C   -0.224229
     7  H    0.217958
     8  H    0.221765
     9  H    0.275288
    10  H    0.285342
    11  H    0.229088
    12  N    0.487772
    13  O   -0.456988
    14  O   -0.461919
    15  C   -0.170077
    16  C   -0.219265
    17  C   -0.176452
    18  C    0.159207
    19  C   -0.169253
    20  C   -0.217908
    21  H    0.227809
    22  H    0.220520
    23  H    0.274693
    24  H    0.278368
    25  H    0.226521
    26  N    0.488181
    27  O   -0.454694
    28  O   -0.466645
 Sum of Mulliken charges =  -0.00000

 Dipole moment (field-independent basis, Debye):
    X=              5.8057    Y=              8.3723    Z=             -0.1914  Tot=             10.1901
 Quadrupole moment (field-independent basis, Debye-Ang):
   XX=           -108.8805   YY=           -106.3603   ZZ=           -106.2010
   XY=             -3.2505   XZ=             -7.2125   YZ=              1.1585

 Normal termination of Gaussian 16 at Thu May  6 18:09:56 2021.
