 Gaussian 16, Revision A.03,
 Gaussian 16:  EM64L-G16RevA.03 25-Dec-2016

 -------------
 #p 6-31g* mp2
 -------------

 ------------------------------------------------------
 Input file generated by CHIRIPA (05-May-2021 14:53:14)
 ------------------------------------------------------
 Symbolic Z-matrix:
 Charge =  0 Multiplicity = 1

                         Standard orientation:
 ---------------------------------------------------------------------
 Center     Atomic      Atomic             Coordinates (Angstroms)
 Number     Number       Type             X           Y           Z
 ---------------------------------------------------------------------
      1          6           0       -3.944755   -0.244801    0.470434
      2          6           0       -2.812439   -1.198517    0.087978
      3          6           0       -1.575376   -1.031638    0.970938
      4          1           0       -3.582073    0.790094    0.404112
      5          1           0       -4.217733   -0.413600    1.521331
      6          1           0       -2.542618   -1.028924   -0.962284
      7          1           0       -3.177915   -2.231254    0.155033
      8          1           0       -1.822780   -1.221080    2.020464
      9          1           0       -1.183873   -0.011918    0.896798
     10          1           0       -0.778339   -1.723030    0.680129
     11          6           0       -5.188319   -0.399616   -0.403241
     12          6           0       -6.320635    0.554099   -0.020786
     13          6           0       -7.557699    0.387221   -0.903746
     14          1           0       -4.915341   -0.230817   -1.454139
     15          1           0       -5.551001   -1.434511   -0.336920
     16          1           0       -5.955159    1.586837   -0.087841
     17          1           0       -6.590457    0.384506    1.029476
     18          1           0       -7.949201   -0.632500   -0.829606
     19          1           0       -7.310294    0.576663   -1.953271
     20          1           0       -8.354736    1.078613   -0.612937
     21          6           0        5.183328   -1.621980   -0.520815
     22          6           0        5.523763   -0.302509   -0.836440
     23          6           0        4.636332    0.743608   -0.566895
     24          6           0        3.411405    0.432868    0.021567
     25          6           0        3.043303   -0.871505    0.347755
     26          6           0        3.946365   -1.901774    0.069235
     27          1           0        5.878777   -2.428473   -0.733690
     28          1           0        6.483712   -0.082260   -1.294734
     29          1           0        4.874369    1.774141   -0.800896
     30          1           0        2.079078   -1.059900    0.804042
     31          1           0        3.679304   -2.925545    0.315439
     32          7           0        2.463648    1.531957    0.311672
     33          8           0        1.390649    1.231887    0.830583
     34          8           0        2.811740    2.672679    0.014653
 ---------------------------------------------------------------------

 SCF Done:  E(RHF) =  -669.535966918     A.U. after   15 cycles
 E2 =    -0.2090992031D+01 EUMP2 =    -0.67162695894864D+03

 The electronic state is 1-A.
 Alpha  occ. eigenvalues --  -20.60845 -20.60837 -15.85890 -11.31214 -11.27787
 Alpha  occ. eigenvalues --  -11.27764 -11.27528 -11.26796 -11.26783 -11.21208
 Alpha  occ. eigenvalues --  -11.21075 -11.20959 -11.20831 -11.20748 -11.20345
 Alpha  occ. eigenvalues --   -1.59914  -1.39468  -1.19387  -1.08792  -1.07952
 Alpha  occ. eigenvalues --   -1.04785  -1.03045  -0.95643  -0.95476  -0.86503
 Alpha  occ. eigenvalues --   -0.86184  -0.82467  -0.79116  -0.77766  -0.77503
 Alpha  occ. eigenvalues --   -0.72119  -0.71231  -0.70497  -0.65045  -0.64790
 Alpha  occ. eigenvalues --   -0.64575  -0.62134  -0.60425  -0.58889  -0.57109
 Alpha  occ. eigenvalues --   -0.55292  -0.54740  -0.53118  -0.52890  -0.52204
 Alpha  occ. eigenvalues --   -0.51897  -0.49415  -0.48868  -0.48837  -0.47420
 Alpha  occ. eigenvalues --   -0.46133  -0.45300  -0.45226  -0.44850  -0.43324
 Alpha  occ. eigenvalues --   -0.37371  -0.36387
 Alpha virt. eigenvalues --    0.05003   0.11261   0.16489   0.20985   0.23338
 Alpha virt. eigenvalues --    0.24378   0.26287   0.27155   0.27691   0.28006
 Alpha virt. eigenvalues --    0.29247   0.30499   0.31515   0.31990   0.32313

 Mulliken charges:
               1
     1  C   -0.299046
     2  C   -0.299045
     3  C   -0.482969
     4  H    0.154926
     5  H    0.148506
     6  H    0.150903
     7  H    0.147067
     8  H    0.151842
     9  H    0.183987
    10  H    0.145259
    11  C   -0.297936
    12  C   -0.299597
    13  C   -0.475471
    14  H    0.149090
    15  H    0.147576
    16  H    0.153473
    17  H    0.151403
    18  H    0.153984
    19  H    0.154839
    20  H    0.159610
    21  C   -0.170487
    22  C   -0.218799
    23  C   -0.170588
    24  C    0.157143
    25  C   -0.173761
    26  C   -0.219530
    27  H    0.225691
    28  H    0.223488
    29  H    0.275548
    30  H    0.281350
    31  H    0.223754
    32  N    0.492426
    33  O   -0.464675
    34  O   -0.459961
 Sum of Mulliken charges =  -0.00000

 Dipole moment (field-independent basis, Debye):
    X=              3.4581    Y=             -3.7144    Z=             -1.0033  Tot=              5.1732
 Quadrupole moment (field-independent basis, Debye-Ang):
   XX=            -71.4824   YY=            -96.0753   ZZ=            -94.8291
   XY=             -9.6104   XZ=             -5.7955   YZ=             -2.3241

 Normal termination of Gaussian 16 at Thu May  6 04:13:10 2021.
