 Gaussian 16, Revision A.03,
 Gaussian 16:  EM64L-G16RevA.03 25-Dec-2016

 -------------
 #p 6-31g* mp2
 -------------

 ------------------------------------------------------
 Input file generated by CHIRIPA (05-May-2021 14:55:24)
 ------------------------------------------------------
 Symbolic Z-matrix:
 Charge =  0 Multiplicity = 1

                         Standard orientation:
 ---------------------------------------------------------------------
 Center     Atomic      Atomic             Coordinates (Angstroms)
 Number     Number       Type             X           Y           Z
 ---------------------------------------------------------------------
      1          6           0       -1.720921    1.144526    0.657424
      2          6           0       -1.986845   -0.171628    1.049270
      3          6           0       -3.187055   -0.791146    0.688380
      4          6           0       -4.103048   -0.061830   -0.068156
      5          6           0       -3.867148    1.250826   -0.473833
      6          6           0       -2.660265    1.850308   -0.101539
      7          1           0       -0.785977    1.618000    0.942201
      8          1           0       -1.259179   -0.722165    1.638724
      9          1           0       -3.418556   -1.808886    0.978259
     10          1           0       -4.611915    1.774166   -1.061078
     11          1           0       -2.456431    2.872575   -0.407265
     12          7           0       -5.377189   -0.707080   -0.456251
     13          8           0       -6.167806   -0.043055   -1.123058
     14          8           0       -5.561117   -1.864634   -0.086284
     15          6           0        5.616652   -0.483163    0.025919
     16          6           0        6.792776    0.142241   -0.724804
     17          6           0        8.052974   -0.722154   -0.674647
     18          1           0        5.905832   -0.651949    1.072261
     19          1           0        5.401453   -1.471961   -0.402292
     20          1           0        7.004803    1.130151   -0.296208
     21          1           0        6.500698    0.309735   -1.769434
     22          1           0        7.864592   -1.704097   -1.120629
     23          1           0        8.371562   -0.879019    0.360967
     24          1           0        8.881259   -0.256234   -1.217532
     25          6           0        4.349566    0.369206   -0.015184
     26          6           0        3.173442   -0.256199    0.735538
     27          6           0        1.913244    0.608196    0.685382
     28          1           0        4.564766    1.358003    0.413027
     29          1           0        4.060386    0.537992   -1.061526
     30          1           0        3.465520   -0.423693    1.780169
     31          1           0        2.961416   -1.244109    0.306943
     32          1           0        1.594656    0.765061   -0.350231
     33          1           0        2.101626    1.590139    1.131364
     34          1           0        1.084960    0.142275    1.228267
 ---------------------------------------------------------------------

 SCF Done:  E(RHF) =  -669.534620475     A.U. after   15 cycles
 E2 =    -0.2091747172D+01 EUMP2 =    -0.67162636764682D+03

 The electronic state is 1-A.
 Alpha  occ. eigenvalues --  -20.60696 -20.60691 -15.85751 -11.31089 -11.27675
 Alpha  occ. eigenvalues --  -11.27668 -11.27315 -11.26661 -11.26646 -11.22565
 Alpha  occ. eigenvalues --  -11.22412 -11.22137 -11.22087 -11.21956 -11.21468
 Alpha  occ. eigenvalues --   -1.59773  -1.39327  -1.19264  -1.09151  -1.08655
 Alpha  occ. eigenvalues --   -1.04673  -1.04304  -0.96802  -0.95488  -0.87836
 Alpha  occ. eigenvalues --   -0.86067  -0.82336  -0.80394  -0.78911  -0.77392
 Alpha  occ. eigenvalues --   -0.71969  -0.71097  -0.70366  -0.65769  -0.64924
 Alpha  occ. eigenvalues --   -0.64720  -0.62056  -0.61686  -0.60173  -0.58360
 Alpha  occ. eigenvalues --   -0.56056  -0.55242  -0.53458  -0.53212  -0.52950
 Alpha  occ. eigenvalues --   -0.52733  -0.50706  -0.48755  -0.48724  -0.48660
 Alpha  occ. eigenvalues --   -0.47379  -0.46466  -0.46354  -0.44739  -0.44540
 Alpha  occ. eigenvalues --   -0.37208  -0.36281
 Alpha virt. eigenvalues --    0.05146   0.11340   0.16616   0.20486   0.22320
 Alpha virt. eigenvalues --    0.23723   0.25824   0.25957   0.26339   0.27400
 Alpha virt. eigenvalues --    0.28925   0.29434   0.30651   0.31485   0.31854

 Mulliken charges:
               1
     1  C   -0.172475
     2  C   -0.222420
     3  C   -0.171035
     4  C    0.157879
     5  C   -0.170748
     6  C   -0.220551
     7  H    0.235801
     8  H    0.223246
     9  H    0.275205
    10  H    0.275150
    11  H    0.223106
    12  N    0.488114
    13  O   -0.460749
    14  O   -0.460816
    15  C   -0.299020
    16  C   -0.300156
    17  C   -0.476108
    18  H    0.150489
    19  H    0.150994
    20  H    0.152243
    21  H    0.152766
    22  H    0.156077
    23  H    0.155685
    24  H    0.161666
    25  C   -0.299646
    26  C   -0.300139
    27  C   -0.483230
    28  H    0.150046
    29  H    0.151213
    30  H    0.153964
    31  H    0.155293
    32  H    0.160884
    33  H    0.155031
    34  H    0.152241
 Sum of Mulliken charges =  -0.00000

 Dipole moment (field-independent basis, Debye):
    X=              4.7680    Y=              2.2685    Z=              1.3202  Tot=              5.4427
 Quadrupole moment (field-independent basis, Debye-Ang):
   XX=           -132.0679   YY=            -91.7986   ZZ=            -93.8091
   XY=            -10.4614   XZ=             -4.9614   YZ=             -2.1788

 Normal termination of Gaussian 16 at Thu May  6 14:19:24 2021.
