 Gaussian 16, Revision A.03,
 Gaussian 16:  EM64L-G16RevA.03 25-Dec-2016

 -------------
 #p 6-31g* mp2
 -------------

 ------------------------------------------------------
 Input file generated by CHIRIPA (05-May-2021 14:55:19)
 ------------------------------------------------------
 Symbolic Z-matrix:
 Charge =  0 Multiplicity = 1

                         Standard orientation:
 ---------------------------------------------------------------------
 Center     Atomic      Atomic             Coordinates (Angstroms)
 Number     Number       Type             X           Y           Z
 ---------------------------------------------------------------------
      1          6           0        3.595069    1.710515   -0.861179
      2          6           0        2.259210    1.433766   -1.170067
      3          6           0        1.668671    0.235515   -0.757749
      4          6           0        2.446744   -0.667502   -0.034939
      5          6           0        3.780097   -0.420614    0.288337
      6          6           0        4.349918    0.784075   -0.134245
      7          1           0        4.045767    2.643846   -1.185465
      8          1           0        1.670580    2.151400   -1.734479
      9          1           0        0.636614   -0.004186   -0.983181
     10          1           0        4.341536   -1.155496    0.852387
     11          1           0        5.387586    0.996335    0.107076
     12          7           0        1.832533   -1.939445    0.406996
     13          8           0        2.539407   -2.718533    1.042596
     14          8           0        0.655871   -2.133221    0.109416
     15          6           0       -3.412682   -0.022590   -0.298023
     16          6           0       -4.785782   -0.637589   -0.025333
     17          6           0       -5.073845   -1.854356   -0.905271
     18          1           0       -3.350666    0.265552   -1.356359
     19          1           0       -2.638347   -0.785141   -0.135797
     20          1           0       -5.557201    0.126279   -0.186685
     21          1           0       -4.844606   -0.924125    1.032521
     22          1           0       -4.325794   -2.636153   -0.738489
     23          1           0       -5.042438   -1.579781   -1.964621
     24          1           0       -6.060494   -2.278207   -0.693767
     25          6           0       -3.110130    1.194738    0.573929
     26          6           0       -1.737031    1.809737    0.301238
     27          6           0       -1.448968    3.026504    1.181177
     28          1           0       -3.884465    1.957289    0.411703
     29          1           0       -3.172146    0.906596    1.632264
     30          1           0       -1.678206    2.096273   -0.756615
     31          1           0       -0.965611    1.045869    0.462590
     32          1           0       -1.480375    2.751929    2.240526
     33          1           0       -2.197018    3.808301    1.014394
     34          1           0       -0.462318    3.450354    0.969672
 ---------------------------------------------------------------------

 SCF Done:  E(RHF) =  -669.535746635     A.U. after   15 cycles
 E2 =    -0.2092270541D+01 EUMP2 =    -0.67162801717580D+03

 The electronic state is 1-A.
 Alpha  occ. eigenvalues --  -20.60847 -20.60840 -15.85891 -11.31202 -11.27783
 Alpha  occ. eigenvalues --  -11.27730 -11.27519 -11.26787 -11.26769 -11.21857
 Alpha  occ. eigenvalues --  -11.21343 -11.21328 -11.21303 -11.21094 -11.20680
 Alpha  occ. eigenvalues --   -1.59914  -1.39469  -1.19382  -1.08786  -1.08343
 Alpha  occ. eigenvalues --   -1.04777  -1.03470  -0.95892  -0.95627  -0.86917
 Alpha  occ. eigenvalues --   -0.86178  -0.82459  -0.79602  -0.78152  -0.77482
 Alpha  occ. eigenvalues --   -0.72109  -0.71233  -0.70495  -0.65037  -0.65004
 Alpha  occ. eigenvalues --   -0.64737  -0.62147  -0.60851  -0.59300  -0.57511
 Alpha  occ. eigenvalues --   -0.55288  -0.55153  -0.53111  -0.52896  -0.52616
 Alpha  occ. eigenvalues --   -0.52304  -0.49823  -0.48867  -0.48863  -0.47873
 Alpha  occ. eigenvalues --   -0.46608  -0.45680  -0.45535  -0.44862  -0.43702
 Alpha  occ. eigenvalues --   -0.37364  -0.36349
 Alpha virt. eigenvalues --    0.04982   0.11195   0.16468   0.20717   0.23105
 Alpha virt. eigenvalues --    0.24295   0.25562   0.26371   0.27446   0.28271
 Alpha virt. eigenvalues --    0.29413   0.30937   0.31536   0.31803   0.32273

 Mulliken charges:
               1
     1  C   -0.170649
     2  C   -0.220378
     3  C   -0.171120
     4  C    0.157195
     5  C   -0.170789
     6  C   -0.218544
     7  H    0.225715
     8  H    0.224637
     9  H    0.279893
    10  H    0.275518
    11  H    0.223496
    12  N    0.489043
    13  O   -0.459703
    14  O   -0.462839
    15  C   -0.305443
    16  C   -0.299246
    17  C   -0.476858
    18  H    0.144800
    19  H    0.164829
    20  H    0.149380
    21  H    0.153632
    22  H    0.161713
    23  H    0.153020
    24  H    0.159191
    25  C   -0.296646
    26  C   -0.307308
    27  C   -0.474738
    28  H    0.148328
    29  H    0.153003
    30  H    0.143313
    31  H    0.157528
    32  H    0.158940
    33  H    0.155664
    34  H    0.155424
 Sum of Mulliken charges =  -0.00000

 Dipole moment (field-independent basis, Debye):
    X=              2.1765    Y=              4.3596    Z=             -1.4785  Tot=              5.0921
 Quadrupole moment (field-independent basis, Debye-Ang):
   XX=            -80.5386   YY=           -101.5961   ZZ=            -94.2328
   XY=              8.1023   XZ=             -1.9860   YZ=             -0.7166

 Normal termination of Gaussian 16 at Thu May  6 02:53:08 2021.
