 Gaussian 16, Revision A.03,
 Gaussian 16:  EM64L-G16RevA.03 25-Dec-2016

 -------------
 #p 6-31g* mp2
 -------------

 ------------------------------------------------------
 Input file generated by CHIRIPA (05-May-2021 14:57:25)
 ------------------------------------------------------
 Symbolic Z-matrix:
 Charge =  0 Multiplicity = 1

                         Standard orientation:
 ---------------------------------------------------------------------
 Center     Atomic      Atomic             Coordinates (Angstroms)
 Number     Number       Type             X           Y           Z
 ---------------------------------------------------------------------
      1          6           0       -2.841854    2.046646    0.734947
      2          6           0       -3.181758    0.912432    1.479626
      3          6           0       -2.931434   -0.368013    0.977287
      4          6           0       -2.337228   -0.477965   -0.278946
      5          6           0       -1.987037    0.632874   -1.044904
      6          6           0       -2.246628    1.903499   -0.522723
      7          1           0       -3.039911    3.037513    1.132883
      8          1           0       -3.644127    1.020581    2.456644
      9          1           0       -3.184398   -1.263030    1.532600
     10          1           0       -1.527263    0.493229   -2.015741
     11          1           0       -1.981587    2.782568   -1.103271
     12          7           0       -2.067316   -1.828318   -0.821252
     13          8           0       -1.542859   -1.898306   -1.930614
     14          8           0       -2.385327   -2.791166   -0.126681
     15          6           0        3.082684   -2.069014    0.876306
     16          6           0        3.696663   -1.446621   -0.215563
     17          6           0        3.316277   -0.158914   -0.605006
     18          6           0        2.313946    0.480128    0.123176
     19          6           0        1.683342   -0.113485    1.215538
     20          6           0        2.079751   -1.401637    1.587117
     21          1           0        3.384400   -3.069510    1.171895
     22          1           0        4.475839   -1.962521   -0.769436
     23          1           0        3.774940    0.346301   -1.446317
     24          1           0        0.909627    0.426016    1.748193
     25          1           0        1.601180   -1.882546    2.435493
     26          7           0        1.902766    1.843601   -0.279654
     27          8           0        1.017173    2.385301    0.378314
     28          8           0        2.473864    2.344775   -1.245735
 ---------------------------------------------------------------------

 SCF Done:  E(RHF) =  -868.339651304     A.U. after   16 cycles
 E2 =    -0.2601003023D+01 EUMP2 =    -0.87094065432755D+03

 The electronic state is 1-A.
 Alpha  occ. eigenvalues --  -20.61034 -20.61018 -20.60639 -20.60617 -15.86042
 Alpha  occ. eigenvalues --  -15.85673 -11.31128 -11.30829 -11.27671 -11.27660
 Alpha  occ. eigenvalues --  -11.27378 -11.27334 -11.27226 -11.26927 -11.26610
 Alpha  occ. eigenvalues --  -11.26597 -11.26379 -11.26144  -1.60102  -1.59711
 Alpha  occ. eigenvalues --   -1.39660  -1.39271  -1.19270  -1.18935  -1.08716
 Alpha  occ. eigenvalues --   -1.08354  -1.04634  -1.04290  -0.95603  -0.95240
 Alpha  occ. eigenvalues --   -0.86044  -0.85691  -0.82452  -0.82075  -0.77535
 Alpha  occ. eigenvalues --   -0.77170  -0.72295  -0.71895  -0.71424  -0.71030
 Alpha  occ. eigenvalues --   -0.70372  -0.70013  -0.64930  -0.64637  -0.64573
 Alpha  occ. eigenvalues --   -0.64266  -0.61994  -0.61643  -0.55135  -0.54760
 Alpha  occ. eigenvalues --   -0.52974  -0.52777  -0.52585  -0.52363  -0.49061
 Alpha  occ. eigenvalues --   -0.49023  -0.48665  -0.48630  -0.45135  -0.44724
 Alpha  occ. eigenvalues --   -0.37259  -0.36851  -0.36179  -0.35821
 Alpha virt. eigenvalues --    0.04950   0.05333   0.11389   0.11845   0.16485
 Alpha virt. eigenvalues --    0.16999   0.21567   0.21968   0.27451   0.27873
 Alpha virt. eigenvalues --    0.28430   0.28790   0.31129   0.31550   0.32524

 Mulliken charges:
               1
     1  C   -0.169216
     2  C   -0.220908
     3  C   -0.178497
     4  C    0.157314
     5  C   -0.178384
     6  C   -0.199159
     7  H    0.227443
     8  H    0.220660
     9  H    0.270758
    10  H    0.275104
    11  H    0.232426
    12  N    0.488329
    13  O   -0.460834
    14  O   -0.465368
    15  C   -0.167292
    16  C   -0.216924
    17  C   -0.169435
    18  C    0.157513
    19  C   -0.172770
    20  C   -0.216997
    21  H    0.227898
    22  H    0.224557
    23  H    0.274852
    24  H    0.273996
    25  H    0.224569
    26  N    0.487106
    27  O   -0.465110
    28  O   -0.461631
 Sum of Mulliken charges =  -0.00000

 Dipole moment (field-independent basis, Debye):
    X=              0.6493    Y=              0.1190    Z=              3.2431  Tot=              3.3096
 Quadrupole moment (field-independent basis, Debye-Ang):
   XX=            -91.8663   YY=           -113.8786   ZZ=           -100.0387
   XY=            -21.7050   XZ=             -5.2658   YZ=             -4.2169

 Normal termination of Gaussian 16 at Fri May  7 00:25:06 2021.
