 Gaussian 16, Revision A.03,
 Gaussian 16:  EM64L-G16RevA.03 25-Dec-2016

 -------------
 #p 6-31g* mp2
 -------------

 ------------------------------------------------------
 Input file generated by CHIRIPA (05-May-2021 14:51:08)
 ------------------------------------------------------
 Symbolic Z-matrix:
 Charge =  0 Multiplicity = 1

                         Standard orientation:
 ---------------------------------------------------------------------
 Center     Atomic      Atomic             Coordinates (Angstroms)
 Number     Number       Type             X           Y           Z
 ---------------------------------------------------------------------
      1          6           0        5.695379   -0.539049    0.005122
      2          6           0        6.999472    0.246558    0.147065
      3          6           0        8.232389   -0.656807    0.187580
      4          1           0        5.607075   -1.245030    0.842224
      5          1           0        5.737907   -1.144256   -0.911016
      6          1           0        6.953937    0.851162    1.061941
      7          1           0        7.084589    0.950886   -0.690368
      8          1           0        8.305561   -1.250105   -0.729613
      9          1           0        8.174167   -1.350396    1.032651
     10          1           0        9.153524   -0.074568    0.289396
     11          6           0        4.453930    0.350205   -0.036832
     12          6           0        3.149837   -0.435402   -0.178775
     13          6           0        1.916920    0.467964   -0.219290
     14          1           0        4.411401    0.955413    0.879306
     15          1           0        4.542234    1.056186   -0.873933
     16          1           0        3.064720   -1.139729    0.658658
     17          1           0        3.195372   -1.040005   -1.093650
     18          1           0        1.975142    1.161553   -1.064361
     19          1           0        1.843748    1.061262    0.697904
     20          1           0        0.995784   -0.114276   -0.321105
     21          6           0       -5.602618   -0.438542   -0.127795
     22          6           0       -7.007791   -0.036718    0.321664
     23          6           0       -8.052982   -1.113212    0.027505
     24          1           0       -5.616562   -0.653437   -1.205092
     25          1           0       -5.318196   -1.373875    0.373853
     26          1           0       -7.288930    0.898314   -0.179626
     27          1           0       -6.990460    0.177431    1.397981
     28          1           0       -7.799444   -2.046671    0.540315
     29          1           0       -8.099610   -1.321692   -1.046256
     30          1           0       -9.050218   -0.805204    0.356918
     31          6           0       -4.546690    0.627385    0.159505
     32          6           0       -3.141518    0.225561   -0.289955
     33          6           0       -2.096327    1.302055    0.004205
     34          1           0       -4.831113    1.562719   -0.342143
     35          1           0       -4.532748    0.842280    1.236803
     36          1           0       -3.158849    0.011413   -1.366271
     37          1           0       -2.860378   -0.709471    0.211336
     38          1           0       -2.049698    1.510535    1.077965
     39          1           0       -2.349865    2.235515   -0.508605
     40          1           0       -1.099092    0.994047   -0.325208
 ---------------------------------------------------------------------

 SCF Done:  E(RHF) =  -470.733121809     A.U. after   11 cycles
 E2 =    -0.1582193679D+01 EUMP2 =    -0.47231531548836D+03

 The electronic state is 1-A.
 Alpha  occ. eigenvalues --  -11.21612 -11.21604 -11.21577 -11.21544 -11.21410
 Alpha  occ. eigenvalues --  -11.21367 -11.21351 -11.21306 -11.21087 -11.21073
 Alpha  occ. eigenvalues --  -11.21053 -11.20922  -1.08437  -1.08387  -1.03546
 Alpha  occ. eigenvalues --   -1.03473  -0.96021  -0.95899  -0.87071  -0.86885
 Alpha  occ. eigenvalues --   -0.79639  -0.79510  -0.78249  -0.78202  -0.65066
 Alpha  occ. eigenvalues --   -0.65018  -0.60936  -0.60874  -0.59617  -0.59112
 Alpha  occ. eigenvalues --   -0.57675  -0.57456  -0.55281  -0.55203  -0.53040
 Alpha  occ. eigenvalues --   -0.52447  -0.52411  -0.52152  -0.49937  -0.49857
 Alpha  occ. eigenvalues --   -0.47935  -0.47841  -0.46636  -0.46577  -0.45791
 Alpha  occ. eigenvalues --   -0.45743  -0.45714  -0.45671  -0.43975  -0.43516
 Alpha virt. eigenvalues --    0.22430   0.22968   0.23564   0.24813   0.26640
 Alpha virt. eigenvalues --    0.26685   0.26884   0.27431   0.27606   0.28810
 Alpha virt. eigenvalues --    0.30297   0.31339   0.31509   0.31640   0.32081

 Mulliken charges:
               1
     1  C   -0.298288
     2  C   -0.299619
     3  C   -0.475703
     4  H    0.149649
     5  H    0.149529
     6  H    0.151959
     7  H    0.151964
     8  H    0.155182
     9  H    0.155176
    10  H    0.160274
    11  C   -0.298687
    12  C   -0.299944
    13  C   -0.478003
    14  H    0.149628
    15  H    0.149704
    16  H    0.152021
    17  H    0.151935
    18  H    0.155487
    19  H    0.156444
    20  H    0.161899
    21  C   -0.298194
    22  C   -0.299606
    23  C   -0.475674
    24  H    0.149527
    25  H    0.149371
    26  H    0.151892
    27  H    0.151885
    28  H    0.155121
    29  H    0.155130
    30  H    0.160168
    31  C   -0.298163
    32  C   -0.299402
    33  C   -0.483895
    34  H    0.149485
    35  H    0.149527
    36  H    0.151485
    37  H    0.151211
    38  H    0.154425
    39  H    0.154503
    40  H    0.170599
 Sum of Mulliken charges =  -0.00000

 Dipole moment (field-independent basis, Debye):
    X=              0.0441    Y=              0.0045    Z=             -0.0017  Tot=              0.0444
 Quadrupole moment (field-independent basis, Debye-Ang):
   XX=            -86.6605   YY=            -85.3755   ZZ=            -82.8918
   XY=             -0.1267   XZ=             -0.0750   YZ=             -0.5407

 Normal termination of Gaussian 16 at Wed May  5 21:18:49 2021.
