 Gaussian 16, Revision A.03,
 Gaussian 16:  EM64L-G16RevA.03 25-Dec-2016

 -------------
 #p 6-31g* mp2
 -------------

 ------------------------------------------------------
 Input file generated by CHIRIPA (05-May-2021 14:51:11)
 ------------------------------------------------------
 Symbolic Z-matrix:
 Charge =  0 Multiplicity = 1

                         Standard orientation:
 ---------------------------------------------------------------------
 Center     Atomic      Atomic             Coordinates (Angstroms)
 Number     Number       Type             X           Y           Z
 ---------------------------------------------------------------------
      1          6           0        3.260973   -0.473661   -0.227623
      2          6           0        4.601619   -1.175903   -0.445593
      3          6           0        4.500848   -2.695967   -0.315047
      4          1           0        2.876134   -0.732875    0.768194
      5          1           0        2.531524   -0.857455   -0.954260
      6          1           0        5.328699   -0.789899    0.280337
      7          1           0        4.983404   -0.914834   -1.440931
      8          1           0        3.796326   -3.099819   -1.049318
      9          1           0        4.143583   -2.974175    0.681729
     10          1           0        5.470521   -3.177774   -0.474597
     11          6           0        3.345516    1.046332   -0.354908
     12          6           0        2.004871    1.748574   -0.136939
     13          6           0        2.105642    3.268638   -0.267484
     14          1           0        4.074966    1.430126    0.371728
     15          1           0        3.730356    1.305546   -1.350725
     16          1           0        1.623086    1.487504    0.858400
     17          1           0        1.277791    1.362570   -0.862868
     18          1           0        2.462907    3.546846   -1.264261
     19          1           0        2.810164    3.672490    0.466787
     20          1           0        1.135969    3.750445   -0.107934
     21          6           0       -2.633307   -0.618735    0.446588
     22          6           0       -1.727108    0.230906    1.338159
     23          6           0       -0.390545   -0.447529    1.640022
     24          1           0       -2.813613   -1.586557    0.934193
     25          1           0       -2.110296   -0.835793   -0.495081
     26          1           0       -2.252208    0.447457    2.277303
     27          1           0       -1.549094    1.196890    0.848464
     28          1           0        0.157075   -0.649052    0.713685
     29          1           0       -0.550034   -1.402742    2.150643
     30          1           0        0.241575    0.177211    2.278760
     31          6           0       -3.973183    0.046065    0.135943
     32          6           0       -4.879383   -0.803577   -0.755627
     33          6           0       -6.215944   -0.125142   -1.057491
     34          1           0       -4.496194    0.263122    1.077612
     35          1           0       -3.792877    1.013885   -0.351662
     36          1           0       -5.057397   -1.769561   -0.265932
     37          1           0       -4.354282   -1.020128   -1.694771
     38          1           0       -6.056456    0.830071   -1.568111
     39          1           0       -6.763565    0.076380   -0.131154
     40          1           0       -6.848065   -0.749881   -1.696228
 ---------------------------------------------------------------------

 SCF Done:  E(RHF) =  -470.731866871     A.U. after   11 cycles
 E2 =    -0.1584112597D+01 EUMP2 =    -0.47231597946710D+03

 The electronic state is 1-A.
 Alpha  occ. eigenvalues --  -11.21596 -11.21582 -11.21564 -11.21497 -11.21392
 Alpha  occ. eigenvalues --  -11.21374 -11.21333 -11.21316 -11.21068 -11.21051
 Alpha  occ. eigenvalues --  -11.21041 -11.20955  -1.08446  -1.08375  -1.03558
 Alpha  occ. eigenvalues --   -1.03450  -0.95963  -0.95955  -0.87020  -0.86938
 Alpha  occ. eigenvalues --   -0.79649  -0.79521  -0.78281  -0.78155  -0.65078
 Alpha  occ. eigenvalues --   -0.65015  -0.60983  -0.60871  -0.59438  -0.59209
 Alpha  occ. eigenvalues --   -0.57688  -0.57452  -0.55263  -0.55243  -0.52758
 Alpha  occ. eigenvalues --   -0.52595  -0.52439  -0.52309  -0.49955  -0.49878
 Alpha  occ. eigenvalues --   -0.47943  -0.47819  -0.46694  -0.46561  -0.45855
 Alpha  occ. eigenvalues --   -0.45720  -0.45682  -0.45432  -0.43767  -0.43696
 Alpha virt. eigenvalues --    0.21502   0.23044   0.23704   0.24650   0.25449
 Alpha virt. eigenvalues --    0.26132   0.26665   0.27575   0.28249   0.29535
 Alpha virt. eigenvalues --    0.30244   0.31099   0.31683   0.31965   0.32284

 Mulliken charges:
               1
     1  C   -0.301601
     2  C   -0.299470
     3  C   -0.475689
     4  H    0.154114
     5  H    0.148324
     6  H    0.151877
     7  H    0.151741
     8  H    0.155005
     9  H    0.155477
    10  H    0.160137
    11  C   -0.297371
    12  C   -0.305359
    13  C   -0.475372
    14  H    0.149101
    15  H    0.149039
    16  H    0.161312
    17  H    0.149986
    18  H    0.154673
    19  H    0.154874
    20  H    0.159555
    21  C   -0.298386
    22  C   -0.301450
    23  C   -0.479871
    24  H    0.149757
    25  H    0.149225
    26  H    0.151518
    27  H    0.153037
    28  H    0.163336
    29  H    0.154183
    30  H    0.158487
    31  C   -0.298259
    32  C   -0.299620
    33  C   -0.475694
    34  H    0.149539
    35  H    0.149539
    36  H    0.151958
    37  H    0.151793
    38  H    0.155148
    39  H    0.155190
    40  H    0.160218
 Sum of Mulliken charges =  -0.00000

 Dipole moment (field-independent basis, Debye):
    X=              0.0105    Y=             -0.0170    Z=              0.0199  Tot=              0.0282
 Quadrupole moment (field-independent basis, Debye-Ang):
   XX=            -85.7192   YY=            -86.0795   ZZ=            -83.2384
   XY=              0.6038   XZ=             -0.3461   YZ=             -0.0691

 Normal termination of Gaussian 16 at Thu May  6 05:28:00 2021.
