 Gaussian 16, Revision A.03,
 Gaussian 16:  EM64L-G16RevA.03 25-Dec-2016

 -------------
 #p 6-31g* mp2
 -------------

 ------------------------------------------------------
 Input file generated by CHIRIPA (05-May-2021 14:51:09)
 ------------------------------------------------------
 Symbolic Z-matrix:
 Charge =  0 Multiplicity = 1

                         Standard orientation:
 ---------------------------------------------------------------------
 Center     Atomic      Atomic             Coordinates (Angstroms)
 Number     Number       Type             X           Y           Z
 ---------------------------------------------------------------------
      1          6           0        2.647194   -0.496053    0.049185
      2          6           0        2.207786   -1.425378    1.181113
      3          6           0        0.855704   -2.086593    0.911926
      4          1           0        1.881889    0.278073   -0.099081
      5          1           0        2.698005   -1.068751   -0.887207
      6          1           0        2.159156   -0.851407    2.115355
      7          1           0        2.974316   -2.197268    1.326829
      8          1           0        0.894387   -2.683104   -0.005287
      9          1           0        0.074596   -1.329596    0.787719
     10          1           0        0.560884   -2.746624    1.733693
     11          6           0        3.997046    0.172427    0.303667
     12          6           0        4.436454    1.101752   -0.828261
     13          6           0        5.788537    1.762967   -0.559074
     14          1           0        3.946235    0.745125    1.240059
     15          1           0        4.762351   -0.601699    0.451932
     16          1           0        3.669924    1.873642   -0.973978
     17          1           0        4.485084    0.527781   -1.762504
     18          1           0        6.569645    1.005970   -0.434868
     19          1           0        5.749853    2.359478    0.358138
     20          1           0        6.083356    2.422998   -1.380841
     21          6           0       -3.832373    0.730133   -0.185803
     22          6           0       -3.300577    2.032442    0.413504
     23          6           0       -4.332928    3.159995    0.387599
     24          1           0       -4.151145    0.913629   -1.221013
     25          1           0       -4.729715    0.419720    0.367204
     26          1           0       -2.403707    2.339572   -0.139588
     27          1           0       -2.982857    1.845779    1.447345
     28          1           0       -5.225364    2.878350    0.955784
     29          1           0       -4.642924    3.374948   -0.640165
     30          1           0       -3.931810    4.081592    0.820752
     31          6           0       -2.811868   -0.406506   -0.167049
     32          6           0       -3.343663   -1.708816   -0.766355
     33          6           0       -2.311312   -2.836369   -0.740451
     34          1           0       -1.914526   -0.096094   -0.720056
     35          1           0       -2.493096   -0.590002    0.868161
     36          1           0       -3.661383   -1.522154   -1.800196
     37          1           0       -4.240533   -2.015946   -0.213264
     38          1           0       -2.001316   -3.051322    0.287313
     39          1           0       -1.418875   -2.554724   -1.308636
     40          1           0       -2.712431   -3.757966   -1.173604
 ---------------------------------------------------------------------

 SCF Done:  E(RHF) =  -470.732300054     A.U. after   11 cycles
 E2 =    -0.1583643800D+01 EUMP2 =    -0.47231594385346D+03

 The electronic state is 1-A.
 Alpha  occ. eigenvalues --  -11.21626 -11.21588 -11.21555 -11.21508 -11.21411
 Alpha  occ. eigenvalues --  -11.21374 -11.21352 -11.21314 -11.21089 -11.21060
 Alpha  occ. eigenvalues --  -11.20905 -11.20900  -1.08438  -1.08381  -1.03547
 Alpha  occ. eigenvalues --   -1.03438  -0.96011  -0.95872  -0.87063  -0.86862
 Alpha  occ. eigenvalues --   -0.79739  -0.79405  -0.78313  -0.78125  -0.65063
 Alpha  occ. eigenvalues --   -0.65017  -0.60937  -0.60851  -0.59346  -0.59299
 Alpha  occ. eigenvalues --   -0.57680  -0.57443  -0.55270  -0.55186  -0.52760
 Alpha  occ. eigenvalues --   -0.52645  -0.52487  -0.52144  -0.49925  -0.49826
 Alpha  occ. eigenvalues --   -0.48187  -0.47570  -0.46667  -0.46544  -0.45941
 Alpha  occ. eigenvalues --   -0.45718  -0.45666  -0.45410  -0.43769  -0.43724
 Alpha virt. eigenvalues --    0.21948   0.23128   0.23545   0.24842   0.25999
 Alpha virt. eigenvalues --    0.26349   0.26589   0.27474   0.28117   0.29468
 Alpha virt. eigenvalues --    0.30120   0.30488   0.31598   0.31970   0.32336

 Mulliken charges:
               1
     1  C   -0.298293
     2  C   -0.300971
     3  C   -0.480327
     4  H    0.149273
     5  H    0.148947
     6  H    0.151178
     7  H    0.151275
     8  H    0.156598
     9  H    0.163455
    10  H    0.158027
    11  C   -0.298130
    12  C   -0.299594
    13  C   -0.475676
    14  H    0.149527
    15  H    0.149666
    16  H    0.151744
    17  H    0.151778
    18  H    0.155184
    19  H    0.155183
    20  H    0.160142
    21  C   -0.297675
    22  C   -0.299722
    23  C   -0.475679
    24  H    0.149778
    25  H    0.149645
    26  H    0.151513
    27  H    0.151706
    28  H    0.155304
    29  H    0.155297
    30  H    0.160207
    31  C   -0.301398
    32  C   -0.299514
    33  C   -0.477801
    34  H    0.150050
    35  H    0.150943
    36  H    0.151410
    37  H    0.151430
    38  H    0.159956
    39  H    0.156971
    40  H    0.158596
 Sum of Mulliken charges =  -0.00000

 Dipole moment (field-independent basis, Debye):
    X=             -0.0309    Y=             -0.0116    Z=             -0.0015  Tot=              0.0331
 Quadrupole moment (field-independent basis, Debye-Ang):
   XX=            -85.9349   YY=            -85.2623   ZZ=            -83.7673
   XY=             -0.2291   XZ=             -0.6212   YZ=              0.0169

 Normal termination of Gaussian 16 at Wed May  5 19:42:59 2021.
