 Gaussian 16, Revision A.03,
 Gaussian 16:  EM64L-G16RevA.03 25-Dec-2016

 -------------
 #p 6-31g* mp2
 -------------

 ------------------------------------------------------
 Input file generated by CHIRIPA (05-May-2021 14:51:10)
 ------------------------------------------------------
 Symbolic Z-matrix:
 Charge =  0 Multiplicity = 1

                         Standard orientation:
 ---------------------------------------------------------------------
 Center     Atomic      Atomic             Coordinates (Angstroms)
 Number     Number       Type             X           Y           Z
 ---------------------------------------------------------------------
      1          6           0        3.320925    0.709168   -0.793003
      2          6           0        2.804152    1.925451   -0.023855
      3          6           0        2.484219    3.109778   -0.936437
      4          1           0        4.220646    0.994088   -1.355380
      5          1           0        2.569937    0.408001   -1.536448
      6          1           0        3.555301    2.223387    0.718860
      7          1           0        1.905667    1.637553    0.536908
      8          1           0        1.718132    2.835721   -1.668970
      9          1           0        3.377139    3.424883   -1.485985
     10          1           0        2.116400    3.968317   -0.365929
     11          6           0        3.645158   -0.482929    0.105610
     12          6           0        4.161931   -1.699211   -0.663538
     13          6           0        4.481865   -2.883538    0.249044
     14          1           0        4.396146   -0.181762    0.849055
     15          1           0        2.745438   -0.767849    0.667987
     16          1           0        5.060416   -1.411314   -1.224301
     17          1           0        3.410782   -1.997147   -1.406253
     18          1           0        3.588944   -3.198643    0.798592
     19          1           0        5.247951   -2.609481    0.981577
     20          1           0        4.849683   -3.742078   -0.321464
     21          6           0       -2.741836   -0.206334    0.502932
     22          6           0       -2.278108    0.593151    1.721031
     23          6           0       -0.793024    0.396297    2.026922
     24          1           0       -2.539298   -1.272583    0.673335
     25          1           0       -2.144260    0.089661   -0.370387
     26          1           0       -2.877313    0.296730    2.591493
     27          1           0       -2.481947    1.657600    1.547788
     28          1           0       -0.179564    0.710172    1.176187
     29          1           0       -0.577176   -0.658429    2.225822
     30          1           0       -0.482854    0.976826    2.901360
     31          6           0       -4.224248   -0.019905    0.184461
     32          6           0       -4.687975   -0.819390   -1.033638
     33          6           0       -6.173059   -0.622537   -1.339529
     34          1           0       -4.821823   -0.315901    1.057780
     35          1           0       -4.426785    1.046344    0.014058
     36          1           0       -4.484136   -1.883839   -0.860395
     37          1           0       -4.088770   -0.522970   -1.904100
     38          1           0       -6.388907    0.432190   -1.538430
     39          1           0       -6.786520   -0.936411   -0.488795
     40          1           0       -6.483229   -1.203066   -2.213967
 ---------------------------------------------------------------------

 SCF Done:  E(RHF) =  -470.733323831     A.U. after   11 cycles
 E2 =    -0.1582628420D+01 EUMP2 =    -0.47231595225109D+03

 The electronic state is 1-A.
 Alpha  occ. eigenvalues --  -11.21656 -11.21633 -11.21566 -11.21543 -11.21451
 Alpha  occ. eigenvalues --  -11.21389 -11.21364 -11.21302 -11.21138 -11.21094
 Alpha  occ. eigenvalues --  -11.21062 -11.21041  -1.08476  -1.08393  -1.03579
 Alpha  occ. eigenvalues --   -1.03496  -0.96029  -0.95949  -0.87052  -0.86962
 Alpha  occ. eigenvalues --   -0.79668  -0.79537  -0.78297  -0.78192  -0.65140
 Alpha  occ. eigenvalues --   -0.65004  -0.61071  -0.60819  -0.59392  -0.59318
 Alpha  occ. eigenvalues --   -0.57636  -0.57559  -0.55347  -0.55216  -0.52725
 Alpha  occ. eigenvalues --   -0.52647  -0.52462  -0.52370  -0.50072  -0.49826
 Alpha  occ. eigenvalues --   -0.48024  -0.47837  -0.46807  -0.46462  -0.45898
 Alpha  occ. eigenvalues --   -0.45774  -0.45713  -0.45505  -0.43828  -0.43749
 Alpha virt. eigenvalues --    0.21230   0.23036   0.23944   0.24690   0.25650
 Alpha virt. eigenvalues --    0.26689   0.27137   0.27582   0.27989   0.29244
 Alpha virt. eigenvalues --    0.30518   0.31634   0.31795   0.31868   0.31995

 Mulliken charges:
               1
     1  C   -0.297627
     2  C   -0.308447
     3  C   -0.475250
     4  H    0.149527
     5  H    0.148826
     6  H    0.152086
     7  H    0.160308
     8  H    0.154285
     9  H    0.155286
    10  H    0.160116
    11  C   -0.299515
    12  C   -0.299606
    13  C   -0.475650
    14  H    0.149438
    15  H    0.151418
    16  H    0.151773
    17  H    0.151845
    18  H    0.155199
    19  H    0.155134
    20  H    0.160068
    21  C   -0.298469
    22  C   -0.299429
    23  C   -0.482344
    24  H    0.149635
    25  H    0.149263
    26  H    0.152253
    27  H    0.152325
    28  H    0.160755
    29  H    0.155259
    30  H    0.161085
    31  C   -0.298352
    32  C   -0.299693
    33  C   -0.475740
    34  H    0.149684
    35  H    0.149832
    36  H    0.151958
    37  H    0.151894
    38  H    0.155270
    39  H    0.155250
    40  H    0.160351
 Sum of Mulliken charges =  -0.00000

 Dipole moment (field-independent basis, Debye):
    X=             -0.0289    Y=             -0.0019    Z=              0.0240  Tot=              0.0376
 Quadrupole moment (field-independent basis, Debye-Ang):
   XX=            -85.0082   YY=            -84.9682   ZZ=            -84.8073
   XY=              0.8087   XZ=             -0.5218   YZ=              0.0834

 Normal termination of Gaussian 16 at Wed May  5 15:10:28 2021.
