 Gaussian 16, Revision A.03,
 Gaussian 16:  EM64L-G16RevA.03 25-Dec-2016

 -------------
 #p 6-31g* mp2
 -------------

 ------------------------------------------------------
 Input file generated by CHIRIPA (05-May-2021 14:51:12)
 ------------------------------------------------------
 Symbolic Z-matrix:
 Charge =  0 Multiplicity = 1

                         Standard orientation:
 ---------------------------------------------------------------------
 Center     Atomic      Atomic             Coordinates (Angstroms)
 Number     Number       Type             X           Y           Z
 ---------------------------------------------------------------------
      1          6           0        3.800608    0.726105   -0.555886
      2          6           0        2.863804    1.700647    0.158713
      3          6           0        2.675087    3.009520   -0.608772
      4          1           0        4.776075    1.208630   -0.706151
      5          1           0        3.400785    0.511110   -1.556542
      6          1           0        3.264554    1.912663    1.158245
      7          1           0        1.890514    1.215678    0.307465
      8          1           0        2.253135    2.817172   -1.600517
      9          1           0        3.634982    3.518117   -0.744904
     10          1           0        2.001811    3.691445   -0.080060
     11          6           0        3.999252   -0.587032    0.199058
     12          6           0        4.936056   -1.561574   -0.515540
     13          6           0        5.124773   -2.870446    0.251944
     14          1           0        4.399076   -0.372036    1.199715
     15          1           0        3.023786   -1.069556    0.349324
     16          1           0        5.909347   -1.076605   -0.664293
     17          1           0        4.535306   -1.773589   -1.515072
     18          1           0        4.164878   -3.379043    0.388076
     19          1           0        5.546725   -2.678099    1.243690
     20          1           0        5.798050   -3.552372   -0.276768
     21          6           0       -3.195871    0.179540    0.018122
     22          6           0       -2.330142    0.391451    1.260536
     23          6           0       -0.924487    0.889841    0.923585
     24          1           0       -2.700147   -0.539754   -0.648078
     25          1           0       -3.264471    1.124742   -0.538007
     26          1           0       -2.264333   -0.553524    1.814889
     27          1           0       -2.828074    1.110177    1.923943
     28          1           0       -0.971868    1.844952    0.390555
     29          1           0       -0.404923    0.171797    0.280881
     30          1           0       -0.322736    1.034574    1.826252
     31          6           0       -4.603989   -0.318613    0.338705
     32          6           0       -5.469718   -0.530524   -0.903708
     33          6           0       -6.875373   -1.028915   -0.566758
     34          1           0       -4.535389   -1.263816    0.894835
     35          1           0       -5.099713    0.400679    1.004905
     36          1           0       -4.971785   -1.249251   -1.567116
     37          1           0       -5.535527    0.414450   -1.458062
     38          1           0       -7.394937   -0.310871    0.075946
     39          1           0       -6.827992   -1.984025   -0.033728
     40          1           0       -7.477124   -1.173648   -1.469424
 ---------------------------------------------------------------------

 SCF Done:  E(RHF) =  -470.733087997     A.U. after   11 cycles
 E2 =    -0.1582737810D+01 EUMP2 =    -0.47231582580715D+03

 The electronic state is 1-A.
 Alpha  occ. eigenvalues --  -11.21640 -11.21625 -11.21567 -11.21439 -11.21406
 Alpha  occ. eigenvalues --  -11.21379 -11.21340 -11.21267 -11.21140 -11.21089
 Alpha  occ. eigenvalues --  -11.21050 -11.20971  -1.08467  -1.08352  -1.03579
 Alpha  occ. eigenvalues --   -1.03441  -0.96034  -0.95902  -0.87060  -0.86917
 Alpha  occ. eigenvalues --   -0.79709  -0.79454  -0.78291  -0.78144  -0.65101
 Alpha  occ. eigenvalues --   -0.64985  -0.60982  -0.60846  -0.59422  -0.59246
 Alpha  occ. eigenvalues --   -0.57632  -0.57515  -0.55316  -0.55204  -0.52757
 Alpha  occ. eigenvalues --   -0.52591  -0.52449  -0.52329  -0.50004  -0.49823
 Alpha  occ. eigenvalues --   -0.47999  -0.47799  -0.46711  -0.46501  -0.45883
 Alpha  occ. eigenvalues --   -0.45747  -0.45684  -0.45530  -0.43795  -0.43690
 Alpha virt. eigenvalues --    0.21901   0.22979   0.23793   0.24676   0.25875
 Alpha virt. eigenvalues --    0.26623   0.27117   0.27531   0.27786   0.29114
 Alpha virt. eigenvalues --    0.30904   0.31132   0.31529   0.31862   0.32306

 Mulliken charges:
               1
     1  C   -0.297568
     2  C   -0.310938
     3  C   -0.475058
     4  H    0.149082
     5  H    0.148800
     6  H    0.150425
     7  H    0.167627
     8  H    0.154524
     9  H    0.154461
    10  H    0.159782
    11  C   -0.298247
    12  C   -0.299555
    13  C   -0.475626
    14  H    0.149415
    15  H    0.149058
    16  H    0.151969
    17  H    0.151714
    18  H    0.154916
    19  H    0.155144
    20  H    0.160113
    21  C   -0.298502
    22  C   -0.300493
    23  C   -0.477556
    24  H    0.149467
    25  H    0.149665
    26  H    0.152113
    27  H    0.152191
    28  H    0.156652
    29  H    0.154063
    30  H    0.162043
    31  C   -0.298336
    32  C   -0.299645
    33  C   -0.475727
    34  H    0.149578
    35  H    0.149773
    36  H    0.151902
    37  H    0.151992
    38  H    0.155238
    39  H    0.155213
    40  H    0.160330
 Sum of Mulliken charges =  -0.00000

 Dipole moment (field-independent basis, Debye):
    X=             -0.0591    Y=              0.0001    Z=              0.0191  Tot=              0.0621
 Quadrupole moment (field-independent basis, Debye-Ang):
   XX=            -85.4032   YY=            -84.8904   ZZ=            -84.7546
   XY=             -0.2079   XZ=              0.3870   YZ=              0.7626

 Normal termination of Gaussian 16 at Thu May  6 00:44:26 2021.
