 Gaussian 16, Revision A.03,
 Gaussian 16:  EM64L-G16RevA.03 25-Dec-2016

 -------------
 #p 6-31g* mp2
 -------------

 ------------------------------------------------------
 Input file generated by CHIRIPA (05-May-2021 14:51:11)
 ------------------------------------------------------
 Symbolic Z-matrix:
 Charge =  0 Multiplicity = 1

                         Standard orientation:
 ---------------------------------------------------------------------
 Center     Atomic      Atomic             Coordinates (Angstroms)
 Number     Number       Type             X           Y           Z
 ---------------------------------------------------------------------
      1          6           0       -2.829122    0.757000   -0.560584
      2          6           0       -2.546483    2.030791    0.236635
      3          6           0       -1.374243    2.833741   -0.328095
      4          1           0       -1.926111    0.131397   -0.572248
      5          1           0       -3.036962    1.025380   -1.605653
      6          1           0       -2.340598    1.760200    1.280191
      7          1           0       -3.450331    2.653346    0.246564
      8          1           0       -1.574400    3.132184   -1.362247
      9          1           0       -0.458362    2.233963   -0.322747
     10          1           0       -1.189630    3.740136    0.256906
     11          6           0       -3.998278   -0.056472   -0.008256
     12          6           0       -4.280917   -1.330262   -0.805475
     13          6           0       -5.453157   -2.133213   -0.240745
     14          1           0       -3.790438   -0.324852    1.036814
     15          1           0       -4.901289    0.569132    0.003408
     16          1           0       -3.377069   -1.952818   -0.815404
     17          1           0       -4.486802   -1.059672   -1.849030
     18          1           0       -6.369038   -1.533435   -0.246092
     19          1           0       -5.253000   -2.431656    0.793407
     20          1           0       -5.637770   -3.039608   -0.825746
     21          6           0        2.827675   -0.721803    0.603740
     22          6           0        1.698330    0.203446    1.058140
     23          6           0        0.533137   -0.554584    1.694936
     24          1           0        2.428471   -1.452612   -0.112848
     25          1           0        3.190997   -1.296676    1.466823
     26          1           0        1.338180    0.777407    0.194730
     27          1           0        2.100308    0.932259    1.773584
     28          1           0        0.871520   -1.114120    2.573012
     29          1           0        0.105061   -1.269852    0.985188
     30          1           0       -0.262949    0.126069    2.012457
     31          6           0        3.999725    0.021275   -0.034900
     32          6           0        5.129071   -0.903974   -0.489300
     33          6           0        6.294263   -0.145945   -1.126096
     34          1           0        3.636403    0.596148   -0.897983
     35          1           0        4.398929    0.752084    0.681688
     36          1           0        4.727092   -1.632787   -1.204744
     37          1           0        5.489220   -1.477936    0.374110
     38          1           0        6.722340    0.569323   -0.416347
     39          1           0        5.955881    0.413592   -2.004173
     40          1           0        7.090349   -0.826597   -1.443618
 ---------------------------------------------------------------------

 SCF Done:  E(RHF) =  -470.733016234     A.U. after   11 cycles
 E2 =    -0.1583732679D+01 EUMP2 =    -0.47231674891270D+03

 The electronic state is 1-A.
 Alpha  occ. eigenvalues --  -11.21669 -11.21622 -11.21583 -11.21581 -11.21445
 Alpha  occ. eigenvalues --  -11.21383 -11.21367 -11.21306 -11.21164 -11.21084
 Alpha  occ. eigenvalues --  -11.21051 -11.21020  -1.08482  -1.08395  -1.03604
 Alpha  occ. eigenvalues --   -1.03485  -0.96034  -0.95949  -0.87063  -0.86955
 Alpha  occ. eigenvalues --   -0.79680  -0.79540  -0.78294  -0.78210  -0.65210
 Alpha  occ. eigenvalues --   -0.64963  -0.61159  -0.60798  -0.59360  -0.59309
 Alpha  occ. eigenvalues --   -0.57658  -0.57540  -0.55316  -0.55238  -0.52727
 Alpha  occ. eigenvalues --   -0.52644  -0.52454  -0.52389  -0.50105  -0.49799
 Alpha  occ. eigenvalues --   -0.48014  -0.47864  -0.46767  -0.46494  -0.45877
 Alpha  occ. eigenvalues --   -0.45769  -0.45713  -0.45561  -0.43821  -0.43755
 Alpha virt. eigenvalues --    0.19814   0.23094   0.23611   0.24932   0.25707
 Alpha virt. eigenvalues --    0.26290   0.26563   0.27321   0.28479   0.29568
 Alpha virt. eigenvalues --    0.30336   0.30488   0.31699   0.31856   0.32467

 Mulliken charges:
               1
     1  C   -0.301215
     2  C   -0.300405
     3  C   -0.483088
     4  H    0.153151
     5  H    0.149088
     6  H    0.152487
     7  H    0.151995
     8  H    0.154878
     9  H    0.162426
    10  H    0.160158
    11  C   -0.298293
    12  C   -0.299539
    13  C   -0.475721
    14  H    0.149943
    15  H    0.149481
    16  H    0.151595
    17  H    0.151741
    18  H    0.155123
    19  H    0.155388
    20  H    0.160106
    21  C   -0.297672
    22  C   -0.305793
    23  C   -0.479876
    24  H    0.149611
    25  H    0.149708
    26  H    0.156778
    27  H    0.152742
    28  H    0.155822
    29  H    0.155121
    30  H    0.163701
    31  C   -0.298475
    32  C   -0.299695
    33  C   -0.475757
    34  H    0.149806
    35  H    0.149845
    36  H    0.151995
    37  H    0.151951
    38  H    0.155241
    39  H    0.155330
    40  H    0.160321
 Sum of Mulliken charges =  -0.00000

 Dipole moment (field-independent basis, Debye):
    X=              0.0369    Y=             -0.0075    Z=              0.0122  Tot=              0.0396
 Quadrupole moment (field-independent basis, Debye-Ang):
   XX=            -85.7064   YY=            -85.2181   ZZ=            -83.8710
   XY=             -1.1947   XZ=              1.4719   YZ=              0.1696

 Normal termination of Gaussian 16 at Wed May  5 19:50:18 2021.
