 Gaussian 16, Revision A.03,
 Gaussian 16:  EM64L-G16RevA.03 25-Dec-2016

 -------------
 #p 6-31g* mp2
 -------------

 ------------------------------------------------------
 Input file generated by CHIRIPA (05-May-2021 14:53:17)
 ------------------------------------------------------
 Symbolic Z-matrix:
 Charge =  0 Multiplicity = 1

                         Standard orientation:
 ---------------------------------------------------------------------
 Center     Atomic      Atomic             Coordinates (Angstroms)
 Number     Number       Type             X           Y           Z
 ---------------------------------------------------------------------
      1          6           0       -4.172837    0.151726   -0.136675
      2          6           0       -3.396801    1.465632   -0.233649
      3          6           0       -1.907639    1.253778   -0.508076
      4          1           0       -3.736184   -0.466749    0.659420
      5          1           0       -4.047826   -0.409829   -1.072850
      6          1           0       -3.524369    2.025170    0.701904
      7          1           0       -3.835472    2.081131   -1.029478
      8          1           0       -1.762249    0.717097   -1.451175
      9          1           0       -1.449378    0.660818    0.290044
     10          1           0       -1.372036    2.205988   -0.573539
     11          6           0       -5.662958    0.347059    0.137390
     12          6           0       -6.438994   -0.966847    0.234364
     13          6           0       -7.928155   -0.754993    0.508791
     14          1           0       -5.787968    0.908614    1.073565
     15          1           0       -6.099611    0.965533   -0.658705
     16          1           0       -6.000322   -1.582347    1.030193
     17          1           0       -6.311425   -1.526385   -0.701189
     18          1           0       -8.386416   -0.162033   -0.289329
     19          1           0       -8.073546   -0.218312    1.451891
     20          1           0       -8.463758   -1.707204    0.574254
     21          6           0        6.265863    0.329616    0.464780
     22          6           0        5.865994   -0.992046    0.241541
     23          6           0        4.525728   -1.294292   -0.017075
     24          6           0        3.607788   -0.245540   -0.045240
     25          6           0        3.975176    1.081333    0.173220
     26          6           0        5.320844    1.360270    0.429970
     27          1           0        7.309112    0.555354    0.664955
     28          1           0        6.597725   -1.794490    0.267973
     29          1           0        4.188800   -2.308595   -0.193395
     30          1           0        3.222745    1.859918    0.140517
     31          1           0        5.628519    2.387621    0.602974
     32          7           0        2.186048   -0.553176   -0.318037
     33          8           0        1.396764    0.388784   -0.337485
     34          8           0        1.887895   -1.730437   -0.507242
 ---------------------------------------------------------------------

 SCF Done:  E(RHF) =  -669.535534430     A.U. after   15 cycles
 E2 =    -0.2090920777D+01 EUMP2 =    -0.67162645520706D+03

 The electronic state is 1-A.
 Alpha  occ. eigenvalues --  -20.60863 -20.60848 -15.85894 -11.31252 -11.27820
 Alpha  occ. eigenvalues --  -11.27817 -11.27563 -11.26835 -11.26825 -11.20898
 Alpha  occ. eigenvalues --  -11.20550 -11.20501 -11.20330 -11.20271 -11.19222
 Alpha  occ. eigenvalues --   -1.59925  -1.39479  -1.19424  -1.08822  -1.07456
 Alpha  occ. eigenvalues --   -1.04826  -1.02468  -0.95662  -0.94874  -0.86226
 Alpha  occ. eigenvalues --   -0.85876  -0.82488  -0.78556  -0.77539  -0.77220
 Alpha  occ. eigenvalues --   -0.72103  -0.71245  -0.70533  -0.65078  -0.64829
 Alpha  occ. eigenvalues --   -0.64101  -0.62173  -0.59875  -0.58334  -0.56493
 Alpha  occ. eigenvalues --   -0.55329  -0.54168  -0.53156  -0.52919  -0.51568
 Alpha  occ. eigenvalues --   -0.51305  -0.48960  -0.48872  -0.48715  -0.46804
 Alpha  occ. eigenvalues --   -0.45627  -0.44899  -0.44732  -0.44649  -0.42724
 Alpha  occ. eigenvalues --   -0.37406  -0.36429
 Alpha virt. eigenvalues --    0.04986   0.11226   0.16475   0.21358   0.23762
 Alpha virt. eigenvalues --    0.25382   0.27272   0.27592   0.28196   0.28417
 Alpha virt. eigenvalues --    0.29179   0.30927   0.32393   0.32506   0.32690

 Mulliken charges:
               1
     1  C   -0.297050
     2  C   -0.302673
     3  C   -0.465222
     4  H    0.150345
     5  H    0.149813
     6  H    0.145922
     7  H    0.145772
     8  H    0.156658
     9  H    0.166320
    10  H    0.153346
    11  C   -0.297247
    12  C   -0.298960
    13  C   -0.475137
    14  H    0.147230
    15  H    0.147537
    16  H    0.151625
    17  H    0.151689
    18  H    0.154037
    19  H    0.153906
    20  H    0.158402
    21  C   -0.170718
    22  C   -0.218589
    23  C   -0.170662
    24  C    0.157664
    25  C   -0.170954
    26  C   -0.218541
    27  H    0.225809
    28  H    0.223641
    29  H    0.275764
    30  H    0.275815
    31  H    0.223665
    32  N    0.490728
    33  O   -0.460010
    34  O   -0.459928
 Sum of Mulliken charges =  -0.00000

 Dipole moment (field-independent basis, Debye):
    X=              5.3734    Y=              1.0080    Z=              0.9487  Tot=              5.5488
 Quadrupole moment (field-independent basis, Debye-Ang):
   XX=            -61.7509   YY=            -90.8900   ZZ=            -94.8011
   XY=              1.7878   XZ=              3.6961   YZ=              0.1775

 Normal termination of Gaussian 16 at Wed May  5 17:15:10 2021.
