 Gaussian 16, Revision A.03,
 Gaussian 16:  EM64L-G16RevA.03 25-Dec-2016

 -------------
 #p 6-31g* mp2
 -------------

 ------------------------------------------------------
 Input file generated by CHIRIPA (05-May-2021 14:53:15)
 ------------------------------------------------------
 Symbolic Z-matrix:
 Charge =  0 Multiplicity = 1

                         Standard orientation:
 ---------------------------------------------------------------------
 Center     Atomic      Atomic             Coordinates (Angstroms)
 Number     Number       Type             X           Y           Z
 ---------------------------------------------------------------------
      1          6           0        2.151562    0.596017   -0.851311
      2          6           0        1.968301    2.101799   -0.658898
      3          6           0        0.748599    2.648513   -1.401343
      4          1           0        2.245714    0.378661   -1.924081
      5          1           0        1.247268    0.076467   -0.505312
      6          1           0        2.873220    2.618256   -1.003874
      7          1           0        1.874766    2.315617    0.413552
      8          1           0       -0.166424    2.159800   -1.051351
      9          1           0        0.837704    2.464158   -2.476831
     10          1           0        0.636529    3.726669   -1.250085
     11          6           0        3.366760    0.034673   -0.115163
     12          6           0        3.550021   -1.471108   -0.307575
     13          6           0        4.769723   -2.017822    0.434869
     14          1           0        4.271054    0.554223   -0.461161
     15          1           0        3.272607    0.252029    0.957608
     16          1           0        3.643556   -1.684927   -1.380025
     17          1           0        2.645102   -1.987566    0.037401
     18          1           0        4.680618   -1.833468    1.510357
     19          1           0        5.684746   -1.529109    0.084877
     20          1           0        4.881793   -3.095979    0.283612
     21          6           0       -3.435186   -1.767004   -1.176892
     22          6           0       -3.724188   -0.398895   -1.141149
     23          6           0       -3.021567    0.453045   -0.283788
     24          6           0       -2.031888   -0.099353    0.527805
     25          6           0       -1.720783   -1.458155    0.515080
     26          6           0       -2.436167   -2.291343   -0.350121
     27          1           0       -3.985955   -2.421528   -1.845955
     28          1           0       -4.499514    0.011087   -1.782109
     29          1           0       -3.224862    1.515965   -0.235923
     30          1           0       -0.942374   -1.837621    1.165851
     31          1           0       -2.209582   -3.353438   -0.375761
     32          7           0       -1.281299    0.792631    1.439604
     33          8           0       -0.414055    0.281294    2.144629
     34          8           0       -1.574444    1.986217    1.431983
 ---------------------------------------------------------------------

 SCF Done:  E(RHF) =  -669.536273486     A.U. after   15 cycles
 E2 =    -0.2093891857D+01 EUMP2 =    -0.67163016534260D+03

 The electronic state is 1-A.
 Alpha  occ. eigenvalues --  -20.61045 -20.61039 -15.86032 -11.31333 -11.27887
 Alpha  occ. eigenvalues --  -11.27875 -11.27607 -11.26883 -11.26873 -11.21239
 Alpha  occ. eigenvalues --  -11.20797 -11.20749 -11.20740 -11.20710 -11.20320
 Alpha  occ. eigenvalues --   -1.60085  -1.39643  -1.19493  -1.08904  -1.07822
 Alpha  occ. eigenvalues --   -1.04879  -1.02946  -0.95750  -0.95401  -0.86433
 Alpha  occ. eigenvalues --   -0.86279  -0.82583  -0.79023  -0.77697  -0.77586
 Alpha  occ. eigenvalues --   -0.72267  -0.71440  -0.70595  -0.65148  -0.64880
 Alpha  occ. eigenvalues --   -0.64407  -0.62228  -0.60312  -0.58789  -0.57016
 Alpha  occ. eigenvalues --   -0.55384  -0.54704  -0.53212  -0.52969  -0.52110
 Alpha  occ. eigenvalues --   -0.51854  -0.49426  -0.49030  -0.49007  -0.47348
 Alpha  occ. eigenvalues --   -0.46066  -0.45212  -0.45059  -0.44897  -0.43191
 Alpha  occ. eigenvalues --   -0.37448  -0.36465
 Alpha virt. eigenvalues --    0.04860   0.11038   0.16323   0.21125   0.23182
 Alpha virt. eigenvalues --    0.24619   0.26274   0.27206   0.27930   0.28515
 Alpha virt. eigenvalues --    0.28594   0.30880   0.31354   0.32316   0.32366

 Mulliken charges:
               1
     1  C   -0.296893
     2  C   -0.304597
     3  C   -0.473487
     4  H    0.144215
     5  H    0.144806
     6  H    0.148291
     7  H    0.167723
     8  H    0.151689
     9  H    0.147398
    10  H    0.162149
    11  C   -0.299217
    12  C   -0.297693
    13  C   -0.475751
    14  H    0.147398
    15  H    0.159431
    16  H    0.148769
    17  H    0.147155
    18  H    0.157730
    19  H    0.154909
    20  H    0.156841
    21  C   -0.170326
    22  C   -0.218217
    23  C   -0.171877
    24  C    0.157688
    25  C   -0.171584
    26  C   -0.218155
    27  H    0.226294
    28  H    0.224289
    29  H    0.276596
    30  H    0.275874
    31  H    0.224249
    32  N    0.489568
    33  O   -0.459051
    34  O   -0.456214
 Sum of Mulliken charges =  -0.00000

 Dipole moment (field-independent basis, Debye):
    X=             -2.8045    Y=             -3.0778    Z=             -3.0025  Tot=              5.1336
 Quadrupole moment (field-independent basis, Debye-Ang):
   XX=            -83.4306   YY=            -91.5484   ZZ=            -98.0783
   XY=              5.2443   XZ=              5.8929   YZ=             -2.3295

 Normal termination of Gaussian 16 at Wed May  5 15:38:45 2021.
