 Gaussian 16, Revision A.03,
 Gaussian 16:  EM64L-G16RevA.03 25-Dec-2016

 -------------
 #p 6-31g* mp2
 -------------

 ------------------------------------------------------
 Input file generated by CHIRIPA (05-May-2021 14:55:23)
 ------------------------------------------------------
 Symbolic Z-matrix:
 Charge =  0 Multiplicity = 1

                         Standard orientation:
 ---------------------------------------------------------------------
 Center     Atomic      Atomic             Coordinates (Angstroms)
 Number     Number       Type             X           Y           Z
 ---------------------------------------------------------------------
      1          6           0        3.753173   -2.389242   -0.073977
      2          6           0        4.493130   -1.493002    0.704314
      3          6           0        4.212240   -0.123869    0.670786
      4          6           0        3.179863    0.316469   -0.156008
      5          6           0        2.424713   -0.551557   -0.943136
      6          6           0        2.723142   -1.916493   -0.893772
      7          1           0        3.978188   -3.451188   -0.041781
      8          1           0        5.293633   -1.857308    1.341904
      9          1           0        4.769285    0.591961    1.262992
     10          1           0        1.632708   -0.158504   -1.568960
     11          1           0        2.146825   -2.610221   -1.499285
     12          7           0        2.873213    1.763687   -0.199884
     13          8           0        1.958641    2.126387   -0.936529
     14          8           0        3.553239    2.507914    0.503201
     15          6           0       -3.527694   -0.115139    0.653553
     16          6           0       -2.194289   -0.118688   -0.094781
     17          6           0       -0.988873   -0.149543    0.845332
     18          1           0       -3.561946    0.753999    1.324649
     19          1           0       -3.583390   -1.006596    1.293551
     20          1           0       -2.141716    0.771797   -0.734225
     21          1           0       -2.163287   -0.987814   -0.764316
     22          1           0       -1.013809   -1.045191    1.474453
     23          1           0       -0.992116    0.724417    1.504714
     24          1           0       -0.046116   -0.151593    0.289395
     25          6           0       -4.742136   -0.084412   -0.272685
     26          6           0       -6.075540   -0.080863    0.475649
     27          6           0       -7.280956   -0.050010   -0.464464
     28          1           0       -4.686440    0.807045   -0.912683
     29          1           0       -4.707884   -0.953551   -0.943781
     30          1           0       -6.106542    0.788261    1.145183
     31          1           0       -6.128113   -0.971349    1.115093
     32          1           0       -7.277714   -0.923969   -1.123847
     33          1           0       -7.256021    0.845639   -1.093585
     34          1           0       -8.223713   -0.047959    0.091473
 ---------------------------------------------------------------------

 SCF Done:  E(RHF) =  -669.534982920     A.U. after   15 cycles
 E2 =    -0.2092265932D+01 EUMP2 =    -0.67162724885235D+03

 The electronic state is 1-A.
 Alpha  occ. eigenvalues --  -20.60811 -20.60798 -15.85851 -11.31222 -11.27791
 Alpha  occ. eigenvalues --  -11.27788 -11.27535 -11.26811 -11.26800 -11.21504
 Alpha  occ. eigenvalues --  -11.21465 -11.21287 -11.21225 -11.20987 -11.20848
 Alpha  occ. eigenvalues --   -1.59874  -1.39429  -1.19405  -1.08791  -1.08309
 Alpha  occ. eigenvalues --   -1.04814  -1.03405  -0.95863  -0.95620  -0.86882
 Alpha  occ. eigenvalues --   -0.86201  -0.82458  -0.79475  -0.78125  -0.77508
 Alpha  occ. eigenvalues --   -0.72073  -0.71196  -0.70521  -0.65055  -0.64934
 Alpha  occ. eigenvalues --   -0.64816  -0.62186  -0.60794  -0.59244  -0.57489
 Alpha  occ. eigenvalues --   -0.55305  -0.55128  -0.53310  -0.52919  -0.52414
 Alpha  occ. eigenvalues --   -0.52208  -0.49784  -0.48833  -0.48827  -0.47791
 Alpha  occ. eigenvalues --   -0.46500  -0.45669  -0.45585  -0.44833  -0.43663
 Alpha  occ. eigenvalues --   -0.37363  -0.36357
 Alpha virt. eigenvalues --    0.05010   0.11148   0.16518   0.21193   0.23008
 Alpha virt. eigenvalues --    0.24314   0.26775   0.26915   0.27683   0.27864
 Alpha virt. eigenvalues --    0.28869   0.30700   0.31550   0.31709   0.32039

 Mulliken charges:
               1
     1  C   -0.170738
     2  C   -0.218131
     3  C   -0.170863
     4  C    0.162436
     5  C   -0.174815
     6  C   -0.217754
     7  H    0.225787
     8  H    0.223638
     9  H    0.275782
    10  H    0.276555
    11  H    0.223935
    12  N    0.488780
    13  O   -0.460860
    14  O   -0.459994
    15  C   -0.298299
    16  C   -0.300506
    17  C   -0.478898
    18  H    0.152044
    19  H    0.147577
    20  H    0.158713
    21  H    0.144853
    22  H    0.150636
    23  H    0.160608
    24  H    0.160116
    25  C   -0.298312
    26  C   -0.299618
    27  C   -0.475668
    28  H    0.151316
    29  H    0.147636
    30  H    0.152909
    31  H    0.150934
    32  H    0.154242
    33  H    0.155934
    34  H    0.160024
 Sum of Mulliken charges =  -0.00000

 Dipole moment (field-independent basis, Debye):
    X=              1.1589    Y=             -5.0261    Z=              0.1634  Tot=              5.1605
 Quadrupole moment (field-independent basis, Debye-Ang):
   XX=            -86.4745   YY=            -97.3751   ZZ=            -93.4597
   XY=            -15.6224   XZ=              2.6527   YZ=              1.6018

 Normal termination of Gaussian 16 at Thu May  6 12:37:15 2021.
