 Gaussian 16, Revision A.03,
 Gaussian 16:  EM64L-G16RevA.03 25-Dec-2016

 -------------
 #p 6-31g* mp2
 -------------

 ------------------------------------------------------
 Input file generated by CHIRIPA (05-May-2021 14:55:20)
 ------------------------------------------------------
 Symbolic Z-matrix:
 Charge =  0 Multiplicity = 1

                         Standard orientation:
 ---------------------------------------------------------------------
 Center     Atomic      Atomic             Coordinates (Angstroms)
 Number     Number       Type             X           Y           Z
 ---------------------------------------------------------------------
      1          6           0        3.573942    2.534845   -0.310167
      2          6           0        3.479552    1.647228   -1.387082
      3          6           0        3.132607    0.309425   -1.176228
      4          6           0        2.885686   -0.108718    0.130477
      5          6           0        2.971575    0.751450    1.224105
      6          6           0        3.320100    2.084916    0.989699
      7          1           0        3.844071    3.572398   -0.483112
      8          1           0        3.676135    1.993862   -2.397649
      9          1           0        3.052338   -0.399080   -1.991701
     10          1           0        2.769776    0.376543    2.220167
     11          1           0        3.392651    2.772014    1.827957
     12          7           0        2.517555   -1.522695    0.366166
     13          8           0        2.304944   -1.866287    1.526932
     14          8           0        2.448595   -2.260604   -0.614329
     15          6           0       -3.007589   -0.169884   -0.118644
     16          6           0       -2.421029   -1.536386   -0.474460
     17          6           0       -0.892056   -1.541937   -0.473000
     18          1           0       -2.636098    0.578507   -0.831982
     19          1           0       -2.639843    0.132627    0.871631
     20          1           0       -2.790869   -1.836855   -1.463173
     21          1           0       -2.794111   -2.281645    0.239693
     22          1           0       -0.506762   -1.267080    0.514221
     23          1           0       -0.503502   -0.819762   -1.198320
     24          1           0       -0.493924   -2.528514   -0.729937
     25          6           0       -4.535089   -0.148381   -0.115935
     26          6           0       -5.121647    1.218121    0.239881
     27          6           0       -6.650621    1.223672    0.238420
     28          1           0       -4.902834   -0.450892   -1.106211
     29          1           0       -4.906579   -0.896773    0.597403
     30          1           0       -4.748567    1.963381   -0.474272
     31          1           0       -4.751808    1.518590    1.228594
     32          1           0       -7.039175    0.501497    0.963742
     33          1           0       -7.035915    0.948815   -0.748800
     34          1           0       -7.048754    2.210249    0.495359
 ---------------------------------------------------------------------

 SCF Done:  E(RHF) =  -669.535899838     A.U. after   15 cycles
 E2 =    -0.2092349725D+01 EUMP2 =    -0.67162824956245D+03

 The electronic state is 1-A.
 Alpha  occ. eigenvalues --  -20.60833 -20.60806 -15.85825 -11.31191 -11.27758
 Alpha  occ. eigenvalues --  -11.27754 -11.27503 -11.26780 -11.26770 -11.21403
 Alpha  occ. eigenvalues --  -11.21073 -11.20986 -11.20928 -11.20911 -11.20133
 Alpha  occ. eigenvalues --   -1.59865  -1.39426  -1.19362  -1.08760  -1.08040
 Alpha  occ. eigenvalues --   -1.04767  -1.03079  -0.95607  -0.95511  -0.86542
 Alpha  occ. eigenvalues --   -0.86165  -0.82439  -0.79183  -0.77860  -0.77485
 Alpha  occ. eigenvalues --   -0.72074  -0.71154  -0.70476  -0.65021  -0.64775
 Alpha  occ. eigenvalues --   -0.64677  -0.62117  -0.60483  -0.58888  -0.57119
 Alpha  occ. eigenvalues --   -0.55273  -0.54821  -0.53100  -0.52862  -0.52146
 Alpha  occ. eigenvalues --   -0.51952  -0.49503  -0.48832  -0.48815  -0.47477
 Alpha  occ. eigenvalues --   -0.46241  -0.45393  -0.45343  -0.44783  -0.43245
 Alpha  occ. eigenvalues --   -0.37332  -0.36368
 Alpha virt. eigenvalues --    0.05034   0.11251   0.16485   0.21399   0.23228
 Alpha virt. eigenvalues --    0.24801   0.26974   0.27311   0.27752   0.28061
 Alpha virt. eigenvalues --    0.28619   0.30948   0.31561   0.32136   0.32602

 Mulliken charges:
               1
     1  C   -0.170762
     2  C   -0.218690
     3  C   -0.171179
     4  C    0.159592
     5  C   -0.171437
     6  C   -0.218428
     7  H    0.225566
     8  H    0.223385
     9  H    0.275749
    10  H    0.275396
    11  H    0.223430
    12  N    0.490259
    13  O   -0.459859
    14  O   -0.457350
    15  C   -0.297524
    16  C   -0.300925
    17  C   -0.482545
    18  H    0.146202
    19  H    0.148379
    20  H    0.149706
    21  H    0.153200
    22  H    0.155587
    23  H    0.145701
    24  H    0.179371
    25  C   -0.297845
    26  C   -0.299040
    27  C   -0.475429
    28  H    0.148878
    29  H    0.150210
    30  H    0.150131
    31  H    0.151010
    32  H    0.155512
    33  H    0.154923
    34  H    0.158828
 Sum of Mulliken charges =  -0.00000

 Dipole moment (field-independent basis, Debye):
    X=              1.4612    Y=              4.8469    Z=             -0.8178  Tot=              5.1280
 Quadrupole moment (field-independent basis, Debye-Ang):
   XX=            -89.7985   YY=            -95.9324   ZZ=            -89.2346
   XY=             14.7030   XZ=             -2.6881   YZ=              1.5361

 Normal termination of Gaussian 16 at Thu May  6 12:25:53 2021.
