 Gaussian 16, Revision A.03,
 Gaussian 16:  EM64L-G16RevA.03 25-Dec-2016

 -------------
 #p 6-31g* mp2
 -------------

 ------------------------------------------------------
 Input file generated by CHIRIPA (05-May-2021 14:57:25)
 ------------------------------------------------------
 Symbolic Z-matrix:
 Charge =  0 Multiplicity = 1

                         Standard orientation:
 ---------------------------------------------------------------------
 Center     Atomic      Atomic             Coordinates (Angstroms)
 Number     Number       Type             X           Y           Z
 ---------------------------------------------------------------------
      1          6           0        3.760803    2.379886   -0.597685
      2          6           0        2.589160    1.744995   -0.172613
      3          6           0        2.585591    0.375487    0.108427
      4          6           0        3.776798   -0.331723   -0.047041
      5          6           0        4.960271    0.272282   -0.468776
      6          6           0        4.940539    1.642803   -0.744152
      7          1           0        3.754525    3.444146   -0.813803
      8          1           0        1.671500    2.314911   -0.057982
      9          1           0        1.692782   -0.141219    0.439070
     10          1           0        5.859635   -0.322312   -0.573748
     11          1           0        5.851945    2.133227   -1.074104
     12          7           0        3.785354   -1.782096    0.247485
     13          8           0        4.847814   -2.382798    0.102670
     14          8           0        2.729437   -2.290733    0.617574
     15          6           0       -1.825301    1.372765    1.057079
     16          6           0       -1.712268   -0.001123    0.820062
     17          6           0       -2.786301   -0.720491    0.287606
     18          6           0       -3.963916   -0.031069    0.002628
     19          6           0       -4.107389    1.337186    0.227538
     20          6           0       -3.020394    2.036364    0.760584
     21          1           0       -0.985932    1.923747    1.470933
     22          1           0       -0.785354   -0.519096    1.049360
     23          1           0       -2.726021   -1.784623    0.094199
     24          1           0       -5.044138    1.825985   -0.011202
     25          1           0       -3.111032    3.103289    0.943615
     26          7           0       -5.107808   -0.781946   -0.561372
     27          8           0       -6.134519   -0.151311   -0.803856
     28          8           0       -4.956018   -1.986899   -0.750271
 ---------------------------------------------------------------------

 SCF Done:  E(RHF) =  -868.336957685     A.U. after   16 cycles
 E2 =    -0.2600016073D+01 EUMP2 =    -0.87093697375757D+03

 The electronic state is 1-A.
 Alpha  occ. eigenvalues --  -20.61463 -20.61436 -20.60945 -20.60934 -15.86508
 Alpha  occ. eigenvalues --  -15.85999 -11.31934 -11.31498 -11.28617 -11.28447
 Alpha  occ. eigenvalues --  -11.28228 -11.28090 -11.28045 -11.27971 -11.27600
 Alpha  occ. eigenvalues --  -11.27462 -11.27179 -11.27168  -1.60520  -1.60015
 Alpha  occ. eigenvalues --   -1.40077  -1.39563  -1.20105  -1.19698  -1.09478
 Alpha  occ. eigenvalues --   -1.09099  -1.05533  -1.05108  -0.96311  -0.95901
 Alpha  occ. eigenvalues --   -0.86927  -0.86523  -0.83154  -0.82715  -0.78211
 Alpha  occ. eigenvalues --   -0.77713  -0.72727  -0.72217  -0.71840  -0.71339
 Alpha  occ. eigenvalues --   -0.71225  -0.70861  -0.65765  -0.65574  -0.65360
 Alpha  occ. eigenvalues --   -0.65126  -0.62930  -0.62394  -0.56004  -0.55711
 Alpha  occ. eigenvalues --   -0.53831  -0.53666  -0.53442  -0.53164  -0.49494
 Alpha  occ. eigenvalues --   -0.49471  -0.48989  -0.48960  -0.45469  -0.44938
 Alpha  occ. eigenvalues --   -0.38060  -0.37739  -0.37129  -0.36697
 Alpha virt. eigenvalues --    0.04361   0.04789   0.10524   0.10866   0.15840
 Alpha virt. eigenvalues --    0.16164   0.17838   0.22163   0.24415   0.25148
 Alpha virt. eigenvalues --    0.27925   0.28968   0.30527   0.31343   0.32683

 Mulliken charges:
               1
     1  C   -0.169950
     2  C   -0.220794
     3  C   -0.173974
     4  C    0.159355
     5  C   -0.169026
     6  C   -0.218189
     7  H    0.227547
     8  H    0.219072
     9  H    0.272519
    10  H    0.278169
    11  H    0.226335
    12  N    0.487744
    13  O   -0.456251
    14  O   -0.464053
    15  C   -0.175932
    16  C   -0.225929
    17  C   -0.169873
    18  C    0.159352
    19  C   -0.170439
    20  C   -0.217980
    21  H    0.219485
    22  H    0.231282
    23  H    0.281530
    24  H    0.276726
    25  H    0.222960
    26  N    0.487791
    27  O   -0.460082
    28  O   -0.457394
 Sum of Mulliken charges =  -0.00000

 Dipole moment (field-independent basis, Debye):
    X=              4.0755    Y=              7.6546    Z=              0.8455  Tot=              8.7131
 Quadrupole moment (field-independent basis, Debye-Ang):
   XX=           -129.3280   YY=           -105.4593   ZZ=           -106.1375
   XY=              6.2908   XZ=            -13.3161   YZ=             -0.1450

 Normal termination of Gaussian 16 at Fri May  7 09:35:46 2021.
