 Gaussian 16, Revision A.03,
 Gaussian 16:  EM64L-G16RevA.03 25-Dec-2016

 -------------
 #p 6-31g* mp2
 -------------

 ------------------------------------------------------
 Input file generated by CHIRIPA (05-May-2021 14:55:25)
 ------------------------------------------------------
 Symbolic Z-matrix:
 Charge =  0 Multiplicity = 1

                         Standard orientation:
 ---------------------------------------------------------------------
 Center     Atomic      Atomic             Coordinates (Angstroms)
 Number     Number       Type             X           Y           Z
 ---------------------------------------------------------------------
      1          6           0       -1.572739    2.071092    0.086051
      2          6           0       -2.657950    1.963414   -0.789874
      3          6           0       -3.441132    0.805517   -0.811034
      4          6           0       -3.109197   -0.229988    0.061226
      5          6           0       -2.034298   -0.152792    0.945490
      6          6           0       -1.264919    1.014508    0.949415
      7          1           0       -0.969705    2.974226    0.095794
      8          1           0       -2.899341    2.782381   -1.461491
      9          1           0       -4.286845    0.695610   -1.478947
     10          1           0       -1.818272   -0.985937    1.603229
     11          1           0       -0.422715    1.095349    1.630739
     12          7           0       -3.931011   -1.460779    0.047948
     13          8           0       -3.617802   -2.358912    0.826340
     14          8           0       -4.872795   -1.504034   -0.740600
     15          6           0        4.257875   -0.519537    0.187872
     16          6           0        4.288355   -1.762394   -0.702276
     17          6           0        5.195888   -2.862406   -0.150775
     18          1           0        5.279604   -0.131792    0.300427
     19          1           0        3.919526   -0.805474    1.193435
     20          1           0        4.625221   -1.473958   -1.706238
     21          1           0        3.266408   -2.147115   -0.812881
     22          1           0        4.858683   -3.178493    0.841687
     23          1           0        6.225216   -2.501512   -0.056746
     24          1           0        5.202826   -3.741532   -0.802654
     25          6           0        3.354931    0.589013   -0.350213
     26          6           0        3.324451    1.831870    0.539935
     27          6           0        2.416918    2.931881   -0.011566
     28          1           0        3.693279    0.874950   -1.355775
     29          1           0        2.333202    0.201267   -0.462766
     30          1           0        4.346397    2.216590    0.650540
     31          1           0        2.987585    1.543433    1.543898
     32          1           0        1.387590    2.570987   -0.105594
     33          1           0        2.754123    3.247968   -1.004029
     34          1           0        2.409979    3.811008    0.640314
 ---------------------------------------------------------------------

 SCF Done:  E(RHF) =  -669.535405126     A.U. after   15 cycles
 E2 =    -0.2091778898D+01 EUMP2 =    -0.67162718402390D+03

 The electronic state is 1-A.
 Alpha  occ. eigenvalues --  -20.60790 -20.60785 -15.85845 -11.31223 -11.27797
 Alpha  occ. eigenvalues --  -11.27788 -11.27501 -11.26810 -11.26789 -11.22457
 Alpha  occ. eigenvalues --  -11.22124 -11.22011 -11.21944 -11.21850 -11.21324
 Alpha  occ. eigenvalues --   -1.59866  -1.39419  -1.19396  -1.09027  -1.08785
 Alpha  occ. eigenvalues --   -1.04800  -1.04147  -0.96610  -0.95618  -0.87633
 Alpha  occ. eigenvalues --   -0.86194  -0.82452  -0.80225  -0.78790  -0.77497
 Alpha  occ. eigenvalues --   -0.72062  -0.71189  -0.70520  -0.65686  -0.65046
 Alpha  occ. eigenvalues --   -0.64793  -0.62162  -0.61529  -0.59991  -0.58195
 Alpha  occ. eigenvalues --   -0.55998  -0.55232  -0.53303  -0.53168  -0.52966
 Alpha  occ. eigenvalues --   -0.52885  -0.50545  -0.48822  -0.48817  -0.48523
 Alpha  occ. eigenvalues --   -0.47252  -0.46339  -0.46243  -0.44822  -0.44381
 Alpha  occ. eigenvalues --   -0.37351  -0.36401
 Alpha virt. eigenvalues --    0.05009   0.11141   0.16443   0.19834   0.22603
 Alpha virt. eigenvalues --    0.23852   0.25832   0.26175   0.27088   0.27796
 Alpha virt. eigenvalues --    0.28901   0.30098   0.31005   0.31326   0.32073

 Mulliken charges:
               1
     1  C   -0.172394
     2  C   -0.219338
     3  C   -0.170772
     4  C    0.158533
     5  C   -0.171313
     6  C   -0.220092
     7  H    0.229600
     8  H    0.223962
     9  H    0.275797
    10  H    0.275607
    11  H    0.224965
    12  N    0.488102
    13  O   -0.460435
    14  O   -0.460234
    15  C   -0.298517
    16  C   -0.300391
    17  C   -0.476056
    18  H    0.150759
    19  H    0.148581
    20  H    0.152729
    21  H    0.153676
    22  H    0.155681
    23  H    0.155305
    24  H    0.162384
    25  C   -0.300053
    26  C   -0.299278
    27  C   -0.483524
    28  H    0.151623
    29  H    0.150630
    30  H    0.156117
    31  H    0.148071
    32  H    0.149828
    33  H    0.160232
    34  H    0.160217
 Sum of Mulliken charges =  -0.00000

 Dipole moment (field-independent basis, Debye):
    X=              3.0000    Y=              4.2895    Z=             -0.0165  Tot=              5.2345
 Quadrupole moment (field-independent basis, Debye-Ang):
   XX=           -110.7709   YY=            -97.1426   ZZ=            -92.4027
   XY=            -14.8126   XZ=              1.7278   YZ=             -1.4458

 Normal termination of Gaussian 16 at Thu May  6 06:26:30 2021.
