 Gaussian 16, Revision A.03,
 Gaussian 16:  EM64L-G16RevA.03 25-Dec-2016

 -------------
 #p 6-31g* mp2
 -------------

 ------------------------------------------------------
 Input file generated by CHIRIPA (05-May-2021 14:51:09)
 ------------------------------------------------------
 Symbolic Z-matrix:
 Charge =  0 Multiplicity = 1

                         Standard orientation:
 ---------------------------------------------------------------------
 Center     Atomic      Atomic             Coordinates (Angstroms)
 Number     Number       Type             X           Y           Z
 ---------------------------------------------------------------------
      1          6           0        4.873439   -0.083030   -0.323002
      2          6           0        6.118240   -0.573884    0.416943
      3          6           0        7.418302   -0.143457   -0.263032
      4          1           0        4.893342   -0.463465   -1.353448
      5          1           0        4.905850    1.013023   -0.393788
      6          1           0        6.082805   -1.668588    0.487526
      7          1           0        6.095274   -0.192394    1.445803
      8          1           0        7.480203    0.948115   -0.319950
      9          1           0        7.467663   -0.536466   -1.283673
     10          1           0        8.295511   -0.505019    0.282529
     11          6           0        3.565904   -0.505371    0.344612
     12          6           0        2.321103   -0.014518   -0.395333
     13          6           0        1.021040   -0.444944    0.284641
     14          1           0        3.533492   -1.601424    0.415397
     15          1           0        3.546000   -0.124936    1.375058
     16          1           0        2.344068   -0.396007   -1.424194
     17          1           0        2.356537    1.080187   -0.465916
     18          1           0        0.971679   -0.051935    1.305282
     19          1           0        0.959139   -1.536516    0.341560
     20          1           0        0.143831   -0.083382   -0.260919
     21          6           0       -3.980208    1.015282    0.067496
     22          6           0       -2.464604    1.168610   -0.064489
     23          6           0       -2.000876    2.616873    0.094521
     24          1           0       -4.473028    1.644449   -0.686310
     25          1           0       -4.296323    1.396901    1.048227
     26          1           0       -2.151267    0.785542   -1.044129
     27          1           0       -1.975332    0.538856    0.689592
     28          1           0       -2.285208    3.006724    1.077259
     29          1           0       -2.462142    3.254811   -0.666315
     30          1           0       -0.914250    2.703534   -0.003418
     31          6           0       -4.459135   -0.426882   -0.089104
     32          6           0       -5.974738   -0.580208    0.042879
     33          6           0       -6.438465   -2.028471   -0.116131
     34          1           0       -4.143020   -0.808500   -1.069836
     35          1           0       -3.966314   -1.056048    0.664701
     36          1           0       -6.464011    0.049544   -0.711203
     37          1           0       -6.288076   -0.197141    1.022520
     38          1           0       -5.977200   -2.666409    0.644705
     39          1           0       -6.154135   -2.418323   -1.098868
     40          1           0       -7.525093   -2.115133   -0.018191
 ---------------------------------------------------------------------

 SCF Done:  E(RHF) =  -470.732649442     A.U. after   11 cycles
 E2 =    -0.1582963390D+01 EUMP2 =    -0.47231561283157D+03

 The electronic state is 1-A.
 Alpha  occ. eigenvalues --  -11.21589 -11.21586 -11.21567 -11.21563 -11.21386
 Alpha  occ. eigenvalues --  -11.21379 -11.21327 -11.21319 -11.21069 -11.21060
 Alpha  occ. eigenvalues --  -11.21059 -11.20938  -1.08429  -1.08393  -1.03561
 Alpha  occ. eigenvalues --   -1.03462  -0.96012  -0.95904  -0.87005  -0.86948
 Alpha  occ. eigenvalues --   -0.79706  -0.79467  -0.78256  -0.78195  -0.65057
 Alpha  occ. eigenvalues --   -0.65025  -0.60953  -0.60868  -0.59650  -0.59092
 Alpha  occ. eigenvalues --   -0.57756  -0.57347  -0.55276  -0.55205  -0.52735
 Alpha  occ. eigenvalues --   -0.52573  -0.52399  -0.52354  -0.49925  -0.49871
 Alpha  occ. eigenvalues --   -0.48011  -0.47760  -0.46662  -0.46557  -0.45778
 Alpha  occ. eigenvalues --   -0.45768  -0.45698  -0.45669  -0.43830  -0.43610
 Alpha virt. eigenvalues --    0.21882   0.23017   0.23460   0.25116   0.26393
 Alpha virt. eigenvalues --    0.26614   0.26826   0.27340   0.27868   0.29049
 Alpha virt. eigenvalues --    0.30481   0.31057   0.31134   0.31614   0.32219

 Mulliken charges:
               1
     1  C   -0.298203
     2  C   -0.299593
     3  C   -0.475679
     4  H    0.149546
     5  H    0.149423
     6  H    0.151877
     7  H    0.151887
     8  H    0.155157
     9  H    0.155140
    10  H    0.160189
    11  C   -0.298433
    12  C   -0.299598
    13  C   -0.484232
    14  H    0.149449
    15  H    0.149487
    16  H    0.151582
    17  H    0.151255
    18  H    0.153719
    19  H    0.154338
    20  H    0.172660
    21  C   -0.297157
    22  C   -0.304962
    23  C   -0.476965
    24  H    0.149321
    25  H    0.149443
    26  H    0.150804
    27  H    0.157912
    28  H    0.155283
    29  H    0.155170
    30  H    0.161270
    31  C   -0.298438
    32  C   -0.299629
    33  C   -0.475688
    34  H    0.149340
    35  H    0.149976
    36  H    0.151881
    37  H    0.151906
    38  H    0.155229
    39  H    0.155137
    40  H    0.160197
 Sum of Mulliken charges =  -0.00000

 Dipole moment (field-independent basis, Debye):
    X=             -0.0321    Y=             -0.0009    Z=              0.0042  Tot=              0.0324
 Quadrupole moment (field-independent basis, Debye-Ang):
   XX=            -86.2614   YY=            -85.1082   ZZ=            -83.5963
   XY=             -0.7105   XZ=              0.4061   YZ=              0.3565

 Normal termination of Gaussian 16 at Wed May  5 18:09:41 2021.
