 Gaussian 16, Revision A.03,
 Gaussian 16:  EM64L-G16RevA.03 25-Dec-2016

 -------------
 #p 6-31g* mp2
 -------------

 ------------------------------------------------------
 Input file generated by CHIRIPA (05-May-2021 14:51:09)
 ------------------------------------------------------
 Symbolic Z-matrix:
 Charge =  0 Multiplicity = 1

                         Standard orientation:
 ---------------------------------------------------------------------
 Center     Atomic      Atomic             Coordinates (Angstroms)
 Number     Number       Type             X           Y           Z
 ---------------------------------------------------------------------
      1          6           0        2.686921    1.370487    0.090390
      2          6           0        1.524998    2.280338   -0.309726
      3          6           0        1.851709    3.764607   -0.142395
      4          1           0        2.958959    1.571960    1.135545
      5          1           0        3.567464    1.623711   -0.516171
      6          1           0        0.646511    2.024541    0.296447
      7          1           0        1.255569    2.076541   -1.353991
      8          1           0        2.712312    4.041624   -0.759831
      9          1           0        2.099793    3.989328    0.899984
     10          1           0        1.007330    4.396911   -0.434073
     11          6           0        2.375579   -0.116333   -0.071349
     12          6           0        3.537502   -1.026184    0.328766
     13          6           0        3.210791   -2.510453    0.161436
     14          1           0        1.495036   -0.369557    0.535212
     15          1           0        2.103541   -0.317805   -1.116504
     16          1           0        3.806931   -0.822387    1.373032
     17          1           0        4.415989   -0.770387   -0.277406
     18          1           0        2.962707   -2.735174   -0.880944
     19          1           0        2.350189   -2.787470    0.778871
     20          1           0        4.055170   -3.142757    0.453114
     21          6           0       -2.563125   -1.388750    0.038127
     22          6           0       -1.235196   -2.072829   -0.288410
     23          6           0       -1.314910   -3.596478   -0.188754
     24          1           0       -2.876590   -1.675462    1.051281
     25          1           0       -3.337771   -1.761850   -0.646061
     26          1           0       -0.462980   -1.697525    0.395289
     27          1           0       -0.924759   -1.784303   -1.300833
     28          1           0       -2.065057   -3.989209   -0.882759
     29          1           0       -1.600653   -3.901938    0.823000
     30          1           0       -0.354768   -4.065111   -0.426182
     31          6           0       -2.499375    0.134596   -0.057168
     32          6           0       -3.827304    0.818675    0.269370
     33          6           0       -3.747590    2.342323    0.169714
     34          1           0       -1.724729    0.507696    0.627021
     35          1           0       -2.185910    0.421308   -1.070322
     36          1           0       -4.137741    0.530149    1.281792
     37          1           0       -4.599521    0.443371   -0.414330
     38          1           0       -3.461847    2.647784   -0.842040
     39          1           0       -2.997443    2.735055    0.863718
     40          1           0       -4.707732    2.810957    0.407142
 ---------------------------------------------------------------------

 SCF Done:  E(RHF) =  -470.732995009     A.U. after   11 cycles
 E2 =    -0.1584184675D+01 EUMP2 =    -0.47231717968470D+03

 The electronic state is 1-A.
 Alpha  occ. eigenvalues --  -11.21599 -11.21592 -11.21560 -11.21524 -11.21388
 Alpha  occ. eigenvalues --  -11.21366 -11.21326 -11.21302 -11.21075 -11.21072
 Alpha  occ. eigenvalues --  -11.21043 -11.21021  -1.08443  -1.08374  -1.03537
 Alpha  occ. eigenvalues --   -1.03478  -0.95966  -0.95950  -0.87009  -0.86940
 Alpha  occ. eigenvalues --   -0.79664  -0.79487  -0.78439  -0.77998  -0.65180
 Alpha  occ. eigenvalues --   -0.64916  -0.61012  -0.60817  -0.59424  -0.59227
 Alpha  occ. eigenvalues --   -0.57604  -0.57526  -0.55255  -0.55248  -0.52666
 Alpha  occ. eigenvalues --   -0.52643  -0.52509  -0.52259  -0.49971  -0.49846
 Alpha  occ. eigenvalues --   -0.48069  -0.47729  -0.46807  -0.46519  -0.46262
 Alpha  occ. eigenvalues --   -0.45836  -0.45593  -0.44989  -0.43767  -0.43746
 Alpha virt. eigenvalues --    0.20738   0.22210   0.23572   0.24305   0.25429
 Alpha virt. eigenvalues --    0.25971   0.26491   0.27747   0.29164   0.29435
 Alpha virt. eigenvalues --    0.30774   0.31342   0.31586   0.31644   0.31964

 Mulliken charges:
               1
     1  C   -0.297932
     2  C   -0.302113
     3  C   -0.475771
     4  H    0.149003
     5  H    0.149330
     6  H    0.154827
     7  H    0.151852
     8  H    0.155038
     9  H    0.154793
    10  H    0.160546
    11  C   -0.302536
    12  C   -0.299653
    13  C   -0.477435
    14  H    0.154499
    15  H    0.150029
    16  H    0.151493
    17  H    0.151901
    18  H    0.155309
    19  H    0.156730
    20  H    0.160224
    21  C   -0.298162
    22  C   -0.304348
    23  C   -0.476845
    24  H    0.148998
    25  H    0.149419
    26  H    0.157604
    27  H    0.152054
    28  H    0.154864
    29  H    0.154408
    30  H    0.161960
    31  C   -0.300719
    32  C   -0.299635
    33  C   -0.475676
    34  H    0.151212
    35  H    0.150447
    36  H    0.151708
    37  H    0.152071
    38  H    0.155352
    39  H    0.154904
    40  H    0.160251
 Sum of Mulliken charges =  -0.00000

 Dipole moment (field-independent basis, Debye):
    X=              0.0014    Y=             -0.0028    Z=             -0.0146  Tot=              0.0149
 Quadrupole moment (field-independent basis, Debye-Ang):
   XX=            -84.7325   YY=            -87.3424   ZZ=            -82.8511
   XY=             -0.0237   XZ=             -0.0745   YZ=             -0.0226

 Normal termination of Gaussian 16 at Wed May  5 16:37:39 2021.
