 Gaussian 16, Revision A.03,
 Gaussian 16:  EM64L-G16RevA.03 25-Dec-2016

 -------------
 #p 6-31g* mp2
 -------------

 ------------------------------------------------------
 Input file generated by CHIRIPA (05-May-2021 14:51:10)
 ------------------------------------------------------
 Symbolic Z-matrix:
 Charge =  0 Multiplicity = 1

                         Standard orientation:
 ---------------------------------------------------------------------
 Center     Atomic      Atomic             Coordinates (Angstroms)
 Number     Number       Type             X           Y           Z
 ---------------------------------------------------------------------
      1          6           0       -2.690745    1.096902   -0.059575
      2          6           0       -3.203591    2.507019    0.234606
      3          6           0       -2.092068    3.556713    0.213351
      4          1           0       -1.920561    0.832444    0.677869
      5          1           0       -2.198198    1.090887   -1.041795
      6          1           0       -3.696242    2.510055    1.215372
      7          1           0       -3.972780    2.768076   -0.503509
      8          1           0       -1.605685    3.582963   -0.767130
      9          1           0       -1.327576    3.323475    0.961517
     10          1           0       -2.480820    4.557445    0.426114
     11          6           0       -3.790212    0.036436   -0.041876
     12          6           0       -3.277366   -1.373681   -0.336057
     13          6           0       -4.388889   -2.423376   -0.314802
     14          1           0       -4.282759    0.042451    0.940344
     15          1           0       -4.560396    0.300894   -0.779321
     16          1           0       -2.508177   -1.634738    0.402057
     17          1           0       -2.784715   -1.376717   -1.316823
     18          1           0       -5.153381   -2.190137   -1.062969
     19          1           0       -4.875272   -2.449625    0.665679
     20          1           0       -4.000137   -3.424107   -0.527566
     21          6           0        2.543540   -0.784608   -0.173353
     22          6           0        1.923218   -1.852737    0.727915
     23          6           0        0.528997   -2.278443    0.266703
     24          1           0        1.881635    0.091763   -0.201620
     25          1           0        2.597774   -1.168640   -1.201446
     26          1           0        1.871443   -1.467322    1.754263
     27          1           0        2.586771   -2.726593    0.754192
     28          1           0        0.567183   -2.687852   -0.747954
     29          1           0       -0.152208   -1.421425    0.257800
     30          1           0        0.104249   -3.042607    0.925112
     31          6           0        3.937417   -0.348731    0.274804
     32          6           0        4.557739    0.719400   -0.626463
     33          6           0        5.951960    1.145105   -0.165251
     34          1           0        3.883184    0.035301    1.302897
     35          1           0        4.599322   -1.225102    0.303072
     36          1           0        3.894187    1.593255   -0.652740
     37          1           0        4.609514    0.333984   -1.652811
     38          1           0        6.633166    0.288087   -0.156348
     39          1           0        5.913774    1.554514    0.849406
     40          1           0        6.376707    1.909269   -0.823661
 ---------------------------------------------------------------------

 SCF Done:  E(RHF) =  -470.732863573     A.U. after   11 cycles
 E2 =    -0.1583083323D+01 EUMP2 =    -0.47231594689553D+03

 The electronic state is 1-A.
 Alpha  occ. eigenvalues --  -11.21631 -11.21583 -11.21564 -11.21488 -11.21425
 Alpha  occ. eigenvalues --  -11.21381 -11.21339 -11.21321 -11.21106 -11.21057
 Alpha  occ. eigenvalues --  -11.21011 -11.20987  -1.08436  -1.08397  -1.03536
 Alpha  occ. eigenvalues --   -1.03480  -0.95975  -0.95950  -0.87021  -0.86941
 Alpha  occ. eigenvalues --   -0.79687  -0.79477  -0.78300  -0.78152  -0.65106
 Alpha  occ. eigenvalues --   -0.64995  -0.60986  -0.60837  -0.59359  -0.59306
 Alpha  occ. eigenvalues --   -0.57580  -0.57560  -0.55267  -0.55248  -0.52707
 Alpha  occ. eigenvalues --   -0.52635  -0.52432  -0.52326  -0.49987  -0.49863
 Alpha  occ. eigenvalues --   -0.48044  -0.47752  -0.46750  -0.46531  -0.45918
 Alpha  occ. eigenvalues --   -0.45724  -0.45696  -0.45377  -0.43783  -0.43736
 Alpha virt. eigenvalues --    0.21682   0.23163   0.23902   0.24239   0.25690
 Alpha virt. eigenvalues --    0.26755   0.26936   0.27569   0.27783   0.29322
 Alpha virt. eigenvalues --    0.30881   0.31409   0.31702   0.31841   0.32124

 Mulliken charges:
               1
     1  C   -0.300393
     2  C   -0.299565
     3  C   -0.475751
     4  H    0.149848
     5  H    0.149933
     6  H    0.152056
     7  H    0.152349
     8  H    0.155282
     9  H    0.154678
    10  H    0.160474
    11  C   -0.298100
    12  C   -0.304677
    13  C   -0.475462
    14  H    0.149132
    15  H    0.149472
    16  H    0.159520
    17  H    0.152010
    18  H    0.154640
    19  H    0.154625
    20  H    0.160408
    21  C   -0.298649
    22  C   -0.299810
    23  C   -0.480655
    24  H    0.150227
    25  H    0.149380
    26  H    0.151189
    27  H    0.151584
    28  H    0.155027
    29  H    0.162382
    30  H    0.159032
    31  C   -0.298205
    32  C   -0.299681
    33  C   -0.475680
    34  H    0.149353
    35  H    0.149585
    36  H    0.152120
    37  H    0.151837
    38  H    0.155116
    39  H    0.155148
    40  H    0.160221
 Sum of Mulliken charges =  -0.00000

 Dipole moment (field-independent basis, Debye):
    X=             -0.0158    Y=              0.0033    Z=             -0.0089  Tot=              0.0184
 Quadrupole moment (field-independent basis, Debye-Ang):
   XX=            -86.2459   YY=            -85.1869   ZZ=            -83.4883
   XY=             -1.3497   XZ=             -0.3350   YZ=              0.1889

 Normal termination of Gaussian 16 at Thu May  6 02:13:50 2021.
