 Gaussian 16, Revision A.03,
 Gaussian 16:  EM64L-G16RevA.03 25-Dec-2016

 -------------
 #p 6-31g* mp2
 -------------

 ------------------------------------------------------
 Input file generated by CHIRIPA (05-May-2021 14:53:15)
 ------------------------------------------------------
 Symbolic Z-matrix:
 Charge =  0 Multiplicity = 1

                         Standard orientation:
 ---------------------------------------------------------------------
 Center     Atomic      Atomic             Coordinates (Angstroms)
 Number     Number       Type             X           Y           Z
 ---------------------------------------------------------------------
      1          6           0       -3.710554   -0.032082   -0.428656
      2          6           0       -3.833240   -1.257073    0.478169
      3          6           0       -5.226821   -1.884877    0.438329
      4          1           0       -4.459166    0.714211   -0.129371
      5          1           0       -3.953608   -0.322346   -1.460192
      6          1           0       -3.588682   -0.964889    1.507458
      7          1           0       -3.084121   -2.000459    0.176814
      8          1           0       -5.476705   -2.203874   -0.578726
      9          1           0       -5.984133   -1.162421    0.759479
     10          1           0       -5.292266   -2.758945    1.093754
     11          6           0       -2.323133    0.606626   -0.399638
     12          6           0       -2.200447    1.831617   -1.306463
     13          6           0       -0.806866    2.459421   -1.266623
     14          1           0       -2.080079    0.896890    0.631898
     15          1           0       -1.574521   -0.139667   -0.698923
     16          1           0       -2.949566    2.575003   -1.005108
     17          1           0       -2.445005    1.539433   -2.335752
     18          1           0       -0.049554    1.736965   -1.587773
     19          1           0       -0.556982    2.778418   -0.249568
     20          1           0       -0.741421    3.333489   -1.922048
     21          6           0        3.546872   -1.983398   -1.038778
     22          6           0        4.071320   -0.689389   -0.955019
     23          6           0        3.420448    0.293216   -0.203087
     24          6           0        2.241868   -0.054381    0.455257
     25          6           0        1.694332   -1.334766    0.391152
     26          6           0        2.362141   -2.301396   -0.366611
     27          1           0        4.059066   -2.740505   -1.625162
     28          1           0        4.991233   -0.439582   -1.475983
     29          1           0        3.804383    1.302820   -0.121173
     30          1           0        0.775565   -1.553801    0.921538
     31          1           0        1.952534   -3.305520   -0.429870
     32          7           0        1.543853    0.977403    1.254380
     33          8           0        0.507002    0.645856    1.825041
     34          8           0        2.046816    2.098126    1.294940
 ---------------------------------------------------------------------

 SCF Done:  E(RHF) =  -669.536321502     A.U. after   15 cycles
 E2 =    -0.2093381963D+01 EUMP2 =    -0.67162970346581D+03

 The electronic state is 1-A.
 Alpha  occ. eigenvalues --  -20.60918 -20.60906 -15.85913 -11.31263 -11.27819
 Alpha  occ. eigenvalues --  -11.27813 -11.27560 -11.26830 -11.26820 -11.21216
 Alpha  occ. eigenvalues --  -11.20873 -11.20827 -11.20782 -11.20493 -11.20238
 Alpha  occ. eigenvalues --   -1.59956  -1.39513  -1.19426  -1.08828  -1.07804
 Alpha  occ. eigenvalues --   -1.04821  -1.02953  -0.95670  -0.95387  -0.86407
 Alpha  occ. eigenvalues --   -0.86220  -0.82509  -0.79044  -0.77702  -0.77446
 Alpha  occ. eigenvalues --   -0.72155  -0.71250  -0.70531  -0.65082  -0.64827
 Alpha  occ. eigenvalues --   -0.64433  -0.62165  -0.60354  -0.58771  -0.57001
 Alpha  occ. eigenvalues --   -0.55329  -0.54667  -0.53151  -0.52912  -0.52116
 Alpha  occ. eigenvalues --   -0.51823  -0.49327  -0.48930  -0.48917  -0.47335
 Alpha  occ. eigenvalues --   -0.46070  -0.45381  -0.45096  -0.44524  -0.43177
 Alpha  occ. eigenvalues --   -0.37392  -0.36419
 Alpha virt. eigenvalues --    0.04921   0.11177   0.16390   0.21210   0.23365
 Alpha virt. eigenvalues --    0.24815   0.26191   0.27566   0.27662   0.28308
 Alpha virt. eigenvalues --    0.29064   0.31145   0.31790   0.32229   0.32463

 Mulliken charges:
               1
     1  C   -0.297953
     2  C   -0.298503
     3  C   -0.475184
     4  H    0.149714
     5  H    0.145270
     6  H    0.156979
     7  H    0.144164
     8  H    0.153263
     9  H    0.156012
    10  H    0.158059
    11  C   -0.304149
    12  C   -0.298466
    13  C   -0.483334
    14  H    0.173864
    15  H    0.138673
    16  H    0.151574
    17  H    0.146112
    18  H    0.144345
    19  H    0.175894
    20  H    0.157089
    21  C   -0.170558
    22  C   -0.218590
    23  C   -0.171032
    24  C    0.159087
    25  C   -0.171570
    26  C   -0.219019
    27  H    0.225891
    28  H    0.223791
    29  H    0.276164
    30  H    0.277246
    31  H    0.223803
    32  N    0.490919
    33  O   -0.459901
    34  O   -0.459656
 Sum of Mulliken charges =  -0.00000

 Dipole moment (field-independent basis, Debye):
    X=              2.6171    Y=             -3.5116    Z=             -2.5780  Tot=              5.0820
 Quadrupole moment (field-independent basis, Debye-Ang):
   XX=            -82.7058   YY=            -92.4182   ZZ=            -97.4971
   XY=             -6.7855   XZ=             -6.9452   YZ=             -1.5505

 Normal termination of Gaussian 16 at Wed May  5 17:09:29 2021.
