 Gaussian 16, Revision A.03,
 Gaussian 16:  EM64L-G16RevA.03 25-Dec-2016

 -------------
 #p 6-31g* mp2
 -------------

 ------------------------------------------------------
 Input file generated by CHIRIPA (05-May-2021 14:53:14)
 ------------------------------------------------------
 Symbolic Z-matrix:
 Charge =  0 Multiplicity = 1

                         Standard orientation:
 ---------------------------------------------------------------------
 Center     Atomic      Atomic             Coordinates (Angstroms)
 Number     Number       Type             X           Y           Z
 ---------------------------------------------------------------------
      1          6           0        4.182463   -0.516617   -0.500721
      2          6           0        5.260222   -1.357733    0.184075
      3          6           0        5.545624   -2.666652   -0.552859
      4          1           0        3.258433   -1.106172   -0.575142
      5          1           0        4.497295   -0.297622   -1.530438
      6          1           0        4.944080   -1.573909    1.212636
      7          1           0        6.181737   -0.766039    0.257047
      8          1           0        5.885409   -2.467453   -1.574361
      9          1           0        4.640719   -3.279913   -0.613343
     10          1           0        6.319070   -3.252238   -0.046173
     11          6           0        3.886011    0.795005    0.224188
     12          6           0        2.808253    1.636121   -0.460608
     13          6           0        2.522850    2.945040    0.276326
     14          1           0        3.571180    0.576010    1.253905
     15          1           0        4.810041    1.384560    0.298609
     16          1           0        1.886738    1.044427   -0.533579
     17          1           0        3.124395    1.852298   -1.489169
     18          1           0        3.427755    3.558302    0.336810
     19          1           0        2.183066    2.745841    1.297829
     20          1           0        1.749404    3.530626   -0.230360
     21          6           0       -0.878425    0.756595    0.778177
     22          6           0       -1.381321   -0.412583    1.358383
     23          6           0       -2.639669   -0.901262    0.994651
     24          6           0       -3.371524   -0.192404    0.043232
     25          6           0       -2.897826    0.975349   -0.552799
     26          6           0       -1.636944    1.445615   -0.173883
     27          1           0        0.100074    1.129060    1.066630
     28          1           0       -0.794452   -0.949755    2.098030
     29          1           0       -3.053127   -1.803867    1.427981
     30          1           0       -3.506116    1.489026   -1.287331
     31          1           0       -1.248918    2.353879   -0.626140
     32          7           0       -4.705022   -0.699999   -0.349872
     33          8           0       -5.330142   -0.057087   -1.190423
     34          8           0       -5.099848   -1.731153    0.190009
 ---------------------------------------------------------------------

 SCF Done:  E(RHF) =  -669.535203742     A.U. after   15 cycles
 E2 =    -0.2092049432D+01 EUMP2 =    -0.67162725317346D+03

 The electronic state is 1-A.
 Alpha  occ. eigenvalues --  -20.60755 -20.60750 -15.85809 -11.31178 -11.27747
 Alpha  occ. eigenvalues --  -11.27741 -11.27435 -11.26759 -11.26747 -11.22723
 Alpha  occ. eigenvalues --  -11.22397 -11.22351 -11.22238 -11.22124 -11.21579
 Alpha  occ. eigenvalues --   -1.59831  -1.39384  -1.19349  -1.09334  -1.08739
 Alpha  occ. eigenvalues --   -1.04752  -1.04443  -0.96891  -0.95574  -0.87896
 Alpha  occ. eigenvalues --   -0.86146  -0.82412  -0.80506  -0.79087  -0.77457
 Alpha  occ. eigenvalues --   -0.72026  -0.71154  -0.70513  -0.65974  -0.64997
 Alpha  occ. eigenvalues --   -0.64753  -0.62107  -0.61853  -0.60279  -0.58471
 Alpha  occ. eigenvalues --   -0.56280  -0.55100  -0.53582  -0.53294  -0.53084
 Alpha  occ. eigenvalues --   -0.52836  -0.50836  -0.48824  -0.48781  -0.48760
 Alpha  occ. eigenvalues --   -0.47557  -0.46627  -0.46541  -0.44789  -0.44669
 Alpha  occ. eigenvalues --   -0.37304  -0.36358
 Alpha virt. eigenvalues --    0.05043   0.11273   0.16434   0.18952   0.22575
 Alpha virt. eigenvalues --    0.23963   0.25194   0.25934   0.26610   0.27487
 Alpha virt. eigenvalues --    0.29165   0.30119   0.31083   0.31274   0.32437

 Mulliken charges:
               1
     1  C   -0.299055
     2  C   -0.300112
     3  C   -0.476197
     4  H    0.150003
     5  H    0.152216
     6  H    0.151038
     7  H    0.153372
     8  H    0.156664
     9  H    0.155871
    10  H    0.162082
    11  C   -0.297919
    12  C   -0.308451
    13  C   -0.480793
    14  H    0.145429
    15  H    0.153480
    16  H    0.150100
    17  H    0.158277
    18  H    0.164072
    19  H    0.150128
    20  H    0.158484
    21  C   -0.174690
    22  C   -0.221172
    23  C   -0.170646
    24  C    0.158486
    25  C   -0.170749
    26  C   -0.221760
    27  H    0.235820
    28  H    0.223332
    29  H    0.275474
    30  H    0.275631
    31  H    0.224445
    32  N    0.488028
    33  O   -0.460408
    34  O   -0.460478
 Sum of Mulliken charges =  -0.00000

 Dipole moment (field-independent basis, Debye):
    X=              4.9160    Y=              1.7830    Z=              1.3177  Tot=              5.3928
 Quadrupole moment (field-independent basis, Debye-Ang):
   XX=           -125.7427   YY=            -93.3434   ZZ=            -93.0242
   XY=             -6.7144   XZ=             -4.5803   YZ=             -3.7648

 Normal termination of Gaussian 16 at Thu May  6 18:45:56 2021.
