 Gaussian 16, Revision A.03,
 Gaussian 16:  EM64L-G16RevA.03 25-Dec-2016

 -------------
 #p 6-31g* mp2
 -------------

 ------------------------------------------------------
 Input file generated by CHIRIPA (05-May-2021 14:55:20)
 ------------------------------------------------------
 Symbolic Z-matrix:
 Charge =  0 Multiplicity = 1

                         Standard orientation:
 ---------------------------------------------------------------------
 Center     Atomic      Atomic             Coordinates (Angstroms)
 Number     Number       Type             X           Y           Z
 ---------------------------------------------------------------------
      1          6           0        4.218042    1.474544    0.567108
      2          6           0        4.631361    0.160823    0.811703
      3          6           0        3.810360   -0.917391    0.468252
      4          6           0        2.576822   -0.644266   -0.120880
      5          6           0        2.136906    0.653423   -0.377331
      6          6           0        2.974327    1.716225   -0.025583
      7          1           0        4.862194    2.306141    0.837131
      8          1           0        5.596728   -0.029860    1.271867
      9          1           0        4.105528   -1.944315    0.646355
     10          1           0        1.169116    0.811995   -0.837391
     11          1           0        2.650738    2.735442   -0.216719
     12          7           0        1.698973   -1.777565   -0.488867
     13          8           0        0.616838   -1.510338   -1.006757
     14          8           0        2.109673   -2.911613   -0.252439
     15          6           0       -4.206119    0.347712    0.145684
     16          6           0       -4.328381   -1.155627    0.396698
     17          6           0       -5.780057   -1.616290    0.531674
     18          1           0       -4.689658    0.891009    0.969069
     19          1           0       -4.760205    0.606204   -0.767315
     20          1           0       -3.773078   -1.411426    1.308191
     21          1           0       -3.844327   -1.695405   -0.427286
     22          1           0       -6.342504   -1.389577   -0.379838
     23          1           0       -6.270851   -1.103985    1.365500
     24          1           0       -5.844231   -2.694113    0.710675
     25          6           0       -2.760924    0.823448    0.008507
     26          6           0       -2.638663    2.326787   -0.242507
     27          6           0       -1.186987    2.787451   -0.377483
     28          1           0       -2.206840    0.564955    0.921506
     29          1           0       -2.277386    0.280151   -0.814878
     30          1           0       -3.122718    2.866565    0.581476
     31          1           0       -3.193967    2.582586   -1.154000
     32          1           0       -0.696194    2.275144   -1.211309
     33          1           0       -0.624540    2.560737    0.534029
     34          1           0       -1.122814    3.865273   -0.556484
 ---------------------------------------------------------------------

 SCF Done:  E(RHF) =  -669.535730980     A.U. after   15 cycles
 E2 =    -0.2091878766D+01 EUMP2 =    -0.67162760974658D+03

 The electronic state is 1-A.
 Alpha  occ. eigenvalues --  -20.60760 -20.60754 -15.85805 -11.31116 -11.27706
 Alpha  occ. eigenvalues --  -11.27630 -11.27444 -11.26716 -11.26678 -11.21657
 Alpha  occ. eigenvalues --  -11.21575 -11.21034 -11.20996 -11.20947 -11.20592
 Alpha  occ. eigenvalues --   -1.59829  -1.39383  -1.19297  -1.08705  -1.08140
 Alpha  occ. eigenvalues --   -1.04693  -1.03355  -0.95843  -0.95542  -0.86884
 Alpha  occ. eigenvalues --   -0.86092  -0.82374  -0.79434  -0.77885  -0.77401
 Alpha  occ. eigenvalues --   -0.72026  -0.71148  -0.70416  -0.64952  -0.64788
 Alpha  occ. eigenvalues --   -0.64682  -0.62073  -0.60752  -0.59228  -0.57407
 Alpha  occ. eigenvalues --   -0.55240  -0.55109  -0.53039  -0.52837  -0.52569
 Alpha  occ. eigenvalues --   -0.52196  -0.49807  -0.48781  -0.48777  -0.47719
 Alpha  occ. eigenvalues --   -0.46414  -0.45442  -0.45307  -0.44779  -0.43555
 Alpha  occ. eigenvalues --   -0.37288  -0.36288
 Alpha virt. eigenvalues --    0.05083   0.11349   0.16552   0.20633   0.23136
 Alpha virt. eigenvalues --    0.24158   0.25996   0.26741   0.27682   0.28279
 Alpha virt. eigenvalues --    0.29791   0.30021   0.31547   0.31723   0.32268

 Mulliken charges:
               1
     1  C   -0.170645
     2  C   -0.219128
     3  C   -0.170377
     4  C    0.157987
     5  C   -0.176514
     6  C   -0.222938
     7  H    0.225346
     8  H    0.223120
     9  H    0.275256
    10  H    0.285494
    11  H    0.225233
    12  N    0.488135
    13  O   -0.461659
    14  O   -0.460445
    15  C   -0.298692
    16  C   -0.300309
    17  C   -0.475857
    18  H    0.146725
    19  H    0.148343
    20  H    0.152747
    21  H    0.160183
    22  H    0.153979
    23  H    0.152671
    24  H    0.161071
    25  C   -0.302653
    26  C   -0.298416
    27  C   -0.483591
    28  H    0.149406
    29  H    0.163886
    30  H    0.151941
    31  H    0.153253
    32  H    0.152213
    33  H    0.154376
    34  H    0.159860
 Sum of Mulliken charges =  -0.00000

 Dipole moment (field-independent basis, Debye):
    X=              3.0328    Y=              3.8937    Z=              1.2625  Tot=              5.0944
 Quadrupole moment (field-independent basis, Debye-Ang):
   XX=            -78.0323   YY=            -98.6487   ZZ=            -94.2957
   XY=              5.6444   XZ=              4.7944   YZ=             -2.3263

 Normal termination of Gaussian 16 at Thu May  6 04:33:24 2021.
