 Gaussian 16, Revision A.03,
 Gaussian 16:  EM64L-G16RevA.03 25-Dec-2016

 -------------
 #p 6-31g* mp2
 -------------

 ------------------------------------------------------
 Input file generated by CHIRIPA (05-May-2021 14:55:25)
 ------------------------------------------------------
 Symbolic Z-matrix:
 Charge =  0 Multiplicity = 1

                         Standard orientation:
 ---------------------------------------------------------------------
 Center     Atomic      Atomic             Coordinates (Angstroms)
 Number     Number       Type             X           Y           Z
 ---------------------------------------------------------------------
      1          6           0       -0.529229   -1.637699    1.060772
      2          6           0       -1.754745   -1.589553    1.733315
      3          6           0       -2.855568   -0.947770    1.158119
      4          6           0       -2.694750   -0.362062   -0.096621
      5          6           0       -1.486780   -0.393195   -0.791696
      6          6           0       -0.399387   -1.040419   -0.197369
      7          1           0        0.320701   -2.138364    1.515029
      8          1           0       -1.858491   -2.052541    2.710517
      9          1           0       -3.815830   -0.895643    1.656717
     10          1           0       -1.414015    0.077472   -1.764628
     11          1           0        0.551158   -1.076253   -0.721988
     12          7           0       -3.853034    0.320245   -0.715681
     13          8           0       -3.685472    0.828541   -1.822115
     14          8           0       -4.906525    0.333822   -0.082746
     15          6           0        2.787544    1.221809   -0.184956
     16          6           0        2.333023    2.020882    1.036877
     17          6           0        1.499022    3.247083    0.664490
     18          1           0        3.370749    1.876392   -0.847027
     19          1           0        1.904223    0.905664   -0.756963
     20          1           0        3.216877    2.334247    1.607157
     21          1           0        1.750993    1.364271    1.696210
     22          1           0        0.600173    2.949214    0.114994
     23          1           0        2.074386    3.924702    0.025436
     24          1           0        1.184689    3.803685    1.552886
     25          6           0        3.622315   -0.007054    0.171111
     26          6           0        4.076835   -0.806127   -1.050722
     27          6           0        4.910835   -2.032326   -0.678334
     28          1           0        4.505634    0.309092    0.743119
     29          1           0        3.039109   -0.661637    0.833183
     30          1           0        4.658864   -0.149515   -1.710054
     31          1           0        3.192981   -1.119491   -1.621002
     32          1           0        4.335472   -2.709947   -0.039281
     33          1           0        5.809685   -1.734458   -0.128839
     34          1           0        5.225170   -2.588930   -1.566730
 ---------------------------------------------------------------------

 SCF Done:  E(RHF) =  -669.535258533     A.U. after   15 cycles
 E2 =    -0.2093081808D+01 EUMP2 =    -0.67162834034104D+03

 The electronic state is 1-A.
 Alpha  occ. eigenvalues --  -20.60804 -20.60799 -15.85858 -11.31252 -11.27821
 Alpha  occ. eigenvalues --  -11.27813 -11.27568 -11.26840 -11.26821 -11.22580
 Alpha  occ. eigenvalues --  -11.22338 -11.22163 -11.22103 -11.21922 -11.21396
 Alpha  occ. eigenvalues --   -1.59879  -1.39431  -1.19425  -1.09256  -1.08809
 Alpha  occ. eigenvalues --   -1.04832  -1.04232  -0.96677  -0.95644  -0.87685
 Alpha  occ. eigenvalues --   -0.86229  -0.82481  -0.80318  -0.79056  -0.77521
 Alpha  occ. eigenvalues --   -0.72076  -0.71202  -0.70531  -0.66102  -0.65076
 Alpha  occ. eigenvalues --   -0.64687  -0.62154  -0.61639  -0.60052  -0.58283
 Alpha  occ. eigenvalues --   -0.55977  -0.55327  -0.53338  -0.53156  -0.53099
 Alpha  occ. eigenvalues --   -0.52889  -0.50625  -0.48839  -0.48829  -0.48619
 Alpha  occ. eigenvalues --   -0.47384  -0.46561  -0.46504  -0.44831  -0.44515
 Alpha  occ. eigenvalues --   -0.37395  -0.36410
 Alpha virt. eigenvalues --    0.04986   0.11130   0.16378   0.18424   0.23317
 Alpha virt. eigenvalues --    0.23486   0.24420   0.25391   0.27056   0.28667
 Alpha virt. eigenvalues --    0.29747   0.30168   0.31066   0.31445   0.31553

 Mulliken charges:
               1
     1  C   -0.174238
     2  C   -0.218360
     3  C   -0.170743
     4  C    0.159035
     5  C   -0.173743
     6  C   -0.220540
     7  H    0.226418
     8  H    0.223844
     9  H    0.275925
    10  H    0.276183
    11  H    0.231110
    12  N    0.488078
    13  O   -0.460126
    14  O   -0.460195
    15  C   -0.299514
    16  C   -0.299826
    17  C   -0.476548
    18  H    0.153775
    19  H    0.143386
    20  H    0.152954
    21  H    0.151373
    22  H    0.157804
    23  H    0.156233
    24  H    0.162562
    25  C   -0.300403
    26  C   -0.302123
    27  C   -0.475073
    28  H    0.155124
    29  H    0.140974
    30  H    0.157642
    31  H    0.145387
    32  H    0.151375
    33  H    0.158612
    34  H    0.163638
 Sum of Mulliken charges =  -0.00000

 Dipole moment (field-independent basis, Debye):
    X=              4.1747    Y=             -2.3166    Z=              2.1999  Tot=              5.2568
 Quadrupole moment (field-independent basis, Debye-Ang):
   XX=           -114.5074   YY=            -93.7901   ZZ=            -92.2549
   XY=              6.9493   XZ=             -9.1342   YZ=             -1.5525

 Normal termination of Gaussian 16 at Wed May  5 17:39:55 2021.
