 Gaussian 16, Revision A.03,
 Gaussian 16:  EM64L-G16RevA.03 25-Dec-2016

 -------------
 #p 6-31g* mp2
 -------------

 ------------------------------------------------------
 Input file generated by CHIRIPA (05-May-2021 14:55:20)
 ------------------------------------------------------
 Symbolic Z-matrix:
 Charge =  0 Multiplicity = 1

                         Standard orientation:
 ---------------------------------------------------------------------
 Center     Atomic      Atomic             Coordinates (Angstroms)
 Number     Number       Type             X           Y           Z
 ---------------------------------------------------------------------
      1          6           0        5.351136    0.074487   -1.073771
      2          6           0        4.359318    1.056609   -1.164630
      3          6           0        3.132194    0.888570   -0.516189
      4          6           0        2.929780   -0.279122    0.217851
      5          6           0        3.898228   -1.275824    0.327319
      6          6           0        5.117837   -1.086548   -0.329399
      7          1           0        6.301476    0.213273   -1.580710
      8          1           0        4.537724    1.959295   -1.742016
      9          1           0        2.346958    1.632846   -0.569814
     10          1           0        3.691119   -2.165020    0.910290
     11          1           0        5.886271   -1.850959   -0.257084
     12          7           0        1.634657   -0.468259    0.908707
     13          8           0        1.481037   -1.505985    1.549146
     14          8           0        0.797682    0.424803    0.796680
     15          6           0       -3.766610    1.010367   -0.326202
     16          6           0       -2.860155    1.638093    0.733177
     17          6           0       -2.354546    3.024289    0.332412
     18          1           0       -3.217634    0.941730   -1.275339
     19          1           0       -4.622252    1.675525   -0.507410
     20          1           0       -2.007197    0.971294    0.913335
     21          1           0       -3.411288    1.705068    1.679951
     22          1           0       -3.193695    3.708899    0.171977
     23          1           0       -1.781625    2.970956   -0.598995
     24          1           0       -1.708444    3.454516    1.103980
     25          6           0       -4.280065   -0.375616    0.059990
     26          6           0       -5.186519   -1.003341   -0.999390
     27          6           0       -5.692128   -2.389537   -0.598624
     28          1           0       -3.424421   -1.040773    0.241197
     29          1           0       -4.829039   -0.306978    1.009126
     30          1           0       -4.635385   -1.070317   -1.946165
     31          1           0       -6.039478   -0.336542   -1.179548
     32          1           0       -6.265049   -2.336205    0.332783
     33          1           0       -4.852979   -3.074148   -0.438190
     34          1           0       -6.338229   -2.819764   -1.370192
 ---------------------------------------------------------------------

 SCF Done:  E(RHF) =  -669.536315661     A.U. after   15 cycles
 E2 =    -0.2090962887D+01 EUMP2 =    -0.67162727854831D+03

 The electronic state is 1-A.
 Alpha  occ. eigenvalues --  -20.61011 -20.60999 -15.86038 -11.31332 -11.27891
 Alpha  occ. eigenvalues --  -11.27886 -11.27625 -11.26893 -11.26883 -11.20813
 Alpha  occ. eigenvalues --  -11.20381 -11.20364 -11.20274 -11.20079 -11.19957
 Alpha  occ. eigenvalues --   -1.60068  -1.39624  -1.19497  -1.08907  -1.07366
 Alpha  occ. eigenvalues --   -1.04889  -1.02484  -0.95753  -0.94988  -0.86291
 Alpha  occ. eigenvalues --   -0.86015  -0.82588  -0.78562  -0.77643  -0.77141
 Alpha  occ. eigenvalues --   -0.72262  -0.71380  -0.70605  -0.65155  -0.64892
 Alpha  occ. eigenvalues --   -0.63989  -0.62236  -0.59867  -0.58364  -0.56576
 Alpha  occ. eigenvalues --   -0.55395  -0.54288  -0.53223  -0.52980  -0.51706
 Alpha  occ. eigenvalues --   -0.51414  -0.49114  -0.49010  -0.48884  -0.46877
 Alpha  occ. eigenvalues --   -0.45565  -0.45050  -0.44723  -0.44498  -0.42749
 Alpha  occ. eigenvalues --   -0.37476  -0.36489
 Alpha virt. eigenvalues --    0.04883   0.11166   0.16385   0.21275   0.23881
 Alpha virt. eigenvalues --    0.25215   0.27205   0.27635   0.28194   0.28673
 Alpha virt. eigenvalues --    0.28969   0.30884   0.32128   0.32662   0.32843

 Mulliken charges:
               1
     1  C   -0.170504
     2  C   -0.218572
     3  C   -0.170988
     4  C    0.157460
     5  C   -0.170442
     6  C   -0.218626
     7  H    0.226150
     8  H    0.224073
     9  H    0.276191
    10  H    0.275909
    11  H    0.223933
    12  N    0.491741
    13  O   -0.458922
    14  O   -0.463159
    15  C   -0.296714
    16  C   -0.311608
    17  C   -0.471941
    18  H    0.146461
    19  H    0.143720
    20  H    0.183950
    21  H    0.146331
    22  H    0.148049
    23  H    0.150226
    24  H    0.159598
    25  C   -0.299118
    26  C   -0.298682
    27  C   -0.475258
    28  H    0.156234
    29  H    0.147962
    30  H    0.149802
    31  H    0.149282
    32  H    0.154390
    33  H    0.156105
    34  H    0.156967
 Sum of Mulliken charges =  -0.00000

 Dipole moment (field-independent basis, Debye):
    X=              4.9273    Y=              0.5442    Z=             -2.3389  Tot=              5.4814
 Quadrupole moment (field-independent basis, Debye-Ang):
   XX=            -68.8349   YY=            -92.8488   ZZ=            -95.8829
   XY=             -1.3792   XZ=             -6.3705   YZ=             -0.6999

 Normal termination of Gaussian 16 at Thu May  6 10:51:29 2021.
