 Gaussian 16, Revision A.03,
 Gaussian 16:  EM64L-G16RevA.03 25-Dec-2016

 -------------
 #p 6-31g* mp2
 -------------

 ------------------------------------------------------
 Input file generated by CHIRIPA (05-May-2021 14:55:21)
 ------------------------------------------------------
 Symbolic Z-matrix:
 Charge =  0 Multiplicity = 1

                         Standard orientation:
 ---------------------------------------------------------------------
 Center     Atomic      Atomic             Coordinates (Angstroms)
 Number     Number       Type             X           Y           Z
 ---------------------------------------------------------------------
      1          6           0       -1.253933   -1.551943    0.534677
      2          6           0       -2.486463   -2.004311    1.017123
      3          6           0       -3.668383   -1.337137    0.681725
      4          6           0       -3.580626   -0.215933   -0.141981
      5          6           0       -2.367783    0.259235   -0.638484
      6          6           0       -1.198624   -0.423603   -0.290133
      7          1           0       -0.340746   -2.076303    0.800254
      8          1           0       -2.532436   -2.880318    1.657860
      9          1           0       -4.635940   -1.665760    1.041250
     10          1           0       -2.353775    1.135395   -1.275324
     11          1           0       -0.242827   -0.070025   -0.666271
     12          7           0       -4.825117    0.498665   -0.503908
     13          8           0       -4.720938    1.483987   -1.231180
     14          8           0       -5.881163    0.059914   -0.053462
     15          6           0        4.034383    1.112913    0.282014
     16          6           0        2.589030    1.057216    0.777832
     17          6           0        2.030328    2.436922    1.127199
     18          1           0        4.662175    1.579742    1.053308
     19          1           0        4.086978    1.765105   -0.600750
     20          1           0        2.538937    0.404221    1.658573
     21          1           0        1.964640    0.590292    0.005345
     22          1           0        2.051221    3.093983    0.251736
     23          1           0        2.628781    2.906856    1.914357
     24          1           0        0.996002    2.373798    1.479398
     25          6           0        4.606945   -0.258622   -0.071248
     26          6           0        6.052299   -0.202924   -0.567065
     27          6           0        6.611001   -1.582631   -0.916432
     28          1           0        4.554350   -0.910814    0.811517
     29          1           0        3.979154   -0.725450   -0.842542
     30          1           0        6.676688    0.264000    0.205422
     31          1           0        6.102391    0.450071   -1.447806
     32          1           0        6.012548   -2.052563   -1.703590
     33          1           0        6.590107   -2.239692   -0.040970
     34          1           0        7.645328   -1.519506   -1.268631
 ---------------------------------------------------------------------

 SCF Done:  E(RHF) =  -669.535555680     A.U. after   15 cycles
 E2 =    -0.2091144020D+01 EUMP2 =    -0.67162669969959D+03

 The electronic state is 1-A.
 Alpha  occ. eigenvalues --  -20.60737 -20.60732 -15.85791 -11.31151 -11.27724
 Alpha  occ. eigenvalues --  -11.27716 -11.27454 -11.26735 -11.26703 -11.22623
 Alpha  occ. eigenvalues --  -11.22212 -11.22172 -11.22110 -11.21818 -11.21607
 Alpha  occ. eigenvalues --   -1.59813  -1.39367  -1.19323  -1.09205  -1.08717
 Alpha  occ. eigenvalues --   -1.04728  -1.04269  -0.96683  -0.95553  -0.87698
 Alpha  occ. eigenvalues --   -0.86126  -0.82387  -0.80360  -0.79024  -0.77435
 Alpha  occ. eigenvalues --   -0.72009  -0.71136  -0.70425  -0.65862  -0.64974
 Alpha  occ. eigenvalues --   -0.64737  -0.62136  -0.61617  -0.60053  -0.58301
 Alpha  occ. eigenvalues --   -0.55962  -0.55218  -0.53378  -0.53112  -0.53039
 Alpha  occ. eigenvalues --   -0.52830  -0.50622  -0.48791  -0.48764  -0.48633
 Alpha  occ. eigenvalues --   -0.47392  -0.46553  -0.46470  -0.44773  -0.44518
 Alpha  occ. eigenvalues --   -0.37300  -0.36328
 Alpha virt. eigenvalues --    0.05099   0.11278   0.16574   0.19740   0.22501
 Alpha virt. eigenvalues --    0.23740   0.25124   0.26244   0.27207   0.28118
 Alpha virt. eigenvalues --    0.28730   0.30025   0.31150   0.31255   0.31727

 Mulliken charges:
               1
     1  C   -0.172732
     2  C   -0.218694
     3  C   -0.171142
     4  C    0.158790
     5  C   -0.172521
     6  C   -0.222956
     7  H    0.226324
     8  H    0.223254
     9  H    0.275466
    10  H    0.275872
    11  H    0.231193
    12  N    0.488012
    13  O   -0.460481
    14  O   -0.460589
    15  C   -0.297924
    16  C   -0.303055
    17  C   -0.477726
    18  H    0.153233
    19  H    0.151687
    20  H    0.152332
    21  H    0.141727
    22  H    0.156931
    23  H    0.159474
    24  H    0.162986
    25  C   -0.298478
    26  C   -0.300140
    27  C   -0.476135
    28  H    0.148935
    29  H    0.146451
    30  H    0.153710
    31  H    0.153455
    32  H    0.155013
    33  H    0.155192
    34  H    0.162535
 Sum of Mulliken charges =  -0.00000

 Dipole moment (field-independent basis, Debye):
    X=              4.5739    Y=             -2.4501    Z=              1.3274  Tot=              5.3559
 Quadrupole moment (field-independent basis, Debye-Ang):
   XX=           -124.6821   YY=            -92.5808   ZZ=            -93.3547
   XY=             10.8027   XZ=             -6.3260   YZ=             -2.2910

 Normal termination of Gaussian 16 at Wed May  5 15:56:42 2021.
