 Gaussian 16, Revision A.03,
 Gaussian 16:  EM64L-G16RevA.03 25-Dec-2016

 -------------
 #p 6-31g* mp2
 -------------

 ------------------------------------------------------
 Input file generated by CHIRIPA (05-May-2021 14:55:24)
 ------------------------------------------------------
 Symbolic Z-matrix:
 Charge =  0 Multiplicity = 1

                         Standard orientation:
 ---------------------------------------------------------------------
 Center     Atomic      Atomic             Coordinates (Angstroms)
 Number     Number       Type             X           Y           Z
 ---------------------------------------------------------------------
      1          6           0       -0.869758   -1.728559   -1.077561
      2          6           0       -2.185100   -2.191085   -0.965910
      3          6           0       -3.182882   -1.371414   -0.430073
      4          6           0       -2.828544   -0.089015   -0.013916
      5          6           0       -1.527024    0.400572   -0.112090
      6          6           0       -0.545489   -0.436485   -0.651046
      7          1           0       -0.100968   -2.372052   -1.495023
      8          1           0       -2.439823   -3.194071   -1.296333
      9          1           0       -4.209106   -1.704108   -0.332108
     10          1           0       -1.303569    1.405200    0.225858
     11          1           0        0.475191   -0.074621   -0.736547
     12          7           0       -3.876251    0.787937    0.555002
     13          8           0       -3.538358    1.913678    0.914406
     14          8           0       -5.015497    0.332944    0.630743
     15          6           0        3.250730    1.022420    0.332440
     16          6           0        3.167584    1.967959   -0.866320
     17          6           0        2.869365    3.411728   -0.460871
     18          1           0        2.303641    1.060627    0.887875
     19          1           0        4.030470    1.379914    1.019170
     20          1           0        2.389180    1.608013   -1.551260
     21          1           0        4.114912    1.927352   -1.419074
     22          1           0        3.650212    3.794155    0.204432
     23          1           0        1.914675    3.473003    0.071495
     24          1           0        2.814282    4.070472   -1.333157
     25          6           0        3.548296   -0.424539   -0.056780
     26          6           0        3.631442   -1.370077    1.141982
     27          6           0        3.929661   -2.813848    0.736532
     28          1           0        2.768555   -0.782033   -0.743510
     29          1           0        4.495385   -0.462746   -0.612214
     30          1           0        2.684114   -1.329471    1.694736
     31          1           0        4.409845   -1.010132    1.826922
     32          1           0        4.884351   -2.875121    0.204166
     33          1           0        3.148814   -3.196275    0.071229
     34          1           0        3.984744   -3.472592    1.608818
 ---------------------------------------------------------------------

 SCF Done:  E(RHF) =  -669.535203047     A.U. after   15 cycles
 E2 =    -0.2092507761D+01 EUMP2 =    -0.67162771080776D+03

 The electronic state is 1-A.
 Alpha  occ. eigenvalues --  -20.60761 -20.60756 -15.85814 -11.31184 -11.27754
 Alpha  occ. eigenvalues --  -11.27749 -11.27496 -11.26770 -11.26720 -11.22537
 Alpha  occ. eigenvalues --  -11.22498 -11.22432 -11.22351 -11.21902 -11.21755
 Alpha  occ. eigenvalues --   -1.59836  -1.39390  -1.19355  -1.09419  -1.08748
 Alpha  occ. eigenvalues --   -1.04759  -1.04397  -0.96848  -0.95585  -0.87852
 Alpha  occ. eigenvalues --   -0.86162  -0.82418  -0.80456  -0.79226  -0.77470
 Alpha  occ. eigenvalues --   -0.72033  -0.71159  -0.70470  -0.66298  -0.65008
 Alpha  occ. eigenvalues --   -0.64611  -0.62098  -0.61780  -0.60199  -0.58445
 Alpha  occ. eigenvalues --   -0.56170  -0.55246  -0.53490  -0.53258  -0.53084
 Alpha  occ. eigenvalues --   -0.52818  -0.50801  -0.48794  -0.48788  -0.48762
 Alpha  occ. eigenvalues --   -0.47513  -0.46730  -0.46704  -0.44794  -0.44680
 Alpha  occ. eigenvalues --   -0.37336  -0.36358
 Alpha virt. eigenvalues --    0.05064   0.11240   0.16516   0.18148   0.22290
 Alpha virt. eigenvalues --    0.23444   0.25157   0.25750   0.26585   0.28228
 Alpha virt. eigenvalues --    0.29337   0.30696   0.31080   0.31735   0.32254

 Mulliken charges:
               1
     1  C   -0.173846
     2  C   -0.218316
     3  C   -0.171188
     4  C    0.159124
     5  C   -0.173859
     6  C   -0.228633
     7  H    0.225653
     8  H    0.223471
     9  H    0.275636
    10  H    0.275416
    11  H    0.239387
    12  N    0.488005
    13  O   -0.460413
    14  O   -0.460460
    15  C   -0.303816
    16  C   -0.303011
    17  C   -0.475567
    18  H    0.147227
    19  H    0.157007
    20  H    0.145769
    21  H    0.156419
    22  H    0.158834
    23  H    0.154848
    24  H    0.164179
    25  C   -0.299633
    26  C   -0.301202
    27  C   -0.474819
    28  H    0.137164
    29  H    0.155032
    30  H    0.154420
    31  H    0.156371
    32  H    0.157422
    33  H    0.149120
    34  H    0.164258
 Sum of Mulliken charges =  -0.00000

 Dipole moment (field-independent basis, Debye):
    X=              3.9247    Y=             -3.0196    Z=             -1.9151  Tot=              5.3093
 Quadrupole moment (field-independent basis, Debye-Ang):
   XX=           -111.6377   YY=            -92.5702   ZZ=            -95.4092
   XY=             11.9957   XZ=              6.5650   YZ=              0.5610

 Normal termination of Gaussian 16 at Thu May  6 14:20:33 2021.
