 Gaussian 16, Revision A.03,
 Gaussian 16:  EM64L-G16RevA.03 25-Dec-2016

 -------------
 #p 6-31g* mp2
 -------------

 ------------------------------------------------------
 Input file generated by CHIRIPA (05-May-2021 14:51:11)
 ------------------------------------------------------
 Symbolic Z-matrix:
 Charge =  0 Multiplicity = 1

                         Standard orientation:
 ---------------------------------------------------------------------
 Center     Atomic      Atomic             Coordinates (Angstroms)
 Number     Number       Type             X           Y           Z
 ---------------------------------------------------------------------
      1          6           0       -4.221118    0.641485    0.287285
      2          6           0       -5.506378    1.173876   -0.347264
      3          6           0       -5.994114    2.469002    0.302777
      4          1           0       -4.391338    0.473733    1.359586
      5          1           0       -3.437962    1.408490    0.211358
      6          1           0       -6.286483    0.405569   -0.271397
      7          1           0       -5.333135    1.340198   -1.418217
      8          1           0       -5.235785    3.253695    0.214488
      9          1           0       -6.194550    2.313756    1.367824
     10          1           0       -6.914025    2.831905   -0.166186
     11          6           0       -3.721008   -0.652810   -0.351792
     12          6           0       -2.435748   -1.185201    0.282757
     13          6           0       -1.948012   -2.480328   -0.367285
     14          1           0       -4.504164   -1.419815   -0.275866
     15          1           0       -3.550788   -0.485059   -1.424093
     16          1           0       -2.608991   -1.351523    1.353709
     17          1           0       -1.655642   -0.416894    0.206890
     18          1           0       -1.747576   -2.325081   -1.432331
     19          1           0       -2.706341   -3.265020   -0.278996
     20          1           0       -1.028101   -2.843230    0.101678
     21          6           0        3.490428   -0.492862   -0.290074
     22          6           0        2.958335   -1.541112    0.687696
     23          6           0        1.998055   -2.531298    0.028012
     24          1           0        2.644002    0.052429   -0.729580
     25          1           0        3.999784   -1.001234   -1.120442
     26          1           0        2.451339   -1.030862    1.516682
     27          1           0        3.806136   -2.083841    1.125070
     28          1           0        2.496274   -3.066453   -0.786843
     29          1           0        1.133779   -2.007491   -0.393006
     30          1           0        1.629808   -3.271735    0.744955
     31          6           0        4.451698    0.504187    0.354581
     32          6           0        4.983790    1.552437   -0.623189
     33          6           0        5.944071    2.542623    0.036496
     34          1           0        3.942343    1.012559    1.184949
     35          1           0        5.298124   -0.041103    0.794087
     36          1           0        4.135990    2.095166   -1.060562
     37          1           0        5.490787    1.042187   -1.452175
     38          1           0        6.808346    2.018816    0.457513
     39          1           0        5.445852    3.077778    0.851350
     40          1           0        6.312318    3.283060   -0.680447
 ---------------------------------------------------------------------

 SCF Done:  E(RHF) =  -470.732817456     A.U. after   11 cycles
 E2 =    -0.1582580724D+01 EUMP2 =    -0.47231539817978D+03

 The electronic state is 1-A.
 Alpha  occ. eigenvalues --  -11.21611 -11.21601 -11.21600 -11.21591 -11.21415
 Alpha  occ. eigenvalues --  -11.21399 -11.21355 -11.21339 -11.21079 -11.21073
 Alpha  occ. eigenvalues --  -11.21042 -11.20949  -1.08441  -1.08417  -1.03559
 Alpha  occ. eigenvalues --   -1.03491  -0.96045  -0.95905  -0.87092  -0.86893
 Alpha  occ. eigenvalues --   -0.79650  -0.79529  -0.78250  -0.78235  -0.65092
 Alpha  occ. eigenvalues --   -0.65035  -0.61033  -0.60858  -0.59450  -0.59251
 Alpha  occ. eigenvalues --   -0.57625  -0.57565  -0.55372  -0.55146  -0.52906
 Alpha  occ. eigenvalues --   -0.52535  -0.52420  -0.52257  -0.49979  -0.49802
 Alpha  occ. eigenvalues --   -0.47931  -0.47865  -0.46638  -0.46586  -0.45790
 Alpha  occ. eigenvalues --   -0.45774  -0.45716  -0.45704  -0.43884  -0.43640
 Alpha virt. eigenvalues --    0.21774   0.23083   0.23548   0.25057   0.26394
 Alpha virt. eigenvalues --    0.26825   0.27108   0.27438   0.27581   0.28967
 Alpha virt. eigenvalues --    0.29943   0.31265   0.31596   0.31895   0.32070

 Mulliken charges:
               1
     1  C   -0.298197
     2  C   -0.299641
     3  C   -0.475689
     4  H    0.149612
     5  H    0.149193
     6  H    0.151984
     7  H    0.151924
     8  H    0.155085
     9  H    0.155170
    10  H    0.160264
    11  C   -0.298119
    12  C   -0.300305
    13  C   -0.481963
    14  H    0.149741
    15  H    0.149572
    16  H    0.151890
    17  H    0.150880
    18  H    0.154171
    19  H    0.154640
    20  H    0.168739
    21  C   -0.298493
    22  C   -0.299706
    23  C   -0.480980
    24  H    0.149430
    25  H    0.149606
    26  H    0.152008
    27  H    0.151862
    28  H    0.155339
    29  H    0.162281
    30  H    0.159623
    31  C   -0.298322
    32  C   -0.299635
    33  C   -0.475712
    34  H    0.149561
    35  H    0.149741
    36  H    0.151809
    37  H    0.151956
    38  H    0.155223
    39  H    0.155198
    40  H    0.160259
 Sum of Mulliken charges =  -0.00000

 Dipole moment (field-independent basis, Debye):
    X=              0.0210    Y=             -0.0168    Z=             -0.0007  Tot=              0.0269
 Quadrupole moment (field-independent basis, Debye-Ang):
   XX=            -84.6725   YY=            -85.6003   ZZ=            -84.5484
   XY=             -0.3151   XZ=             -0.6514   YZ=             -0.8370

 Normal termination of Gaussian 16 at Wed May  5 23:04:21 2021.
