 Gaussian 16, Revision A.03,
 Gaussian 16:  EM64L-G16RevA.03 25-Dec-2016

 -------------
 #p 6-31g* mp2
 -------------

 ------------------------------------------------------
 Input file generated by CHIRIPA (05-May-2021 14:55:22)
 ------------------------------------------------------
 Symbolic Z-matrix:
 Charge =  0 Multiplicity = 1

                         Standard orientation:
 ---------------------------------------------------------------------
 Center     Atomic      Atomic             Coordinates (Angstroms)
 Number     Number       Type             X           Y           Z
 ---------------------------------------------------------------------
      1          6           0       -3.110987    2.273953    0.407404
      2          6           0       -4.084233    1.271600    0.339571
      3          6           0       -3.719587   -0.057299    0.103753
      4          6           0       -2.366477   -0.349636   -0.060330
      5          6           0       -1.373380    0.626679    0.001762
      6          6           0       -1.761047    1.948867    0.238581
      7          1           0       -3.403194    3.303667    0.590981
      8          1           0       -5.133366    1.521148    0.470300
      9          1           0       -4.452369   -0.853011    0.046394
     10          1           0       -0.335476    0.347166   -0.132570
     11          1           0       -1.003044    2.725240    0.290752
     12          7           0       -1.968258   -1.752929   -0.310509
     13          8           0       -0.769477   -1.984516   -0.451678
     14          8           0       -2.862455   -2.594672   -0.360694
     15          6           0        3.291052    0.860841    0.244888
     16          6           0        2.748779    1.940911   -0.691792
     17          6           0        3.113011    3.354674   -0.237473
     18          1           0        2.901997    1.033706    1.257657
     19          1           0        4.383827    0.956140    0.309350
     20          1           0        1.657490    1.842733   -0.755552
     21          1           0        3.139017    1.765344   -1.702489
     22          1           0        4.200049    3.476505   -0.191591
     23          1           0        2.710105    3.554333    0.760726
     24          1           0        2.715421    4.111054   -0.921338
     25          6           0        2.935147   -0.557848   -0.195999
     26          6           0        3.477419   -1.637919    0.740682
     27          6           0        3.113188   -3.051682    0.286363
     28          1           0        1.842371   -0.653147   -0.260461
     29          1           0        3.324202   -0.730713   -1.208767
     30          1           0        3.087181   -1.462351    1.751378
     31          1           0        4.568709   -1.539740    0.804441
     32          1           0        3.516093   -3.251340   -0.711837
     33          1           0        2.026149   -3.173512    0.240479
     34          1           0        3.510778   -3.808061    0.970228
 ---------------------------------------------------------------------

 SCF Done:  E(RHF) =  -669.535683245     A.U. after   15 cycles
 E2 =    -0.2093389802D+01 EUMP2 =    -0.67162907304612D+03

 The electronic state is 1-A.
 Alpha  occ. eigenvalues --  -20.60948 -20.60941 -15.85981 -11.31268 -11.27831
 Alpha  occ. eigenvalues --  -11.27806 -11.27563 -11.26834 -11.26815 -11.22094
 Alpha  occ. eigenvalues --  -11.21576 -11.21487 -11.21097 -11.21029 -11.20091
 Alpha  occ. eigenvalues --   -1.60008  -1.39566  -1.19436  -1.08846  -1.08394
 Alpha  occ. eigenvalues --   -1.04830  -1.03403  -0.95827  -0.95695  -0.86842
 Alpha  occ. eigenvalues --   -0.86234  -0.82534  -0.79569  -0.78147  -0.77527
 Alpha  occ. eigenvalues --   -0.72210  -0.71319  -0.70561  -0.65148  -0.65096
 Alpha  occ. eigenvalues --   -0.64774  -0.62163  -0.60798  -0.59298  -0.57410
 Alpha  occ. eigenvalues --   -0.55344  -0.55107  -0.53161  -0.52929  -0.52550
 Alpha  occ. eigenvalues --   -0.52215  -0.49817  -0.48961  -0.48922  -0.47823
 Alpha  occ. eigenvalues --   -0.46639  -0.45602  -0.45438  -0.44969  -0.43655
 Alpha  occ. eigenvalues --   -0.37414  -0.36426
 Alpha virt. eigenvalues --    0.04930   0.11224   0.16416   0.19028   0.23246
 Alpha virt. eigenvalues --    0.23970   0.25159   0.27048   0.27529   0.28218
 Alpha virt. eigenvalues --    0.29510   0.31150   0.31621   0.31827   0.32700

 Mulliken charges:
               1
     1  C   -0.169935
     2  C   -0.219359
     3  C   -0.169063
     4  C    0.155147
     5  C   -0.177677
     6  C   -0.225585
     7  H    0.226116
     8  H    0.223793
     9  H    0.275793
    10  H    0.292437
    11  H    0.226125
    12  N    0.492123
    13  O   -0.468913
    14  O   -0.458680
    15  C   -0.299260
    16  C   -0.301204
    17  C   -0.476269
    18  H    0.146600
    19  H    0.151533
    20  H    0.139425
    21  H    0.157400
    22  H    0.159694
    23  H    0.151964
    24  H    0.158853
    25  C   -0.314019
    26  C   -0.297270
    27  C   -0.483730
    28  H    0.167356
    29  H    0.150970
    30  H    0.149395
    31  H    0.148230
    32  H    0.152551
    33  H    0.179366
    34  H    0.156093
 Sum of Mulliken charges =  -0.00000

 Dipole moment (field-independent basis, Debye):
    X=             -1.4880    Y=              4.7928    Z=              0.8330  Tot=              5.0871
 Quadrupole moment (field-independent basis, Debye-Ang):
   XX=            -82.7691   YY=            -99.4418   ZZ=            -95.5588
   XY=            -10.0051   XZ=             -3.0379   YZ=             -0.7812

 Normal termination of Gaussian 16 at Thu May  6 17:35:34 2021.
