 Gaussian 16, Revision A.03,
 Gaussian 16:  EM64L-G16RevA.03 25-Dec-2016

 -------------
 #p 6-31g* mp2
 -------------

 ------------------------------------------------------
 Input file generated by CHIRIPA (05-May-2021 14:53:16)
 ------------------------------------------------------
 Symbolic Z-matrix:
 Charge =  0 Multiplicity = 1

                         Standard orientation:
 ---------------------------------------------------------------------
 Center     Atomic      Atomic             Coordinates (Angstroms)
 Number     Number       Type             X           Y           Z
 ---------------------------------------------------------------------
      1          6           0        4.121930    0.803733    0.267659
      2          6           0        3.298193    2.086985    0.154933
      3          6           0        3.922979    3.258972    0.912485
      4          1           0        4.233395    0.539089    1.328076
      5          1           0        5.134437    0.991369   -0.115769
      6          1           0        2.287125    1.896605    0.537181
      7          1           0        3.188514    2.348500   -0.905348
      8          1           0        4.923993    3.477331    0.526619
      9          1           0        4.017483    3.022868    1.977344
     10          1           0        3.317835    4.166071    0.818514
     11          6           0        3.510182   -0.376874   -0.484445
     12          6           0        4.333919   -1.660126   -0.371719
     13          6           0        3.709133   -2.832112   -1.129271
     14          1           0        2.497675   -0.564509   -0.101017
     15          1           0        3.398718   -0.112229   -1.544862
     16          1           0        4.443598   -1.921641    0.688562
     17          1           0        5.344987   -1.469746   -0.753966
     18          1           0        3.614629   -2.596008   -2.194130
     19          1           0        2.708119   -3.050471   -0.743405
     20          1           0        4.314277   -3.739211   -1.035299
     21          6           0       -1.210336   -1.536510    1.248025
     22          6           0       -2.513558   -1.501569    1.754890
     23          6           0       -3.502865   -0.746020    1.118520
     24          6           0       -3.152503   -0.034318   -0.027786
     25          6           0       -1.862995   -0.049010   -0.557165
     26          6           0       -0.889779   -0.811398    0.095647
     27          1           0       -0.448069   -2.126095    1.748758
     28          1           0       -2.765373   -2.063707    2.649673
     29          1           0       -4.519650   -0.701215    1.489408
     30          1           0       -1.642169    0.521829   -1.450920
     31          1           0        0.121495   -0.836673   -0.300246
     32          7           0       -4.191320    0.769168   -0.710186
     33          8           0       -3.857160    1.387337   -1.718570
     34          8           0       -5.320036    0.765557   -0.223744
 ---------------------------------------------------------------------

 SCF Done:  E(RHF) =  -669.535592687     A.U. after   15 cycles
 E2 =    -0.2091274444D+01 EUMP2 =    -0.67162686713062D+03

 The electronic state is 1-A.
 Alpha  occ. eigenvalues --  -20.60741 -20.60736 -15.85794 -11.31160 -11.27733
 Alpha  occ. eigenvalues --  -11.27720 -11.27479 -11.26751 -11.26708 -11.22465
 Alpha  occ. eigenvalues --  -11.22387 -11.22215 -11.22103 -11.21940 -11.21524
 Alpha  occ. eigenvalues --   -1.59816  -1.39370  -1.19333  -1.09241  -1.08730
 Alpha  occ. eigenvalues --   -1.04734  -1.04253  -0.96712  -0.95565  -0.87722
 Alpha  occ. eigenvalues --   -0.86137  -0.82395  -0.80328  -0.79073  -0.77437
 Alpha  occ. eigenvalues --   -0.72013  -0.71139  -0.70447  -0.65911  -0.64985
 Alpha  occ. eigenvalues --   -0.64722  -0.62093  -0.61638  -0.60079  -0.58318
 Alpha  occ. eigenvalues --   -0.56015  -0.55242  -0.53367  -0.53160  -0.53064
 Alpha  occ. eigenvalues --   -0.52814  -0.50652  -0.48784  -0.48767  -0.48627
 Alpha  occ. eigenvalues --   -0.47369  -0.46576  -0.46507  -0.44775  -0.44533
 Alpha  occ. eigenvalues --   -0.37319  -0.36335
 Alpha virt. eigenvalues --    0.05091   0.11271   0.16561   0.19248   0.22686
 Alpha virt. eigenvalues --    0.23644   0.24798   0.26310   0.27236   0.28192
 Alpha virt. eigenvalues --    0.29174   0.30611   0.31075   0.31251   0.31684

 Mulliken charges:
               1
     1  C   -0.297863
     2  C   -0.301060
     3  C   -0.476161
     4  H    0.150187
     5  H    0.153030
     6  H    0.150460
     7  H    0.153418
     8  H    0.156556
     9  H    0.155570
    10  H    0.163438
    11  C   -0.304052
    12  C   -0.299931
    13  C   -0.475709
    14  H    0.141827
    15  H    0.152368
    16  H    0.152143
    17  H    0.156420
    18  H    0.158043
    19  H    0.148195
    20  H    0.164182
    21  C   -0.173055
    22  C   -0.218547
    23  C   -0.171210
    24  C    0.158941
    25  C   -0.172592
    26  C   -0.227013
    27  H    0.224807
    28  H    0.223268
    29  H    0.275521
    30  H    0.276411
    31  H    0.235366
    32  N    0.487983
    33  O   -0.460348
    34  O   -0.460593
 Sum of Mulliken charges =  -0.00000

 Dipole moment (field-independent basis, Debye):
    X=              3.8733    Y=             -2.7719    Z=              2.3810  Tot=              5.3249
 Quadrupole moment (field-independent basis, Debye-Ang):
   XX=           -114.8546   YY=            -95.4067   ZZ=            -92.4193
   XY=              9.8506   XZ=            -11.1366   YZ=             -1.8150

 Normal termination of Gaussian 16 at Thu May  6 05:56:25 2021.
