 Gaussian 16, Revision A.03,
 Gaussian 16:  EM64L-G16RevA.03 25-Dec-2016

 -------------
 #p 6-31g* mp2
 -------------

 ------------------------------------------------------
 Input file generated by CHIRIPA (05-May-2021 14:51:14)
 ------------------------------------------------------
 Symbolic Z-matrix:
 Charge =  0 Multiplicity = 1

                         Standard orientation:
 ---------------------------------------------------------------------
 Center     Atomic      Atomic             Coordinates (Angstroms)
 Number     Number       Type             X           Y           Z
 ---------------------------------------------------------------------
      1          6           0        3.884500   -0.073307   -0.257033
      2          6           0        4.051216   -1.350207    0.567418
      3          6           0        4.970900   -2.371060   -0.103279
      4          1           0        3.485850   -0.333205   -1.247223
      5          1           0        4.872335    0.377207   -0.426189
      6          1           0        3.063221   -1.797435    0.736144
      7          1           0        4.449335   -1.087218    1.555828
      8          1           0        5.968820   -1.947900   -0.257199
      9          1           0        4.574831   -2.662152   -1.081540
     10          1           0        5.076005   -3.276083    0.503144
     11          6           0        2.967879    0.956917    0.400366
     12          6           0        2.801162    2.233817   -0.424084
     13          6           0        1.881479    3.254671    0.246612
     14          1           0        1.980043    0.506403    0.569522
     15          1           0        3.366528    1.216815    1.390556
     16          1           0        2.403044    1.970828   -1.412494
     17          1           0        3.789157    2.681045   -0.592811
     18          1           0        2.277548    3.545762    1.224873
     19          1           0        0.883559    2.831510    0.400533
     20          1           0        1.776373    4.159693   -0.359810
     21          6           0       -2.814700   -0.859532    0.115459
     22          6           0       -1.533940   -0.408313   -0.587423
     23          6           0       -0.319319   -1.253651   -0.202854
     24          1           0       -2.664110   -0.814287    1.202759
     25          1           0       -3.007576   -1.913115   -0.129807
     26          1           0       -1.344287    0.644504   -0.342015
     27          1           0       -1.687660   -0.454453   -1.673174
     28          1           0       -0.483157   -2.304330   -0.463296
     29          1           0       -0.137833   -1.199129    0.875427
     30          1           0        0.585273   -0.913815   -0.716749
     31          6           0       -4.037679   -0.024078   -0.258793
     32          6           0       -5.318439   -0.475298    0.444089
     33          6           0       -6.533060    0.370040    0.059521
     34          1           0       -3.844803    1.029505   -0.013527
     35          1           0       -4.188269   -0.069322   -1.346092
     36          1           0       -5.164719   -0.429156    1.529841
     37          1           0       -5.508092   -1.528114    0.198681
     38          1           0       -6.714545    0.315519   -1.018761
     39          1           0       -6.369222    1.420720    0.319963
     40          1           0       -7.437652    0.030206    0.573415
 ---------------------------------------------------------------------

 SCF Done:  E(RHF) =  -470.732846927     A.U. after   11 cycles
 E2 =    -0.1583620081D+01 EUMP2 =    -0.47231646700817D+03

 The electronic state is 1-A.
 Alpha  occ. eigenvalues --  -11.21710 -11.21635 -11.21564 -11.21530 -11.21465
 Alpha  occ. eigenvalues --  -11.21401 -11.21340 -11.21233 -11.21178 -11.21095
 Alpha  occ. eigenvalues --  -11.21065 -11.21021  -1.08500  -1.08372  -1.03604
 Alpha  occ. eigenvalues --   -1.03482  -0.96072  -0.95921  -0.87083  -0.86946
 Alpha  occ. eigenvalues --   -0.79673  -0.79545  -0.78306  -0.78180  -0.65191
 Alpha  occ. eigenvalues --   -0.65004  -0.61035  -0.60849  -0.59420  -0.59300
 Alpha  occ. eigenvalues --   -0.57673  -0.57536  -0.55403  -0.55186  -0.52768
 Alpha  occ. eigenvalues --   -0.52619  -0.52485  -0.52337  -0.50059  -0.49825
 Alpha  occ. eigenvalues --   -0.47977  -0.47864  -0.46712  -0.46574  -0.45866
 Alpha  occ. eigenvalues --   -0.45770  -0.45720  -0.45579  -0.43815  -0.43714
 Alpha virt. eigenvalues --    0.20139   0.22758   0.23566   0.24791   0.25965
 Alpha virt. eigenvalues --    0.26368   0.26779   0.27241   0.28079   0.29699
 Alpha virt. eigenvalues --    0.30174   0.31302   0.31733   0.31978   0.32372

 Mulliken charges:
               1
     1  C   -0.298581
     2  C   -0.302174
     3  C   -0.475546
     4  H    0.148650
     5  H    0.149566
     6  H    0.155402
     7  H    0.151601
     8  H    0.154902
     9  H    0.155043
    10  H    0.160088
    11  C   -0.306815
    12  C   -0.299291
    13  C   -0.476594
    14  H    0.159509
    15  H    0.149100
    16  H    0.151311
    17  H    0.151876
    18  H    0.155185
    19  H    0.155243
    20  H    0.160220
    21  C   -0.298579
    22  C   -0.302116
    23  C   -0.481070
    24  H    0.150053
    25  H    0.149886
    26  H    0.152900
    27  H    0.152543
    28  H    0.156143
    29  H    0.156007
    30  H    0.164884
    31  C   -0.298390
    32  C   -0.299719
    33  C   -0.475760
    34  H    0.149758
    35  H    0.149771
    36  H    0.152077
    37  H    0.151983
    38  H    0.155223
    39  H    0.155327
    40  H    0.160384
 Sum of Mulliken charges =  -0.00000

 Dipole moment (field-independent basis, Debye):
    X=             -0.0565    Y=             -0.0278    Z=              0.0081  Tot=              0.0635
 Quadrupole moment (field-independent basis, Debye-Ang):
   XX=            -85.5656   YY=            -85.2301   ZZ=            -84.1180
   XY=              1.4795   XZ=              0.6254   YZ=              0.4968

 Normal termination of Gaussian 16 at Wed May  5 15:22:32 2021.
