 Gaussian 16, Revision A.03,
 Gaussian 16:  EM64L-G16RevA.03 25-Dec-2016

 -------------
 #p 6-31g* mp2
 -------------

 ------------------------------------------------------
 Input file generated by CHIRIPA (05-May-2021 14:53:15)
 ------------------------------------------------------
 Symbolic Z-matrix:
 Charge =  0 Multiplicity = 1

                         Standard orientation:
 ---------------------------------------------------------------------
 Center     Atomic      Atomic             Coordinates (Angstroms)
 Number     Number       Type             X           Y           Z
 ---------------------------------------------------------------------
      1          6           0       -3.468475   -0.352732    0.138374
      2          6           0       -4.351347   -1.370915   -0.584001
      3          6           0       -4.249917   -2.773109    0.017128
      4          1           0       -2.424436   -0.693016    0.104706
      5          1           0       -3.752245   -0.319225    1.199387
      6          1           0       -4.066925   -1.401485   -1.643617
      7          1           0       -5.393381   -1.028071   -0.548775
      8          1           0       -4.553493   -2.764210    1.068966
      9          1           0       -3.219501   -3.139745   -0.032096
     10          1           0       -4.889070   -3.484995   -0.514437
     11          6           0       -3.559028    1.053728   -0.451030
     12          6           0       -2.676156    2.071911    0.271345
     13          6           0       -2.777586    3.474105   -0.329784
     14          1           0       -3.275258    1.020222   -1.512043
     15          1           0       -4.603067    1.394013   -0.417362
     16          1           0       -1.634122    1.729067    0.236119
     17          1           0       -2.960578    2.102481    1.330961
     18          1           0       -3.808002    3.840741   -0.280560
     19          1           0       -2.474010    3.465206   -1.381622
     20          1           0       -2.138433    4.185992    0.201781
     21          6           0        0.472013   -0.771360    1.097515
     22          6           0        1.469201   -0.206009    1.899086
     23          6           0        2.732326    0.073901    1.369265
     24          6           0        2.964874   -0.225727    0.027835
     25          6           0        1.991983   -0.789199   -0.796345
     26          6           0        0.736120   -1.060640   -0.245275
     27          1           0       -0.506393   -0.985511    1.517346
     28          1           0        1.266920    0.019705    2.942246
     29          1           0        3.522521    0.511401    1.967266
     30          1           0        2.223437   -1.003082   -1.832733
     31          1           0       -0.036401   -1.499718   -0.870148
     32          7           0        4.298244    0.066119   -0.544311
     33          8           0        4.477949   -0.207243   -1.729054
     34          8           0        5.138386    0.562701    0.202819
 ---------------------------------------------------------------------

 SCF Done:  E(RHF) =  -669.535318585     A.U. after   15 cycles
 E2 =    -0.2092604356D+01 EUMP2 =    -0.67162792294045D+03

 The electronic state is 1-A.
 Alpha  occ. eigenvalues --  -20.60775 -20.60770 -15.85830 -11.31204 -11.27783
 Alpha  occ. eigenvalues --  -11.27771 -11.27480 -11.26800 -11.26772 -11.22557
 Alpha  occ. eigenvalues --  -11.22494 -11.22261 -11.22173 -11.22020 -11.21566
 Alpha  occ. eigenvalues --   -1.59851  -1.39404  -1.19381  -1.09335  -1.08768
 Alpha  occ. eigenvalues --   -1.04786  -1.04324  -0.96789  -0.95604  -0.87796
 Alpha  occ. eigenvalues --   -0.86185  -0.82438  -0.80407  -0.79173  -0.77483
 Alpha  occ. eigenvalues --   -0.72048  -0.71175  -0.70492  -0.66002  -0.65025
 Alpha  occ. eigenvalues --   -0.64766  -0.62138  -0.61709  -0.60158  -0.58402
 Alpha  occ. eigenvalues --   -0.56099  -0.55274  -0.53437  -0.53202  -0.53110
 Alpha  occ. eigenvalues --   -0.52876  -0.50727  -0.48808  -0.48803  -0.48713
 Alpha  occ. eigenvalues --   -0.47452  -0.46664  -0.46594  -0.44808  -0.44609
 Alpha  occ. eigenvalues --   -0.37320  -0.36390
 Alpha virt. eigenvalues --    0.05031   0.11191   0.16474   0.19366   0.22686
 Alpha virt. eigenvalues --    0.23579   0.25281   0.25906   0.27201   0.27668
 Alpha virt. eigenvalues --    0.29703   0.30067   0.30966   0.31278   0.31636

 Mulliken charges:
               1
     1  C   -0.304485
     2  C   -0.300084
     3  C   -0.475934
     4  H    0.141941
     5  H    0.149847
     6  H    0.153015
     7  H    0.156583
     8  H    0.156541
     9  H    0.149135
    10  H    0.165074
    11  C   -0.297565
    12  C   -0.304754
    13  C   -0.475882
    14  H    0.151079
    15  H    0.153013
    16  H    0.155006
    17  H    0.149947
    18  H    0.156093
    19  H    0.157224
    20  H    0.162539
    21  C   -0.171484
    22  C   -0.219621
    23  C   -0.170742
    24  C    0.158292
    25  C   -0.170921
    26  C   -0.221342
    27  H    0.231049
    28  H    0.223978
    29  H    0.275718
    30  H    0.275649
    31  H    0.223731
    32  N    0.488095
    33  O   -0.460435
    34  O   -0.460299
 Sum of Mulliken charges =  -0.00000

 Dipole moment (field-independent basis, Debye):
    X=             -4.8376    Y=             -0.9644    Z=              1.9926  Tot=              5.3200
 Quadrupole moment (field-independent basis, Debye-Ang):
   XX=           -121.4801   YY=            -95.2340   ZZ=            -90.4938
   XY=             -1.5805   XZ=              7.1341   YZ=              1.7764

 Normal termination of Gaussian 16 at Thu May  6 13:51:43 2021.
