 Gaussian 16, Revision A.03,
 Gaussian 16:  EM64L-G16RevA.03 25-Dec-2016

 -------------
 #p 6-31g* mp2
 -------------

 ------------------------------------------------------
 Input file generated by CHIRIPA (05-May-2021 14:51:10)
 ------------------------------------------------------
 Symbolic Z-matrix:
 Charge =  0 Multiplicity = 1

                         Standard orientation:
 ---------------------------------------------------------------------
 Center     Atomic      Atomic             Coordinates (Angstroms)
 Number     Number       Type             X           Y           Z
 ---------------------------------------------------------------------
      1          6           0        2.513379   -1.382512   -0.379201
      2          6           0        0.988093   -1.331702   -0.473584
      3          6           0        0.395386   -2.573387   -1.140450
      4          1           0        2.933308   -1.494314   -1.388213
      5          1           0        2.809312   -2.278667    0.183582
      6          1           0        0.695077   -0.435177   -1.034832
      7          1           0        0.571753   -1.219815    0.535752
      8          1           0        0.658949   -3.475313   -0.578609
      9          1           0        0.782973   -2.686217   -2.158117
     10          1           0       -0.696090   -2.516083   -1.197525
     11          6           0        3.120694   -0.148188    0.285134
     12          6           0        4.645980   -0.198998    0.379517
     13          6           0        5.238687    1.042687    1.046382
     14          1           0        2.824761    0.747967   -0.277649
     15          1           0        2.700765   -0.036386    1.294145
     16          1           0        5.062319   -0.310885   -0.629819
     17          1           0        4.938996   -1.095523    0.940765
     18          1           0        4.851100    1.155517    2.064049
     19          1           0        4.975124    1.944613    0.484542
     20          1           0        6.330162    0.985384    1.103458
     21          6           0       -2.324013    1.326911    0.205180
     22          6           0       -1.611885    1.874876   -1.031992
     23          6           0       -0.628810    2.997708   -0.699418
     24          1           0       -2.857030    2.146293    0.706628
     25          1           0       -1.573712    0.959191    0.918780
     26          1           0       -2.363365    2.240188   -1.743639
     27          1           0       -1.080660    1.054056   -1.530661
     28          1           0        0.142219    2.642469   -0.008101
     29          1           0       -1.147773    3.835340   -0.222290
     30          1           0       -0.130948    3.374718   -1.598228
     31          6           0       -3.310059    0.203789   -0.111112
     32          6           0       -4.022188   -0.344176    1.126059
     33          6           0       -5.005263   -1.467009    0.793486
     34          1           0       -4.060360    0.571509   -0.824712
     35          1           0       -2.777043   -0.615594   -0.612561
     36          1           0       -4.553413    0.476644    1.624728
     37          1           0       -3.270708   -0.709488    1.837706
     38          1           0       -4.486300   -2.304640    0.316359
     39          1           0       -5.776293   -1.111769    0.102169
     40          1           0       -5.503124   -1.844017    1.692295
 ---------------------------------------------------------------------

 SCF Done:  E(RHF) =  -470.733241150     A.U. after   11 cycles
 E2 =    -0.1583959099D+01 EUMP2 =    -0.47231720024896D+03

 The electronic state is 1-A.
 Alpha  occ. eigenvalues --  -11.21673 -11.21636 -11.21592 -11.21552 -11.21462
 Alpha  occ. eigenvalues --  -11.21402 -11.21379 -11.21313 -11.21164 -11.21090
 Alpha  occ. eigenvalues --  -11.21066 -11.21052  -1.08501  -1.08394  -1.03599
 Alpha  occ. eigenvalues --   -1.03501  -0.96038  -0.95958  -0.87058  -0.86970
 Alpha  occ. eigenvalues --   -0.79689  -0.79545  -0.78315  -0.78214  -0.65186
 Alpha  occ. eigenvalues --   -0.64995  -0.61109  -0.60806  -0.59396  -0.59327
 Alpha  occ. eigenvalues --   -0.57650  -0.57572  -0.55322  -0.55242  -0.52736
 Alpha  occ. eigenvalues --   -0.52656  -0.52467  -0.52382  -0.50014  -0.49881
 Alpha  occ. eigenvalues --   -0.48076  -0.47814  -0.46903  -0.46429  -0.45956
 Alpha  occ. eigenvalues --   -0.45858  -0.45628  -0.45467  -0.43839  -0.43763
 Alpha virt. eigenvalues --    0.19664   0.22497   0.23604   0.24429   0.25535
 Alpha virt. eigenvalues --    0.26050   0.26464   0.27997   0.29057   0.29288
 Alpha virt. eigenvalues --    0.29940   0.31308   0.31738   0.31817   0.32213

 Mulliken charges:
               1
     1  C   -0.297717
     2  C   -0.307113
     3  C   -0.478375
     4  H    0.149891
     5  H    0.149742
     6  H    0.158938
     7  H    0.152098
     8  H    0.155826
     9  H    0.155710
    10  H    0.161564
    11  C   -0.299748
    12  C   -0.299658
    13  C   -0.475841
    14  H    0.150913
    15  H    0.149316
    16  H    0.152105
    17  H    0.152048
    18  H    0.155199
    19  H    0.155524
    20  H    0.160387
    21  C   -0.298750
    22  C   -0.303851
    23  C   -0.477769
    24  H    0.149379
    25  H    0.151362
    26  H    0.151834
    27  H    0.155942
    28  H    0.157121
    29  H    0.155368
    30  H    0.159433
    31  C   -0.301758
    32  C   -0.299476
    33  C   -0.475668
    34  H    0.149490
    35  H    0.152443
    36  H    0.151982
    37  H    0.151707
    38  H    0.154949
    39  H    0.155215
    40  H    0.160238
 Sum of Mulliken charges =  -0.00000

 Dipole moment (field-independent basis, Debye):
    X=              0.0317    Y=             -0.0092    Z=             -0.0011  Tot=              0.0330
 Quadrupole moment (field-independent basis, Debye-Ang):
   XX=            -85.0992   YY=            -85.5037   ZZ=            -84.1476
   XY=             -1.5830   XZ=             -0.3320   YZ=             -0.9203

 Normal termination of Gaussian 16 at Thu May  6 00:38:09 2021.
