 Gaussian 16, Revision A.03,
 Gaussian 16:  EM64L-G16RevA.03 25-Dec-2016

 -------------
 #p 6-31g* mp2
 -------------

 ------------------------------------------------------
 Input file generated by CHIRIPA (05-May-2021 14:55:19)
 ------------------------------------------------------
 Symbolic Z-matrix:
 Charge =  0 Multiplicity = 1

                         Standard orientation:
 ---------------------------------------------------------------------
 Center     Atomic      Atomic             Coordinates (Angstroms)
 Number     Number       Type             X           Y           Z
 ---------------------------------------------------------------------
      1          6           0        2.916344    2.136209   -0.492817
      2          6           0        4.009669    1.283835   -0.306754
      3          6           0        3.814189   -0.078955   -0.063568
      4          6           0        2.505960   -0.557750   -0.012757
      5          6           0        1.396175    0.266135   -0.194081
      6          6           0        1.615380    1.625539   -0.435987
      7          1           0        3.077412    3.193542   -0.681232
      8          1           0        5.021129    1.677653   -0.350352
      9          1           0        4.642535   -0.761208    0.084052
     10          1           0        0.399641   -0.155678   -0.144959
     11          1           0        0.764395    2.285159   -0.580110
     12          7           0        2.286456   -1.998683    0.244015
     13          8           0        1.123993   -2.395820    0.284000
     14          8           0        3.281028   -2.703664    0.400427
     15          6           0       -3.406354   -0.309183    0.278004
     16          6           0       -4.318486   -1.043612   -0.705160
     17          6           0       -4.614267   -2.481109   -0.276312
     18          1           0       -2.463834   -0.864552    0.378836
     19          1           0       -3.875796   -0.307188    1.271491
     20          1           0       -3.848102   -1.043016   -1.696803
     21          1           0       -5.258869   -0.486328   -0.803810
     22          1           0       -5.105869   -2.497918    0.701771
     23          1           0       -3.687087   -3.057768   -0.196296
     24          1           0       -5.267952   -2.987527   -0.993316
     25          6           0       -3.101517    1.129067   -0.137009
     26          6           0       -2.189385    1.863496    0.846155
     27          6           0       -1.893604    3.300993    0.417306
     28          1           0       -2.632076    1.127072   -1.130496
     29          1           0       -4.044037    1.684436   -0.237841
     30          1           0       -1.249002    1.306212    0.944805
     31          1           0       -2.659769    1.862900    1.837798
     32          1           0       -2.820784    3.877653    0.337290
     33          1           0       -1.402002    3.317802   -0.560776
     34          1           0       -1.239919    3.807411    1.134311
 ---------------------------------------------------------------------

 SCF Done:  E(RHF) =  -669.534914796     A.U. after   15 cycles
 E2 =    -0.2093144419D+01 EUMP2 =    -0.67162805921440D+03

 The electronic state is 1-A.
 Alpha  occ. eigenvalues --  -20.60788 -20.60783 -15.85839 -11.31180 -11.27747
 Alpha  occ. eigenvalues --  -11.27727 -11.27469 -11.26762 -11.26689 -11.22357
 Alpha  occ. eigenvalues --  -11.22062 -11.21894 -11.21627 -11.21541 -11.20864
 Alpha  occ. eigenvalues --   -1.59861  -1.39416  -1.19349  -1.08843  -1.08741
 Alpha  occ. eigenvalues --   -1.04759  -1.03916  -0.96374  -0.95588  -0.87393
 Alpha  occ. eigenvalues --   -0.86142  -0.82427  -0.80028  -0.78552  -0.77480
 Alpha  occ. eigenvalues --   -0.72059  -0.71182  -0.70472  -0.65579  -0.64984
 Alpha  occ. eigenvalues --   -0.64772  -0.62271  -0.61109  -0.59785  -0.57939
 Alpha  occ. eigenvalues --   -0.55723  -0.55218  -0.53101  -0.53053  -0.52841
 Alpha  occ. eigenvalues --   -0.52747  -0.50305  -0.48816  -0.48808  -0.48300
 Alpha  occ. eigenvalues --   -0.47080  -0.46088  -0.45974  -0.44825  -0.44149
 Alpha  occ. eigenvalues --   -0.37326  -0.36333
 Alpha virt. eigenvalues --    0.05026   0.11285   0.16462   0.18815   0.22857
 Alpha virt. eigenvalues --    0.23681   0.24932   0.26153   0.27464   0.28599
 Alpha virt. eigenvalues --    0.29739   0.31093   0.31149   0.31768   0.32630

 Mulliken charges:
               1
     1  C   -0.173011
     2  C   -0.218517
     3  C   -0.170867
     4  C    0.158533
     5  C   -0.178742
     6  C   -0.225211
     7  H    0.226223
     8  H    0.223398
     9  H    0.275479
    10  H    0.280271
    11  H    0.236166
    12  N    0.488220
    13  O   -0.461831
    14  O   -0.460121
    15  C   -0.303873
    16  C   -0.299420
    17  C   -0.477658
    18  H    0.157679
    19  H    0.151710
    20  H    0.152068
    21  H    0.150752
    22  H    0.154841
    23  H    0.163393
    24  H    0.160167
    25  C   -0.299404
    26  C   -0.306784
    27  C   -0.481246
    28  H    0.145828
    29  H    0.152464
    30  H    0.148936
    31  H    0.159177
    32  H    0.162944
    33  H    0.146411
    34  H    0.162027
 Sum of Mulliken charges =  -0.00000

 Dipole moment (field-independent basis, Debye):
    X=              0.6308    Y=              5.0105    Z=             -0.8344  Tot=              5.1185
 Quadrupole moment (field-independent basis, Debye-Ang):
   XX=            -84.7727   YY=           -101.7405   ZZ=            -95.3512
   XY=             11.1472   XZ=             -2.6154   YZ=              0.8616

 Normal termination of Gaussian 16 at Wed May  5 22:07:57 2021.
