 Gaussian 16, Revision A.03,
 Gaussian 16:  EM64L-G16RevA.03 25-Dec-2016

 -------------
 #p 6-31g* mp2
 -------------

 ------------------------------------------------------
 Input file generated by CHIRIPA (05-May-2021 14:51:11)
 ------------------------------------------------------
 Symbolic Z-matrix:
 Charge =  0 Multiplicity = 1

                         Standard orientation:
 ---------------------------------------------------------------------
 Center     Atomic      Atomic             Coordinates (Angstroms)
 Number     Number       Type             X           Y           Z
 ---------------------------------------------------------------------
      1          6           0        3.056815   -0.160046   -0.358294
      2          6           0        3.728502    1.213301   -0.331081
      3          6           0        4.447125    1.545921   -1.639033
      4          1           0        3.814437   -0.927624   -0.567530
      5          1           0        2.339930   -0.193444   -1.190372
      6          1           0        4.442903    1.244572    0.501547
      7          1           0        2.969226    1.977679   -0.121696
      8          1           0        3.742856    1.542276   -2.477241
      9          1           0        5.224906    0.805004   -1.850457
     10          1           0        4.920178    2.532009   -1.597667
     11          6           0        2.334254   -0.506915    0.942212
     12          6           0        1.662567   -1.880261    0.914999
     13          6           0        0.943944   -2.212881    2.222951
     14          1           0        3.051139   -0.473517    1.774290
     15          1           0        1.576632    0.260663    1.151448
     16          1           0        2.421843   -2.644639    0.705613
     17          1           0        0.948166   -1.911533    0.082371
     18          1           0        0.166163   -1.471964    2.434375
     19          1           0        1.648213   -2.209236    3.061159
     20          1           0        0.470891   -3.198970    2.181585
     21          6           0       -3.053600   -0.322998   -0.447706
     22          6           0       -2.184609   -1.320641   -1.214222
     23          6           0       -2.914884   -2.629062   -1.518408
     24          1           0       -3.388929   -0.784280    0.491293
     25          1           0       -3.959270   -0.111063   -1.032718
     26          1           0       -1.280190   -1.529573   -0.628569
     27          1           0       -1.851154   -0.856862   -2.151416
     28          1           0       -3.807851   -2.440278   -2.123032
     29          1           0       -3.233644   -3.116810   -0.591534
     30          1           0       -2.275313   -3.327675   -2.066813
     31          6           0       -2.337468    0.989959   -0.136213
     32          6           0       -3.206459    1.987602    0.630304
     33          6           0       -2.476185    3.296022    0.934490
     34          1           0       -1.431798    0.778024    0.448800
     35          1           0       -2.002141    1.451241   -1.075211
     36          1           0       -3.539915    1.523823    1.567497
     37          1           0       -4.110879    2.196534    0.044651
     38          1           0       -2.157426    3.783772    0.007616
     39          1           0       -1.583218    3.107239    1.539115
     40          1           0       -3.115757    3.994635    1.482895
 ---------------------------------------------------------------------

 SCF Done:  E(RHF) =  -470.733403422     A.U. after   11 cycles
 E2 =    -0.1583434729D+01 EUMP2 =    -0.47231683815104D+03

 The electronic state is 1-A.
 Alpha  occ. eigenvalues --  -11.21651 -11.21630 -11.21614 -11.21590 -11.21466
 Alpha  occ. eigenvalues --  -11.21415 -11.21400 -11.21349 -11.21130 -11.21116
 Alpha  occ. eigenvalues --  -11.21097 -11.21061  -1.08490  -1.08432  -1.03585
 Alpha  occ. eigenvalues --   -1.03534  -0.96022  -0.95994  -0.87037  -0.87010
 Alpha  occ. eigenvalues --   -0.79692  -0.79561  -0.78316  -0.78235  -0.65263
 Alpha  occ. eigenvalues --   -0.64938  -0.61112  -0.60816  -0.59411  -0.59338
 Alpha  occ. eigenvalues --   -0.57646  -0.57591  -0.55321  -0.55271  -0.52713
 Alpha  occ. eigenvalues --   -0.52689  -0.52451  -0.52415  -0.49990  -0.49924
 Alpha  occ. eigenvalues --   -0.48074  -0.47870  -0.46897  -0.46452  -0.46006
 Alpha  occ. eigenvalues --   -0.45803  -0.45695  -0.45457  -0.43829  -0.43794
 Alpha virt. eigenvalues --    0.19359   0.23456   0.23543   0.24306   0.25867
 Alpha virt. eigenvalues --    0.26599   0.27072   0.27854   0.28144   0.29659
 Alpha virt. eigenvalues --    0.30438   0.31579   0.31711   0.31887   0.32112

 Mulliken charges:
               1
     1  C   -0.298413
     2  C   -0.299800
     3  C   -0.475717
     4  H    0.149580
     5  H    0.150327
     6  H    0.151784
     7  H    0.152339
     8  H    0.155249
     9  H    0.155094
    10  H    0.160254
    11  C   -0.299478
    12  C   -0.307178
    13  C   -0.476247
    14  H    0.149651
    15  H    0.150410
    16  H    0.152530
    17  H    0.158582
    18  H    0.154488
    19  H    0.155738
    20  H    0.160452
    21  C   -0.297506
    22  C   -0.309262
    23  C   -0.475206
    24  H    0.149956
    25  H    0.149846
    26  H    0.160868
    27  H    0.151517
    28  H    0.155315
    29  H    0.155421
    30  H    0.160309
    31  C   -0.300620
    32  C   -0.299672
    33  C   -0.475752
    34  H    0.150242
    35  H    0.149670
    36  H    0.152200
    37  H    0.152303
    38  H    0.155197
    39  H    0.154928
    40  H    0.160601
 Sum of Mulliken charges =  -0.00000

 Dipole moment (field-independent basis, Debye):
    X=             -0.0085    Y=             -0.0052    Z=             -0.0068  Tot=              0.0121
 Quadrupole moment (field-independent basis, Debye-Ang):
   XX=            -84.3489   YY=            -85.5590   ZZ=            -84.7373
   XY=             -1.1308   XZ=              0.9848   YZ=             -0.4672

 Normal termination of Gaussian 16 at Wed May  5 18:17:22 2021.
