 Gaussian 16, Revision A.03,
 Gaussian 16:  EM64L-G16RevA.03 25-Dec-2016

 -------------
 #p 6-31g* mp2
 -------------

 ------------------------------------------------------
 Input file generated by CHIRIPA (05-May-2021 14:51:12)
 ------------------------------------------------------
 Symbolic Z-matrix:
 Charge =  0 Multiplicity = 1

                         Standard orientation:
 ---------------------------------------------------------------------
 Center     Atomic      Atomic             Coordinates (Angstroms)
 Number     Number       Type             X           Y           Z
 ---------------------------------------------------------------------
      1          6           0        2.431781   -0.445804   -0.904350
      2          6           0        2.491932   -1.912163   -0.475215
      3          6           0        1.735987   -2.838501   -1.428232
      4          1           0        1.380955   -0.131481   -0.966896
      5          1           0        2.847492   -0.349997   -1.916970
      6          1           0        2.077500   -2.004964    0.536838
      7          1           0        3.542741   -2.222978   -0.413498
      8          1           0        2.153171   -2.775468   -2.438473
      9          1           0        0.679604   -2.556216   -1.482738
     10          1           0        1.791971   -3.881890   -1.102555
     11          6           0        3.182901    0.492634    0.038454
     12          6           0        3.122750    1.958993   -0.390681
     13          6           0        3.878694    2.885330    0.562336
     14          1           0        2.767189    0.396827    1.051074
     15          1           0        4.233726    0.178310    0.101000
     16          1           0        2.071940    2.269808   -0.452398
     17          1           0        3.537182    2.051794   -1.402734
     18          1           0        4.935077    2.603045    0.616842
     19          1           0        3.461511    2.822298    1.572577
     20          1           0        3.822711    3.928719    0.236660
     21          6           0       -2.525121   -0.225593    1.113322
     22          6           0       -1.149823   -0.888189    1.026692
     23          6           0       -0.598463   -1.286969    2.395915
     24          1           0       -2.457163    0.662981    1.755788
     25          1           0       -3.225843   -0.914244    1.605403
     26          1           0       -0.452244   -0.199033    0.533677
     27          1           0       -1.221019   -1.775181    0.384202
     28          1           0       -1.271930   -1.993709    2.891457
     29          1           0       -0.498785   -0.408607    3.041781
     30          1           0        0.385403   -1.758768    2.310630
     31          6           0       -3.089560    0.178764   -0.247426
     32          6           0       -4.464859    0.841359   -0.160795
     33          6           0       -5.016219    1.240140   -1.530018
     34          1           0       -2.388839    0.867415   -0.739506
     35          1           0       -3.157518   -0.709811   -0.889893
     36          1           0       -4.393662    1.728351    0.481693
     37          1           0       -5.162439    0.152203    0.332219
     38          1           0       -5.115896    0.361777   -2.175885
     39          1           0       -4.342752    1.946879   -2.025561
     40          1           0       -6.000085    1.711939   -1.444734
 ---------------------------------------------------------------------

 SCF Done:  E(RHF) =  -470.732628232     A.U. after   11 cycles
 E2 =    -0.1584535935D+01 EUMP2 =    -0.47231716416728D+03

 The electronic state is 1-A.
 Alpha  occ. eigenvalues --  -11.21675 -11.21644 -11.21615 -11.21554 -11.21470
 Alpha  occ. eigenvalues --  -11.21410 -11.21379 -11.21302 -11.21156 -11.21100
 Alpha  occ. eigenvalues --  -11.21081 -11.21020  -1.08518  -1.08394  -1.03625
 Alpha  occ. eigenvalues --   -1.03484  -0.96045  -0.95960  -0.87063  -0.86977
 Alpha  occ. eigenvalues --   -0.79705  -0.79553  -0.78357  -0.78184  -0.65252
 Alpha  occ. eigenvalues --   -0.64975  -0.61007  -0.60992  -0.59369  -0.59306
 Alpha  occ. eigenvalues --   -0.57641  -0.57555  -0.55395  -0.55187  -0.52757
 Alpha  occ. eigenvalues --   -0.52654  -0.52491  -0.52375  -0.50063  -0.49836
 Alpha  occ. eigenvalues --   -0.48088  -0.47883  -0.46722  -0.46593  -0.46068
 Alpha  occ. eigenvalues --   -0.45785  -0.45717  -0.45331  -0.43829  -0.43762
 Alpha virt. eigenvalues --    0.19777   0.23107   0.23445   0.24668   0.25315
 Alpha virt. eigenvalues --    0.25863   0.26456   0.28053   0.29003   0.29375
 Alpha virt. eigenvalues --    0.30161   0.30814   0.31629   0.31840   0.32546

 Mulliken charges:
               1
     1  C   -0.302356
     2  C   -0.304616
     3  C   -0.478198
     4  H    0.153960
     5  H    0.149652
     6  H    0.157014
     7  H    0.151816
     8  H    0.154918
     9  H    0.158214
    10  H    0.159608
    11  C   -0.299651
    12  C   -0.299364
    13  C   -0.475684
    14  H    0.150142
    15  H    0.149816
    16  H    0.150744
    17  H    0.152165
    18  H    0.155348
    19  H    0.155148
    20  H    0.160167
    21  C   -0.297800
    22  C   -0.307497
    23  C   -0.480268
    24  H    0.149701
    25  H    0.149878
    26  H    0.157603
    27  H    0.154339
    28  H    0.155942
    29  H    0.155198
    30  H    0.164017
    31  C   -0.298445
    32  C   -0.299669
    33  C   -0.475788
    34  H    0.149022
    35  H    0.149707
    36  H    0.152037
    37  H    0.152135
    38  H    0.155332
    39  H    0.155293
    40  H    0.160420
 Sum of Mulliken charges =  -0.00000

 Dipole moment (field-independent basis, Debye):
    X=             -0.0344    Y=             -0.0037    Z=              0.0107  Tot=              0.0363
 Quadrupole moment (field-independent basis, Debye-Ang):
   XX=            -84.3894   YY=            -84.7138   ZZ=            -85.6712
   XY=              0.1291   XZ=             -1.1929   YZ=             -0.0378

 Normal termination of Gaussian 16 at Wed May  5 21:30:34 2021.
