 Gaussian 16, Revision A.03,
 Gaussian 16:  EM64L-G16RevA.03 25-Dec-2016

 -------------
 #p 6-31g* mp2
 -------------

 ------------------------------------------------------
 Input file generated by CHIRIPA (05-May-2021 14:51:14)
 ------------------------------------------------------
 Symbolic Z-matrix:
 Charge =  0 Multiplicity = 1

                         Standard orientation:
 ---------------------------------------------------------------------
 Center     Atomic      Atomic             Coordinates (Angstroms)
 Number     Number       Type             X           Y           Z
 ---------------------------------------------------------------------
      1          6           0       -3.323153    0.072538   -0.172849
      2          6           0       -3.869245    1.499050   -0.242369
      3          6           0       -4.880430    1.690487   -1.373144
      4          1           0       -2.853696   -0.180780   -1.133257
      5          1           0       -4.160075   -0.626949   -0.039900
      6          1           0       -3.031416    2.195753   -0.373760
      7          1           0       -4.337288    1.749069    0.718381
      8          1           0       -5.735011    1.018541   -1.243601
      9          1           0       -4.421720    1.467763   -2.341948
     10          1           0       -5.257940    2.717306   -1.404565
     11          6           0       -2.311093   -0.134539    0.952576
     12          6           0       -1.765001   -1.561050    1.022097
     13          6           0       -0.753816   -1.752487    2.152871
     14          1           0       -1.474171    0.564948    0.819628
     15          1           0       -2.780550    0.118780    1.912985
     16          1           0       -1.296958   -1.811070    0.061346
     17          1           0       -2.602830   -2.257753    1.153487
     18          1           0       -1.212526   -1.529763    3.121675
     19          1           0        0.100765   -1.080542    2.023328
     20          1           0       -0.376306   -2.779307    2.184293
     21          6           0        2.851701   -0.583212   -0.842611
     22          6           0        1.668825   -1.535521   -0.664010
     23          6           0        1.752268   -2.759478   -1.576567
     24          1           0        2.897531   -0.258216   -1.891049
     25          1           0        3.785093   -1.127582   -0.643027
     26          1           0        0.737858   -0.989159   -0.862522
     27          1           0        1.625690   -1.858137    0.384166
     28          1           0        2.664970   -3.329281   -1.374329
     29          1           0        1.772093   -2.455366   -2.628101
     30          1           0        0.896799   -3.426760   -1.432458
     31          6           0        2.782546    0.645213    0.062884
     32          6           0        3.965422    1.597521   -0.115717
     33          6           0        3.881978    2.821478    0.796839
     34          1           0        1.849154    1.189583   -0.136700
     35          1           0        2.736715    0.320216    1.111322
     36          1           0        4.008556    1.920137   -1.163894
     37          1           0        4.896387    1.051160    0.082795
     38          1           0        3.862153    2.517367    1.848374
     39          1           0        2.969276    3.391282    0.594601
     40          1           0        4.737447    3.488760    0.652730
 ---------------------------------------------------------------------

 SCF Done:  E(RHF) =  -470.731866840     A.U. after   11 cycles
 E2 =    -0.1584659136D+01 EUMP2 =    -0.47231652597530D+03

 The electronic state is 1-A.
 Alpha  occ. eigenvalues --  -11.21646 -11.21605 -11.21552 -11.21507 -11.21459
 Alpha  occ. eigenvalues --  -11.21392 -11.21381 -11.21327 -11.21102 -11.21096
 Alpha  occ. eigenvalues --  -11.21076 -11.20973  -1.08501  -1.08382  -1.03630
 Alpha  occ. eigenvalues --   -1.03434  -0.96032  -0.95940  -0.87043  -0.86962
 Alpha  occ. eigenvalues --   -0.79648  -0.79568  -0.78314  -0.78220  -0.65144
 Alpha  occ. eigenvalues --   -0.65023  -0.61005  -0.60968  -0.59410  -0.59243
 Alpha  occ. eigenvalues --   -0.57701  -0.57472  -0.55313  -0.55244  -0.52705
 Alpha  occ. eigenvalues --   -0.52645  -0.52444  -0.52367  -0.50098  -0.49824
 Alpha  occ. eigenvalues --   -0.48034  -0.47773  -0.46942  -0.46398  -0.45979
 Alpha  occ. eigenvalues --   -0.45776  -0.45531  -0.45479  -0.43814  -0.43756
 Alpha virt. eigenvalues --    0.20552   0.23167   0.23427   0.24354   0.25286
 Alpha virt. eigenvalues --    0.25776   0.26544   0.28194   0.28548   0.29415
 Alpha virt. eigenvalues --    0.30833   0.31384   0.31640   0.31823   0.32491

 Mulliken charges:
               1
     1  C   -0.298242
     2  C   -0.299537
     3  C   -0.475684
     4  H    0.148854
     5  H    0.149726
     6  H    0.151555
     7  H    0.152106
     8  H    0.155267
     9  H    0.155031
    10  H    0.160242
    11  C   -0.299870
    12  C   -0.303612
    13  C   -0.478396
    14  H    0.150028
    15  H    0.149840
    16  H    0.157467
    17  H    0.151629
    18  H    0.154658
    19  H    0.159039
    20  H    0.158736
    21  C   -0.297332
    22  C   -0.306687
    23  C   -0.477269
    24  H    0.149291
    25  H    0.149507
    26  H    0.153142
    27  H    0.160084
    28  H    0.155519
    29  H    0.154945
    30  H    0.160862
    31  C   -0.300132
    32  C   -0.299594
    33  C   -0.475792
    34  H    0.148975
    35  H    0.150226
    36  H    0.152176
    37  H    0.152269
    38  H    0.155391
    39  H    0.155125
    40  H    0.160459
 Sum of Mulliken charges =  -0.00000

 Dipole moment (field-independent basis, Debye):
    X=              0.0359    Y=             -0.0085    Z=              0.0059  Tot=              0.0374
 Quadrupole moment (field-independent basis, Debye-Ang):
   XX=            -84.5049   YY=            -85.4493   ZZ=            -84.8959
   XY=              0.0398   XZ=             -0.6593   YZ=             -0.8561

 Normal termination of Gaussian 16 at Thu May  6 04:00:39 2021.
