 Gaussian 16, Revision A.03,
 Gaussian 16:  EM64L-G16RevA.03 25-Dec-2016

 -------------
 #p 6-31g* mp2
 -------------

 ------------------------------------------------------
 Input file generated by CHIRIPA (05-May-2021 14:51:11)
 ------------------------------------------------------
 Symbolic Z-matrix:
 Charge =  0 Multiplicity = 1

                         Standard orientation:
 ---------------------------------------------------------------------
 Center     Atomic      Atomic             Coordinates (Angstroms)
 Number     Number       Type             X           Y           Z
 ---------------------------------------------------------------------
      1          6           0       -3.374801    0.381844    0.333690
      2          6           0       -4.061178    1.105866   -0.825043
      3          6           0       -4.695751    2.430847   -0.401328
      4          1           0       -4.108951    0.200176    1.130537
      5          1           0       -2.604480    1.037975    0.762051
      6          1           0       -4.829032    0.448035   -1.251979
      7          1           0       -3.325352    1.285660   -1.619304
      8          1           0       -3.937929    3.108298    0.005324
      9          1           0       -5.450153    2.265913    0.374737
     10          1           0       -5.180806    2.931619   -1.245015
     11          6           0       -2.735658   -0.944384   -0.074164
     12          6           0       -2.049281   -1.668406    1.084569
     13          6           0       -1.414707   -2.993387    0.660854
     14          1           0       -3.505978   -1.600515   -0.502526
     15          1           0       -2.001507   -0.762716   -0.871011
     16          1           0       -2.785107   -1.848201    1.878830
     17          1           0       -1.281426   -1.010575    1.511505
     18          1           0       -0.660305   -2.828453   -0.115211
     19          1           0       -2.172530   -3.670838    0.254201
     20          1           0       -0.929652   -3.494160    1.504541
     21          6           0        3.325442    0.847903    0.305373
     22          6           0        2.923328    2.237467   -0.190009
     23          6           0        3.471444    3.360605    0.690857
     24          1           0        2.968061    0.715311    1.335734
     25          1           0        4.421663    0.783063    0.343981
     26          1           0        1.828209    2.299201   -0.228989
     27          1           0        3.281541    2.366695   -1.219377
     28          1           0        4.565331    3.327488    0.721095
     29          1           0        3.103741    3.259612    1.717110
     30          1           0        3.171999    4.345275    0.318545
     31          6           0        2.785016   -0.285364   -0.564899
     32          6           0        3.187131   -1.674927   -0.069516
     33          6           0        2.639015   -2.798064   -0.950383
     34          1           0        1.688795   -0.220523   -0.603507
     35          1           0        3.142397   -0.152771   -1.595259
     36          1           0        2.828917   -1.804154    0.959852
     37          1           0        4.282250   -1.736661   -0.030537
     38          1           0        3.006718   -2.697071   -1.976637
     39          1           0        1.545127   -2.764948   -0.980621
     40          1           0        2.938459   -3.782734   -0.578071
 ---------------------------------------------------------------------

 SCF Done:  E(RHF) =  -470.733312963     A.U. after   11 cycles
 E2 =    -0.1582751415D+01 EUMP2 =    -0.47231606437784D+03

 The electronic state is 1-A.
 Alpha  occ. eigenvalues --  -11.21654 -11.21640 -11.21626 -11.21613 -11.21448
 Alpha  occ. eigenvalues --  -11.21442 -11.21388 -11.21383 -11.21103 -11.21100
 Alpha  occ. eigenvalues --  -11.21090 -11.21056  -1.08475  -1.08456  -1.03580
 Alpha  occ. eigenvalues --   -1.03539  -0.96040  -0.95978  -0.87067  -0.86984
 Alpha  occ. eigenvalues --   -0.79660  -0.79584  -0.78292  -0.78265  -0.65178
 Alpha  occ. eigenvalues --   -0.65025  -0.61121  -0.60812  -0.59390  -0.59359
 Alpha  occ. eigenvalues --   -0.57673  -0.57573  -0.55513  -0.55106  -0.52713
 Alpha  occ. eigenvalues --   -0.52684  -0.52520  -0.52352  -0.50166  -0.49736
 Alpha  occ. eigenvalues --   -0.48024  -0.47858  -0.46777  -0.46514  -0.45890
 Alpha  occ. eigenvalues --   -0.45789  -0.45765  -0.45645  -0.43822  -0.43808
 Alpha virt. eigenvalues --    0.20192   0.23334   0.23503   0.25100   0.25854
 Alpha virt. eigenvalues --    0.26617   0.27037   0.27644   0.28315   0.28845
 Alpha virt. eigenvalues --    0.30244   0.31584   0.31773   0.31857   0.31948

 Mulliken charges:
               1
     1  C   -0.298231
     2  C   -0.299748
     3  C   -0.475729
     4  H    0.149833
     5  H    0.149180
     6  H    0.152061
     7  H    0.152109
     8  H    0.155179
     9  H    0.155215
    10  H    0.160406
    11  C   -0.298654
    12  C   -0.299497
    13  C   -0.481924
    14  H    0.149936
    15  H    0.149419
    16  H    0.152279
    17  H    0.151265
    18  H    0.160717
    19  H    0.155776
    20  H    0.160611
    21  C   -0.298329
    22  C   -0.299549
    23  C   -0.475740
    24  H    0.149644
    25  H    0.149811
    26  H    0.151347
    27  H    0.152079
    28  H    0.155348
    29  H    0.155206
    30  H    0.160329
    31  C   -0.298577
    32  C   -0.299424
    33  C   -0.481422
    34  H    0.148492
    35  H    0.149848
    36  H    0.152300
    37  H    0.152054
    38  H    0.155044
    39  H    0.160607
    40  H    0.160731
 Sum of Mulliken charges =  -0.00000

 Dipole moment (field-independent basis, Debye):
    X=             -0.0049    Y=             -0.0122    Z=              0.0009  Tot=              0.0132
 Quadrupole moment (field-independent basis, Debye-Ang):
   XX=            -83.5531   YY=            -86.3034   ZZ=            -84.7293
   XY=              0.6881   XZ=             -0.7696   YZ=             -0.7840

 Normal termination of Gaussian 16 at Thu May  6 05:28:43 2021.
