 Gaussian 16, Revision A.03,
 Gaussian 16:  EM64L-G16RevA.03 25-Dec-2016

 -------------
 #p 6-31g* mp2
 -------------

 ------------------------------------------------------
 Input file generated by CHIRIPA (05-May-2021 14:51:11)
 ------------------------------------------------------
 Symbolic Z-matrix:
 Charge =  0 Multiplicity = 1

                         Standard orientation:
 ---------------------------------------------------------------------
 Center     Atomic      Atomic             Coordinates (Angstroms)
 Number     Number       Type             X           Y           Z
 ---------------------------------------------------------------------
      1          6           0       -2.307343   -0.234731    0.625829
      2          6           0       -2.623469   -1.646636    0.131283
      3          6           0       -2.287606   -2.723549    1.163392
      4          1           0       -1.241971   -0.174590    0.887189
      5          1           0       -2.867559   -0.044025    1.551672
      6          1           0       -2.063890   -1.834120   -0.794102
      7          1           0       -3.688172   -1.703369   -0.129111
      8          1           0       -2.856325   -2.564367    2.085249
      9          1           0       -1.222814   -2.695861    1.416480
     10          1           0       -2.521438   -3.725119    0.789173
     11          6           0       -2.637678    0.852825   -0.394870
     12          6           0       -2.321553    2.264730    0.099675
     13          6           0       -2.657416    3.341643   -0.932433
     14          1           0       -2.077463    0.662118   -1.320713
     15          1           0       -3.703051    0.792683   -0.656230
     16          1           0       -1.256850    2.321463    0.360069
     17          1           0       -2.881132    2.452214    1.025060
     18          1           0       -3.722207    3.313955   -1.185521
     19          1           0       -2.088696    3.182461   -1.854291
     20          1           0       -2.423584    4.343213   -0.558214
     21          6           0        2.556352   -1.014531   -0.396005
     22          6           0        1.248158   -1.804114   -0.452326
     23          6           0        1.432142   -3.213530   -1.015789
     24          1           0        2.984578   -0.954199   -1.405919
     25          1           0        3.282212   -1.564401    0.218947
     26          1           0        0.524527   -1.252244   -1.065852
     27          1           0        0.822898   -1.862410    0.557808
     28          1           0        2.133934   -3.785818   -0.400503
     29          1           0        1.833867   -3.172187   -2.033389
     30          1           0        0.484520   -3.760239   -1.047100
     31          6           0        2.388670    0.396438    0.165046
     32          6           0        3.696863    1.186021    0.221368
     33          6           0        3.512879    2.595437    0.784830
     34          1           0        1.662809    0.946307   -0.449906
     35          1           0        1.960443    0.336106    1.174961
     36          1           0        4.122123    1.244316   -0.788767
     37          1           0        4.420495    0.634151    0.834894
     38          1           0        3.111155    2.554093    1.802430
     39          1           0        2.811088    3.167725    0.169545
     40          1           0        4.460502    3.142146    0.816141
 ---------------------------------------------------------------------

 SCF Done:  E(RHF) =  -470.732594357     A.U. after   11 cycles
 E2 =    -0.1585065334D+01 EUMP2 =    -0.47231765969054D+03

 The electronic state is 1-A.
 Alpha  occ. eigenvalues --  -11.21675 -11.21671 -11.21563 -11.21523 -11.21498
 Alpha  occ. eigenvalues --  -11.21434 -11.21348 -11.21254 -11.21129 -11.21122
 Alpha  occ. eigenvalues --  -11.21055 -11.21007  -1.08540  -1.08353  -1.03644
 Alpha  occ. eigenvalues --   -1.03446  -0.96063  -0.95921  -0.87069  -0.86948
 Alpha  occ. eigenvalues --   -0.79694  -0.79542  -0.78395  -0.78146  -0.65159
 Alpha  occ. eigenvalues --   -0.65017  -0.61075  -0.60931  -0.59343  -0.59299
 Alpha  occ. eigenvalues --   -0.57651  -0.57543  -0.55377  -0.55168  -0.52742
 Alpha  occ. eigenvalues --   -0.52628  -0.52471  -0.52363  -0.50059  -0.49832
 Alpha  occ. eigenvalues --   -0.48122  -0.47752  -0.46920  -0.46455  -0.46183
 Alpha  occ. eigenvalues --   -0.45848  -0.45562  -0.45251  -0.43860  -0.43726
 Alpha virt. eigenvalues --    0.19953   0.22058   0.23430   0.24530   0.25414
 Alpha virt. eigenvalues --    0.25766   0.26682   0.27592   0.28875   0.30031
 Alpha virt. eigenvalues --    0.30602   0.31081   0.31459   0.31930   0.32318

 Mulliken charges:
               1
     1  C   -0.302715
     2  C   -0.301054
     3  C   -0.479785
     4  H    0.155299
     5  H    0.148867
     6  H    0.154173
     7  H    0.151650
     8  H    0.154779
     9  H    0.159301
    10  H    0.159500
    11  C   -0.298413
    12  C   -0.300975
    13  C   -0.475589
    14  H    0.148494
    15  H    0.149507
    16  H    0.153367
    17  H    0.151923
    18  H    0.155174
    19  H    0.154556
    20  H    0.160229
    21  C   -0.297727
    22  C   -0.306234
    23  C   -0.477826
    24  H    0.149836
    25  H    0.149852
    26  H    0.154272
    27  H    0.156116
    28  H    0.155485
    29  H    0.155374
    30  H    0.162705
    31  C   -0.300477
    32  C   -0.299669
    33  C   -0.475932
    34  H    0.150018
    35  H    0.150076
    36  H    0.152251
    37  H    0.152311
    38  H    0.155423
    39  H    0.155246
    40  H    0.160615
 Sum of Mulliken charges =  -0.00000

 Dipole moment (field-independent basis, Debye):
    X=              0.0623    Y=             -0.0136    Z=              0.0052  Tot=              0.0640
 Quadrupole moment (field-independent basis, Debye-Ang):
   XX=            -83.9641   YY=            -86.5439   ZZ=            -84.3054
   XY=             -0.0320   XZ=             -0.3143   YZ=             -0.0976

 Normal termination of Gaussian 16 at Thu May  6 05:28:04 2021.
