 Gaussian 16, Revision A.03,
 Gaussian 16:  EM64L-G16RevA.03 25-Dec-2016

 -------------
 #p 6-31g* mp2
 -------------

 ------------------------------------------------------
 Input file generated by CHIRIPA (05-May-2021 14:57:25)
 ------------------------------------------------------
 Symbolic Z-matrix:
 Charge =  0 Multiplicity = 1

                         Standard orientation:
 ---------------------------------------------------------------------
 Center     Atomic      Atomic             Coordinates (Angstroms)
 Number     Number       Type             X           Y           Z
 ---------------------------------------------------------------------
      1          6           0       -5.301310    0.905127   -0.491083
      2          6           0       -4.714949    1.203536    0.743281
      3          6           0       -3.524016    0.583034    1.132128
      4          6           0       -2.943952   -0.335013    0.258054
      5          6           0       -3.503803   -0.653382   -0.978270
      6          6           0       -4.694934   -0.020748   -1.346411
      7          1           0       -6.226532    1.391860   -0.785106
      8          1           0       -5.183640    1.922174    1.409564
      9          1           0       -3.048585    0.795473    2.081999
     10          1           0       -3.013117   -1.374068   -1.621121
     11          1           0       -5.148057   -0.254444   -2.305635
     12          7           0       -1.683059   -0.998333    0.658749
     13          8           0       -1.191837   -1.803492   -0.129323
     14          8           0       -1.209868   -0.700524    1.753298
     15          6           0        2.964760    2.741509   -0.232094
     16          6           0        1.940575    1.954802   -0.769364
     17          6           0        2.033527    0.559945   -0.752591
     18          6           0        3.169841   -0.017531   -0.188140
     19          6           0        4.206985    0.739145    0.355056
     20          6           0        4.092708    2.132244    0.327415
     21          1           0        2.884269    3.824385   -0.249346
     22          1           0        1.063440    2.425232   -1.204534
     23          1           0        1.255396   -0.073046   -1.161556
     24          1           0        5.069166    0.241397    0.782035
     25          1           0        4.889650    2.740701    0.745397
     26          7           0        3.279533   -1.493273   -0.164629
     27          8           0        4.290920   -1.977715    0.338410
     28          8           0        2.352046   -2.137573   -0.649688
 ---------------------------------------------------------------------

 SCF Done:  E(RHF) =  -868.336532683     A.U. after   16 cycles
 E2 =    -0.2600419642D+01 EUMP2 =    -0.87093695232514D+03

 The electronic state is 1-A.
 Alpha  occ. eigenvalues --  -20.60847 -20.60817 -20.59605 -20.59501 -15.85870
 Alpha  occ. eigenvalues --  -15.84612 -11.31372 -11.30227 -11.27955 -11.27938
 Alpha  occ. eigenvalues --  -11.27706 -11.26989 -11.26973 -11.26887 -11.26794
 Alpha  occ. eigenvalues --  -11.26720 -11.25970 -11.25959  -1.59908  -1.58628
 Alpha  occ. eigenvalues --   -1.39452  -1.38168  -1.19557  -1.18449  -1.08924
 Alpha  occ. eigenvalues --   -1.07812  -1.04970  -1.03904  -0.95729  -0.94598
 Alpha  occ. eigenvalues --   -0.86360  -0.85291  -0.82550  -0.81433  -0.77588
 Alpha  occ. eigenvalues --   -0.76416  -0.72051  -0.71274  -0.70825  -0.70647
 Alpha  occ. eigenvalues --   -0.69946  -0.69579  -0.65195  -0.64961  -0.64112
 Alpha  occ. eigenvalues --   -0.63938  -0.62307  -0.61244  -0.55456  -0.54439
 Alpha  occ. eigenvalues --   -0.53307  -0.53053  -0.52207  -0.52018  -0.48845
 Alpha  occ. eigenvalues --   -0.48814  -0.47635  -0.47553  -0.44812  -0.43509
 Alpha  occ. eigenvalues --   -0.37551  -0.36586  -0.36461  -0.35510
 Alpha virt. eigenvalues --    0.04906   0.06138   0.11065   0.12138   0.16364
 Alpha virt. eigenvalues --    0.17552   0.21229   0.22145   0.27144   0.27903
 Alpha virt. eigenvalues --    0.28179   0.29084   0.30782   0.31652   0.32369

 Mulliken charges:
               1
     1  C   -0.171373
     2  C   -0.218864
     3  C   -0.172142
     4  C    0.156286
     5  C   -0.173235
     6  C   -0.218755
     7  H    0.225896
     8  H    0.223491
     9  H    0.275870
    10  H    0.277698
    11  H    0.224274
    12  N    0.484453
    13  O   -0.451583
    14  O   -0.459185
    15  C   -0.171255
    16  C   -0.219422
    17  C   -0.168905
    18  C    0.159662
    19  C   -0.170770
    20  C   -0.219038
    21  H    0.220878
    22  H    0.217328
    23  H    0.282790
    24  H    0.273899
    25  H    0.219881
    26  N    0.487370
    27  O   -0.467185
    28  O   -0.448062
 Sum of Mulliken charges =  -0.00000

 Dipole moment (field-independent basis, Debye):
    X=             -5.0440    Y=              7.2287    Z=             -1.4953  Tot=              8.9405
 Quadrupole moment (field-independent basis, Debye-Ang):
   XX=            -78.8905   YY=           -106.7223   ZZ=           -101.6842
   XY=             11.1055   XZ=              5.2556   YZ=              3.0093

 Normal termination of Gaussian 16 at Fri May  7 05:02:17 2021.
