 Gaussian 16, Revision A.03,
 Gaussian 16:  EM64L-G16RevA.03 25-Dec-2016

 -------------
 #p 6-31g* mp2
 -------------

 ------------------------------------------------------
 Input file generated by CHIRIPA (05-May-2021 14:57:22)
 ------------------------------------------------------
 Symbolic Z-matrix:
 Charge =  0 Multiplicity = 1

                         Standard orientation:
 ---------------------------------------------------------------------
 Center     Atomic      Atomic             Coordinates (Angstroms)
 Number     Number       Type             X           Y           Z
 ---------------------------------------------------------------------
      1          6           0        1.142081    2.243137    0.697703
      2          6           0        2.496940    2.540064    0.516836
      3          6           0        3.401026    1.537736    0.152808
      4          6           0        2.913716    0.243530   -0.022830
      5          6           0        1.569721   -0.083754    0.149950
      6          6           0        0.683604    0.934483    0.514006
      7          1           0        0.446745    3.027949    0.980500
      8          1           0        2.855822    3.555490    0.658814
      9          1           0        4.455105    1.739857    0.006238
     10          1           0        1.241711   -1.105374    0.001224
     11          1           0       -0.368053    0.700978    0.653784
     12          7           0        3.861319   -0.826011   -0.408226
     13          8           0        3.406889   -1.958279   -0.556888
     14          8           0        5.040539   -0.511798   -0.554339
     15          6           0       -1.493826   -2.403645    0.872178
     16          6           0       -1.533158   -2.172999   -0.506871
     17          6           0       -2.230278   -1.076950   -1.023831
     18          6           0       -2.879710   -0.228012   -0.128940
     19          6           0       -2.858991   -0.431115    1.250049
     20          6           0       -2.155702   -1.533500    1.744699
     21          1           0       -0.949891   -3.257543    1.265101
     22          1           0       -1.020062   -2.847099   -1.186847
     23          1           0       -2.277020   -0.874837   -2.087027
     24          1           0       -3.380224    0.258412    1.902955
     25          1           0       -2.126864   -1.710154    2.816150
     26          7           0       -3.620985    0.935680   -0.664414
     27          8           0       -4.184900    1.668778    0.145033
     28          8           0       -3.624045    1.092648   -1.883425
 ---------------------------------------------------------------------

 SCF Done:  E(RHF) =  -868.337397288     A.U. after   16 cycles
 E2 =    -0.2604113771D+01 EUMP2 =    -0.87094151105906D+03

 The electronic state is 1-A.
 Alpha  occ. eigenvalues --  -20.61715 -20.61691 -20.60984 -20.60951 -15.86763
 Alpha  occ. eigenvalues --  -15.86012 -11.32257 -11.31185 -11.28822 -11.28785
 Alpha  occ. eigenvalues --  -11.28507 -11.27837 -11.27772 -11.27725 -11.27670
 Alpha  occ. eigenvalues --  -11.27378 -11.26707 -11.26532  -1.60787  -1.60044
 Alpha  occ. eigenvalues --   -1.40331  -1.39606  -1.20505  -1.19327  -1.09813
 Alpha  occ. eigenvalues --   -1.08755  -1.05853  -1.04698  -0.96613  -0.95626
 Alpha  occ. eigenvalues --   -0.87205  -0.86116  -0.83405  -0.82469  -0.78457
 Alpha  occ. eigenvalues --   -0.77568  -0.72959  -0.72242  -0.72145  -0.71447
 Alpha  occ. eigenvalues --   -0.71363  -0.70439  -0.66057  -0.65751  -0.64975
 Alpha  occ. eigenvalues --   -0.64754  -0.63132  -0.62191  -0.56239  -0.55345
 Alpha  occ. eigenvalues --   -0.54120  -0.53848  -0.53057  -0.52562  -0.49738
 Alpha  occ. eigenvalues --   -0.49715  -0.49009  -0.48962  -0.45698  -0.45052
 Alpha  occ. eigenvalues --   -0.38483  -0.37617  -0.37280  -0.36158
 Alpha virt. eigenvalues --    0.03986   0.04990   0.09993   0.11338   0.15515
 Alpha virt. eigenvalues --    0.16508   0.20494   0.21884   0.26272   0.27356
 Alpha virt. eigenvalues --    0.27923   0.28730   0.30282   0.31337   0.31709

 Mulliken charges:
               1
     1  C   -0.174781
     2  C   -0.218381
     3  C   -0.171676
     4  C    0.159953
     5  C   -0.179595
     6  C   -0.224487
     7  H    0.229398
     8  H    0.223996
     9  H    0.274865
    10  H    0.269688
    11  H    0.236617
    12  N    0.488600
    13  O   -0.466552
    14  O   -0.459160
    15  C   -0.176907
    16  C   -0.225502
    17  C   -0.170969
    18  C    0.153438
    19  C   -0.187843
    20  C   -0.213640
    21  H    0.236053
    22  H    0.235793
    23  H    0.281439
    24  H    0.278076
    25  H    0.229586
    26  N    0.487915
    27  O   -0.460222
    28  O   -0.455704
 Sum of Mulliken charges =  -0.00000

 Dipole moment (field-independent basis, Debye):
    X=             -1.0474    Y=             -0.4608    Z=              3.2090  Tot=              3.4069
 Quadrupole moment (field-independent basis, Debye-Ang):
   XX=           -137.1775   YY=            -98.7779   ZZ=           -101.5782
   XY=             24.4536   XZ=             -2.9926   YZ=              1.6591

 Normal termination of Gaussian 16 at Thu May  6 12:52:29 2021.
