 Gaussian 16, Revision A.03,
 Gaussian 16:  EM64L-G16RevA.03 25-Dec-2016

 -------------
 #p 6-31g* mp2
 -------------

 ------------------------------------------------------
 Input file generated by CHIRIPA (05-May-2021 14:53:13)
 ------------------------------------------------------
 Symbolic Z-matrix:
 Charge =  0 Multiplicity = 1

                         Standard orientation:
 ---------------------------------------------------------------------
 Center     Atomic      Atomic             Coordinates (Angstroms)
 Number     Number       Type             X           Y           Z
 ---------------------------------------------------------------------
      1          6           0       -4.336725   -0.133477   -0.250260
      2          6           0       -4.819068   -1.061988    0.864728
      3          6           0       -5.790695   -2.131364    0.364556
      4          1           0       -5.205609    0.348782   -0.718675
      5          1           0       -3.852188   -0.733069   -1.033271
      6          1           0       -5.301323   -0.460678    1.646055
      7          1           0       -3.948922   -1.541947    1.330670
      8          1           0       -5.316375   -2.755788   -0.399457
      9          1           0       -6.676460   -1.668376   -0.082280
     10          1           0       -6.122832   -2.784030    1.177927
     11          6           0       -3.364753    0.940930    0.234146
     12          6           0       -2.882411    1.869441   -0.880842
     13          6           0       -1.910784    2.938816   -0.380670
     14          1           0       -3.849291    1.540522    1.017158
     15          1           0       -2.495869    0.458671    0.702561
     16          1           0       -3.752557    2.349400   -1.346783
     17          1           0       -2.400155    1.268130   -1.662168
     18          1           0       -1.025018    2.475828    0.066166
     19          1           0       -2.385104    3.563241    0.383343
     20          1           0       -1.578646    3.591483   -1.194040
     21          6           0        3.456523    2.119067    0.494574
     22          6           0        4.487588    1.180821    0.609117
     23          6           0        4.250734   -0.170691    0.341046
     24          6           0        2.965066   -0.550768   -0.040910
     25          6           0        1.917045    0.360171   -0.163931
     26          6           0        2.176798    1.706475    0.109095
     27          1           0        3.649411    3.166931    0.704742
     28          1           0        5.482424    1.498379    0.908290
     29          1           0        5.030645   -0.918101    0.421870
     30          1           0        0.935720    0.013402   -0.464213
     31          1           0        1.374141    2.432922    0.019316
     32          7           0        2.702198   -1.978796   -0.327328
     33          8           0        1.560764   -2.288138   -0.662100
     34          8           0        3.642574   -2.761703   -0.211626
 ---------------------------------------------------------------------

 SCF Done:  E(RHF) =  -669.535593748     A.U. after   15 cycles
 E2 =    -0.2091119370D+01 EUMP2 =    -0.67162671311825D+03

 The electronic state is 1-A.
 Alpha  occ. eigenvalues --  -20.60772 -20.60766 -15.85824 -11.31176 -11.27741
 Alpha  occ. eigenvalues --  -11.27737 -11.27471 -11.26754 -11.26707 -11.22139
 Alpha  occ. eigenvalues --  -11.21969 -11.21714 -11.21586 -11.21471 -11.20973
 Alpha  occ. eigenvalues --   -1.59847  -1.39401  -1.19343  -1.08740  -1.08694
 Alpha  occ. eigenvalues --   -1.04745  -1.03835  -0.96308  -0.95578  -0.87334
 Alpha  occ. eigenvalues --   -0.86140  -0.82414  -0.79916  -0.78448  -0.77463
 Alpha  occ. eigenvalues --   -0.72043  -0.71169  -0.70453  -0.65341  -0.64993
 Alpha  occ. eigenvalues --   -0.64754  -0.62156  -0.61188  -0.59703  -0.57883
 Alpha  occ. eigenvalues --   -0.55636  -0.55223  -0.53077  -0.53065  -0.52877
 Alpha  occ. eigenvalues --   -0.52634  -0.50238  -0.48800  -0.48798  -0.48218
 Alpha  occ. eigenvalues --   -0.46933  -0.46005  -0.45884  -0.44810  -0.44064
 Alpha  occ. eigenvalues --   -0.37322  -0.36346
 Alpha virt. eigenvalues --    0.05066   0.11302   0.16540   0.19397   0.22766
 Alpha virt. eigenvalues --    0.23905   0.25684   0.26284   0.27336   0.28403
 Alpha virt. eigenvalues --    0.29115   0.30293   0.31263   0.31507   0.32352

 Mulliken charges:
               1
     1  C   -0.299208
     2  C   -0.300435
     3  C   -0.476248
     4  H    0.149490
     5  H    0.153476
     6  H    0.150730
     7  H    0.155228
     8  H    0.158032
     9  H    0.154196
    10  H    0.161081
    11  C   -0.299056
    12  C   -0.300583
    13  C   -0.481262
    14  H    0.149990
    15  H    0.149469
    16  H    0.155454
    17  H    0.153704
    18  H    0.146442
    19  H    0.159797
    20  H    0.161005
    21  C   -0.171219
    22  C   -0.218445
    23  C   -0.171087
    24  C    0.158715
    25  C   -0.173314
    26  C   -0.224333
    27  H    0.226095
    28  H    0.223343
    29  H    0.275508
    30  H    0.274925
    31  H    0.231735
    32  N    0.488165
    33  O   -0.461008
    34  O   -0.460383
 Sum of Mulliken charges =  -0.00000

 Dipole moment (field-independent basis, Debye):
    X=              0.7790    Y=              4.9999    Z=              0.9956  Tot=              5.1572
 Quadrupole moment (field-independent basis, Debye-Ang):
   XX=            -84.0067   YY=           -100.9002   ZZ=            -95.4943
   XY=             12.3762   XZ=              3.9671   YZ=             -1.0648

 Normal termination of Gaussian 16 at Thu May  6 02:36:20 2021.
