 Gaussian 16, Revision A.03,
 Gaussian 16:  EM64L-G16RevA.03 25-Dec-2016

 -------------
 #p 6-31g* mp2
 -------------

 ------------------------------------------------------
 Input file generated by CHIRIPA (05-May-2021 14:57:25)
 ------------------------------------------------------
 Symbolic Z-matrix:
 Charge =  0 Multiplicity = 1

                         Standard orientation:
 ---------------------------------------------------------------------
 Center     Atomic      Atomic             Coordinates (Angstroms)
 Number     Number       Type             X           Y           Z
 ---------------------------------------------------------------------
      1          6           0        3.150592    1.103997   -1.880638
      2          6           0        2.655368   -0.200881   -1.973204
      3          6           0        2.262491   -0.894349   -0.824597
      4          6           0        2.378871   -0.249679    0.405909
      5          6           0        2.868421    1.049570    0.530741
      6          6           0        3.255353    1.723965   -0.631164
      7          1           0        3.453479    1.635292   -2.778069
      8          1           0        2.572899   -0.684851   -2.942233
      9          1           0        1.875705   -1.905277   -0.867488
     10          1           0        2.938932    1.505721    1.510727
     11          1           0        3.639594    2.737273   -0.556261
     12          7           0        1.966096   -0.973726    1.628926
     13          8           0        2.078504   -0.383571    2.701176
     14          8           0        1.537972   -2.117680    1.492121
     15          6           0       -2.616996    2.531500    0.551603
     16          6           0       -1.437957    2.065536   -0.039382
     17          6           0       -1.332494    0.737076   -0.462017
     18          6           0       -2.430457   -0.101788   -0.277423
     19          6           0       -3.618622    0.332691    0.308054
     20          6           0       -3.701654    1.665118    0.723133
     21          1           0       -2.690210    3.565020    0.876983
     22          1           0       -0.594000    2.736129   -0.173861
     23          1           0       -0.431597    0.350071   -0.922485
     24          1           0       -4.443069   -0.359505    0.428760
     25          1           0       -4.618556    2.024239    1.181792
     26          7           0       -2.330681   -1.510269   -0.720849
     27          8           0       -3.312216   -2.229287   -0.546951
     28          8           0       -1.272832   -1.868547   -1.233907
 ---------------------------------------------------------------------

 SCF Done:  E(RHF) =  -868.338287244     A.U. after   16 cycles
 E2 =    -0.2602481032D+01 EUMP2 =    -0.87094076827563D+03

 The electronic state is 1-A.
 Alpha  occ. eigenvalues --  -20.60731 -20.60670 -20.60665 -20.60637 -15.85764
 Alpha  occ. eigenvalues --  -15.85705 -11.31329 -11.31011 -11.28022 -11.27764
 Alpha  occ. eigenvalues --  -11.27752 -11.27577 -11.27538 -11.27349 -11.27066
 Alpha  occ. eigenvalues --  -11.26904 -11.26620 -11.26598  -1.59783  -1.59707
 Alpha  occ. eigenvalues --   -1.39323  -1.39271  -1.19575  -1.19186  -1.08913
 Alpha  occ. eigenvalues --   -1.08598  -1.04964  -1.04591  -0.95700  -0.95440
 Alpha  occ. eigenvalues --   -0.86330  -0.85999  -0.82501  -0.82287  -0.77519
 Alpha  occ. eigenvalues --   -0.77325  -0.71994  -0.71931  -0.71160  -0.70983
 Alpha  occ. eigenvalues --   -0.70592  -0.70315  -0.65174  -0.64927  -0.64838
 Alpha  occ. eigenvalues --   -0.64621  -0.62236  -0.61977  -0.55444  -0.55147
 Alpha  occ. eigenvalues --   -0.53417  -0.52992  -0.52903  -0.52575  -0.48764
 Alpha  occ. eigenvalues --   -0.48705  -0.48691  -0.48667  -0.44773  -0.44587
 Alpha  occ. eigenvalues --   -0.37635  -0.37167  -0.36591  -0.36149
 Alpha virt. eigenvalues --    0.04968   0.05203   0.10944   0.11534   0.16406
 Alpha virt. eigenvalues --    0.16701   0.21265   0.21625   0.27180   0.27378
 Alpha virt. eigenvalues --    0.28221   0.28532   0.30857   0.31125   0.32481

 Mulliken charges:
               1
     1  C   -0.173474
     2  C   -0.222364
     3  C   -0.175293
     4  C    0.154730
     5  C   -0.175234
     6  C   -0.223497
     7  H    0.226390
     8  H    0.229997
     9  H    0.293448
    10  H    0.275126
    11  H    0.222201
    12  N    0.487714
    13  O   -0.463856
    14  O   -0.450785
    15  C   -0.169603
    16  C   -0.220687
    17  C   -0.176702
    18  C    0.159345
    19  C   -0.169016
    20  C   -0.218373
    21  H    0.224354
    22  H    0.220344
    23  H    0.280414
    24  H    0.275943
    25  H    0.223333
    26  N    0.491084
    27  O   -0.457787
    28  O   -0.467752
 Sum of Mulliken charges =  -0.00000

 Dipole moment (field-independent basis, Debye):
    X=              1.0871    Y=              7.1735    Z=             -2.7534  Tot=              7.7602
 Quadrupole moment (field-independent basis, Debye-Ang):
   XX=            -92.0690   YY=           -104.5111   ZZ=           -108.3772
   XY=             -4.7891   XZ=            -14.8310   YZ=              2.9319

 Normal termination of Gaussian 16 at Thu May  6 16:25:51 2021.
