 Gaussian 16, Revision A.03,
 Gaussian 16:  EM64L-G16RevA.03 25-Dec-2016

 -------------
 #p 6-31g* mp2
 -------------

 ------------------------------------------------------
 Input file generated by CHIRIPA (05-May-2021 14:53:15)
 ------------------------------------------------------
 Symbolic Z-matrix:
 Charge =  0 Multiplicity = 1

                         Standard orientation:
 ---------------------------------------------------------------------
 Center     Atomic      Atomic             Coordinates (Angstroms)
 Number     Number       Type             X           Y           Z
 ---------------------------------------------------------------------
      1          6           0       -2.918317    0.587853   -0.606135
      2          6           0       -2.458192    2.028474   -0.380562
      3          6           0       -1.503875    2.521486   -1.468685
      4          1           0       -2.038610   -0.068800   -0.649348
      5          1           0       -3.410025    0.516558   -1.586204
      6          1           0       -1.968727    2.097328    0.599386
      7          1           0       -3.339108    2.681746   -0.337690
      8          1           0       -1.985908    2.481560   -2.450851
      9          1           0       -0.607741    1.893821   -1.508451
     10          1           0       -1.187492    3.553486   -1.287745
     11          6           0       -3.872815    0.080679    0.473419
     12          6           0       -4.332940   -1.359942    0.247847
     13          6           0       -5.287257   -1.852954    1.335969
     14          1           0       -3.381107    0.151974    1.453488
     15          1           0       -4.752522    0.737332    0.516632
     16          1           0       -3.452024   -2.013214    0.204974
     17          1           0       -4.822405   -1.428796   -0.732101
     18          1           0       -6.183391   -1.225289    1.375736
     19          1           0       -4.805224   -1.813028    2.318136
     20          1           0       -5.603640   -2.884954    1.155030
     21          6           0        2.895819    1.887704    1.351574
     22          6           0        2.149197    1.865546    0.168956
     23          6           0        2.007806    0.680589   -0.559352
     24          6           0        2.629291   -0.468888   -0.073811
     25          6           0        3.379656   -0.478821    1.100984
     26          6           0        3.507587    0.717513    1.813000
     27          1           0        3.000427    2.812626    1.911014
     28          1           0        1.672983    2.772814   -0.191780
     29          1           0        1.435521    0.635191   -1.477964
     30          1           0        3.842710   -1.399226    1.435430
     31          1           0        4.088023    0.731760    2.731115
     32          7           0        2.486731   -1.729372   -0.836215
     33          8           0        3.044104   -2.728556   -0.387216
     34          8           0        1.820320   -1.694284   -1.868350
 ---------------------------------------------------------------------

 SCF Done:  E(RHF) =  -669.535278483     A.U. after   15 cycles
 E2 =    -0.2091956868D+01 EUMP2 =    -0.67162723535047D+03

 The electronic state is 1-A.
 Alpha  occ. eigenvalues --  -20.60797 -20.60792 -15.85849 -11.31214 -11.27779
 Alpha  occ. eigenvalues --  -11.27764 -11.27512 -11.26799 -11.26762 -11.22004
 Alpha  occ. eigenvalues --  -11.21765 -11.21528 -11.21508 -11.21419 -11.20999
 Alpha  occ. eigenvalues --   -1.59872  -1.39425  -1.19384  -1.08777  -1.08578
 Alpha  occ. eigenvalues --   -1.04791  -1.03737  -0.96211  -0.95614  -0.87237
 Alpha  occ. eigenvalues --   -0.86181  -0.82447  -0.79809  -0.78344  -0.77493
 Alpha  occ. eigenvalues --   -0.72067  -0.71196  -0.70503  -0.65230  -0.65024
 Alpha  occ. eigenvalues --   -0.64785  -0.62227  -0.61071  -0.59601  -0.57792
 Alpha  occ. eigenvalues --   -0.55548  -0.55233  -0.53115  -0.52978  -0.52861
 Alpha  occ. eigenvalues --   -0.52584  -0.50154  -0.48824  -0.48821  -0.48114
 Alpha  occ. eigenvalues --   -0.46819  -0.45896  -0.45791  -0.44829  -0.43970
 Alpha  occ. eigenvalues --   -0.37364  -0.36373
 Alpha virt. eigenvalues --    0.05006   0.11227   0.16446   0.20239   0.22950
 Alpha virt. eigenvalues --    0.24015   0.25642   0.26781   0.26933   0.28060
 Alpha virt. eigenvalues --    0.29226   0.30385   0.31418   0.31634   0.31933

 Mulliken charges:
               1
     1  C   -0.300034
     2  C   -0.299173
     3  C   -0.480383
     4  H    0.154485
     5  H    0.151586
     6  H    0.150569
     7  H    0.153598
     8  H    0.161496
     9  H    0.149270
    10  H    0.155727
    11  C   -0.298555
    12  C   -0.300590
    13  C   -0.475855
    14  H    0.148740
    15  H    0.148849
    16  H    0.156143
    17  H    0.152866
    18  H    0.154195
    19  H    0.154609
    20  H    0.161696
    21  C   -0.171415
    22  C   -0.218916
    23  C   -0.176947
    24  C    0.159411
    25  C   -0.171224
    26  C   -0.218370
    27  H    0.225782
    28  H    0.227185
    29  H    0.278675
    30  H    0.275613
    31  H    0.223547
    32  N    0.488196
    33  O   -0.460294
    34  O   -0.460486
 Sum of Mulliken charges =  -0.00000

 Dipole moment (field-independent basis, Debye):
    X=              0.4222    Y=              4.3753    Z=              2.6847  Tot=              5.1507
 Quadrupole moment (field-independent basis, Debye-Ang):
   XX=            -90.6627   YY=            -98.5572   ZZ=            -93.4438
   XY=              9.5252   XZ=             10.5008   YZ=             -3.1861

 Normal termination of Gaussian 16 at Thu May  6 07:28:36 2021.
