 Gaussian 16, Revision A.03,
 Gaussian 16:  EM64L-G16RevA.03 25-Dec-2016

 -------------
 #p 6-31g* mp2
 -------------

 ------------------------------------------------------
 Input file generated by CHIRIPA (05-May-2021 14:57:21)
 ------------------------------------------------------
 Symbolic Z-matrix:
 Charge =  0 Multiplicity = 1

                         Standard orientation:
 ---------------------------------------------------------------------
 Center     Atomic      Atomic             Coordinates (Angstroms)
 Number     Number       Type             X           Y           Z
 ---------------------------------------------------------------------
      1          6           0        0.464133    0.751055    2.178341
      2          6           0        0.445143   -0.595611    1.800650
      3          6           0        1.396135   -1.095617    0.906135
      4          6           0        2.356149   -0.216976    0.406484
      5          6           0        2.401268    1.129763    0.763625
      6          6           0        1.440413    1.607933    1.659538
      7          1           0       -0.278452    1.130990    2.873765
      8          1           0       -0.311877   -1.263378    2.201964
      9          1           0        1.404550   -2.133730    0.596831
     10          1           0        3.168258    1.771148    0.346768
     11          1           0        1.457584    2.654236    1.951086
     12          7           0        3.368143   -0.734751   -0.541239
     13          8           0        4.203485    0.059830   -0.967243
     14          8           0        3.306838   -1.925361   -0.840114
     15          6           0       -0.721381    1.955672   -1.502821
     16          6           0       -1.812941    2.283780   -0.692041
     17          6           0       -2.633107    1.281378   -0.165673
     18          6           0       -2.331280   -0.044700   -0.471790
     19          6           0       -1.250976   -0.403486   -1.276469
     20          6           0       -0.444371    0.615449   -1.791937
     21          1           0       -0.089524    2.740784   -1.907483
     22          1           0       -2.030460    3.323763   -0.465839
     23          1           0       -3.484548    1.507255    0.464759
     24          1           0       -1.059320   -1.449177   -1.484354
     25          1           0        0.402679    0.357687   -2.421310
     26          7           0       -3.192374   -1.114651    0.079682
     27          8           0       -2.905207   -2.275341   -0.204870
     28          8           0       -4.138163   -0.772328    0.786036
 ---------------------------------------------------------------------

 SCF Done:  E(RHF) =  -868.335994158     A.U. after   16 cycles
 E2 =    -0.2607167071D+01 EUMP2 =    -0.87094316122856D+03

 The electronic state is 1-A.
 Alpha  occ. eigenvalues --  -20.61342 -20.61331 -20.61288 -20.61277 -15.86377
 Alpha  occ. eigenvalues --  -15.86329 -11.31515 -11.31513 -11.28159 -11.28133
 Alpha  occ. eigenvalues --  -11.28100 -11.28036 -11.27855 -11.27804 -11.27148
 Alpha  occ. eigenvalues --  -11.27132 -11.27033 -11.27007  -1.60428  -1.60377
 Alpha  occ. eigenvalues --   -1.39983  -1.39929  -1.19854  -1.19602  -1.09170
 Alpha  occ. eigenvalues --   -1.09134  -1.05205  -1.05030  -0.96029  -0.95992
 Alpha  occ. eigenvalues --   -0.86548  -0.86504  -0.82883  -0.82812  -0.77956
 Alpha  occ. eigenvalues --   -0.77885  -0.72597  -0.72542  -0.71788  -0.71721
 Alpha  occ. eigenvalues --   -0.70911  -0.70779  -0.65405  -0.65362  -0.65173
 Alpha  occ. eigenvalues --   -0.65057  -0.62536  -0.62401  -0.55639  -0.55589
 Alpha  occ. eigenvalues --   -0.54806  -0.53242  -0.53164  -0.52085  -0.49369
 Alpha  occ. eigenvalues --   -0.49340  -0.49314  -0.49288  -0.45431  -0.45365
 Alpha  occ. eigenvalues --   -0.38429  -0.38105  -0.36555  -0.35618
 Alpha virt. eigenvalues --    0.04515   0.04579   0.10424   0.11278   0.15784
 Alpha virt. eigenvalues --    0.16620   0.20613   0.21466   0.26249   0.26950
 Alpha virt. eigenvalues --    0.28024   0.28284   0.30608   0.30742   0.31570

 Mulliken charges:
               1
     1  C   -0.166075
     2  C   -0.219198
     3  C   -0.175491
     4  C    0.158904
     5  C   -0.176056
     6  C   -0.215851
     7  H    0.227400
     8  H    0.232661
     9  H    0.277903
    10  H    0.272682
    11  H    0.220839
    12  N    0.485370
    13  O   -0.462263
    14  O   -0.459809
    15  C   -0.166800
    16  C   -0.220512
    17  C   -0.175777
    18  C    0.158741
    19  C   -0.169398
    20  C   -0.216301
    21  H    0.226607
    22  H    0.221188
    23  H    0.273132
    24  H    0.276351
    25  H    0.229657
    26  N    0.485304
    27  O   -0.461286
    28  O   -0.461924
 Sum of Mulliken charges =  -0.00000

 Dipole moment (field-independent basis, Debye):
    X=             -0.5210    Y=              5.5500    Z=              1.4082  Tot=              5.7496
 Quadrupole moment (field-independent basis, Debye-Ang):
   XX=           -135.5496   YY=            -99.9593   ZZ=           -100.1468
   XY=             -3.9753   XZ=              7.9823   YZ=             -0.3088

 Normal termination of Gaussian 16 at Wed May  5 22:35:22 2021.
