 Gaussian 16, Revision A.03,
 Gaussian 16:  EM64L-G16RevA.03 25-Dec-2016

 -------------
 #p 6-31g* mp2
 -------------

 ------------------------------------------------------
 Input file generated by CHIRIPA (05-May-2021 14:51:10)
 ------------------------------------------------------
 Symbolic Z-matrix:
 Charge =  0 Multiplicity = 1

                         Standard orientation:
 ---------------------------------------------------------------------
 Center     Atomic      Atomic             Coordinates (Angstroms)
 Number     Number       Type             X           Y           Z
 ---------------------------------------------------------------------
      1          6           0        5.489090   -0.388776   -0.286728
      2          6           0        6.755824    0.176111    0.356911
      3          6           0        8.026439   -0.209067   -0.401357
      4          1           0        5.568898   -1.483223   -0.339269
      5          1           0        5.421600   -0.030182   -1.323188
      6          1           0        6.820185   -0.182325    1.392284
      7          1           0        6.672909    1.269327    0.408101
      8          1           0        7.988385    0.162287   -1.430556
      9          1           0        8.136498   -1.297613   -0.440780
     10          1           0        8.919975    0.205200    0.075966
     11          6           0        4.210585   -0.012304    0.459880
     12          6           0        2.943850   -0.577190   -0.183758
     13          6           0        1.673236   -0.192013    0.574510
     14          1           0        4.278075   -0.370897    1.496341
     15          1           0        4.130777    1.082144    0.512422
     16          1           0        3.026766   -1.670406   -0.234948
     17          1           0        2.879490   -0.218754   -1.219131
     18          1           0        1.563177    0.896534    0.613933
     19          1           0        1.711290   -0.563366    1.603708
     20          1           0        0.779700   -0.606279    0.097186
     21          6           0       -4.155656    0.213178   -0.404984
     22          6           0       -3.236962    1.283215    0.185784
     23          6           0       -1.851793    1.296048   -0.461469
     24          1           0       -3.684497   -0.772080   -0.285729
     25          1           0       -4.256580    0.382603   -1.485958
     26          1           0       -3.138908    1.112643    1.265555
     27          1           0       -3.710450    2.266020    0.065280
     28          1           0       -1.930568    1.488990   -1.536257
     29          1           0       -1.355779    0.329060   -0.329162
     30          1           0       -1.211460    2.068444   -0.024164
     31          6           0       -5.544020    0.187901    0.231832
     32          6           0       -6.462713   -0.882136   -0.358937
     33          6           0       -7.847881   -0.894968    0.288317
     34          1           0       -5.443095    0.018476    1.312806
     35          1           0       -6.015177    1.173159    0.112577
     36          1           0       -5.989226   -1.864940   -0.238433
     37          1           0       -6.560767   -0.711564   -1.438708
     38          1           0       -8.343897    0.072019    0.156008
     39          1           0       -7.769107   -1.087911    1.363104
     40          1           0       -8.488215   -1.667365   -0.148990
 ---------------------------------------------------------------------

 SCF Done:  E(RHF) =  -470.732928460     A.U. after   11 cycles
 E2 =    -0.1582316834D+01 EUMP2 =    -0.47231524529426D+03

 The electronic state is 1-A.
 Alpha  occ. eigenvalues --  -11.21587 -11.21586 -11.21562 -11.21548 -11.21383
 Alpha  occ. eigenvalues --  -11.21380 -11.21324 -11.21321 -11.21060 -11.21058
 Alpha  occ. eigenvalues --  -11.21003 -11.20975  -1.08409  -1.08397  -1.03522
 Alpha  occ. eigenvalues --   -1.03474  -0.96006  -0.95892  -0.87062  -0.86872
 Alpha  occ. eigenvalues --   -0.79637  -0.79489  -0.78227  -0.78207  -0.65045
 Alpha  occ. eigenvalues --   -0.65025  -0.60949  -0.60869  -0.59343  -0.59309
 Alpha  occ. eigenvalues --   -0.57652  -0.57478  -0.55320  -0.55169  -0.52819
 Alpha  occ. eigenvalues --   -0.52587  -0.52398  -0.52236  -0.49955  -0.49784
 Alpha  occ. eigenvalues --   -0.47958  -0.47797  -0.46638  -0.46545  -0.45761
 Alpha  occ. eigenvalues --   -0.45757  -0.45691  -0.45675  -0.43781  -0.43679
 Alpha virt. eigenvalues --    0.22397   0.22977   0.23579   0.24777   0.26351
 Alpha virt. eigenvalues --    0.26582   0.27044   0.27242   0.27668   0.28906
 Alpha virt. eigenvalues --    0.29278   0.31084   0.31774   0.31868   0.32350

 Mulliken charges:
               1
     1  C   -0.298228
     2  C   -0.299611
     3  C   -0.475686
     4  H    0.149566
     5  H    0.149549
     6  H    0.151864
     7  H    0.151919
     8  H    0.155181
     9  H    0.155142
    10  H    0.160196
    11  C   -0.298588
    12  C   -0.299581
    13  C   -0.478125
    14  H    0.149360
    15  H    0.149608
    16  H    0.151471
    17  H    0.152224
    18  H    0.156447
    19  H    0.154243
    20  H    0.163358
    21  C   -0.298351
    22  C   -0.299703
    23  C   -0.478590
    24  H    0.149366
    25  H    0.149377
    26  H    0.152050
    27  H    0.151483
    28  H    0.154180
    29  H    0.159652
    30  H    0.160368
    31  C   -0.298240
    32  C   -0.299630
    33  C   -0.475689
    34  H    0.149543
    35  H    0.149616
    36  H    0.151880
    37  H    0.151867
    38  H    0.155155
    39  H    0.155175
    40  H    0.160184
 Sum of Mulliken charges =  -0.00000

 Dipole moment (field-independent basis, Debye):
    X=              0.0066    Y=              0.0016    Z=              0.0013  Tot=              0.0069
 Quadrupole moment (field-independent basis, Debye-Ang):
   XX=            -86.9703   YY=            -83.6829   ZZ=            -84.3200
   XY=             -0.2093   XZ=              1.0789   YZ=             -1.0033

 Normal termination of Gaussian 16 at Wed May  5 16:41:02 2021.
