 Gaussian 16, Revision A.03,
 Gaussian 16:  EM64L-G16RevA.03 25-Dec-2016

 -------------
 #p 6-31g* mp2
 -------------

 ------------------------------------------------------
 Input file generated by CHIRIPA (05-May-2021 14:55:25)
 ------------------------------------------------------
 Symbolic Z-matrix:
 Charge =  0 Multiplicity = 1

                         Standard orientation:
 ---------------------------------------------------------------------
 Center     Atomic      Atomic             Coordinates (Angstroms)
 Number     Number       Type             X           Y           Z
 ---------------------------------------------------------------------
      1          6           0       -4.798368    0.700867    0.455003
      2          6           0       -3.934351    0.412075    1.516415
      3          6           0       -2.730016   -0.260449    1.288744
      4          6           0       -2.419823   -0.631175   -0.018786
      5          6           0       -3.259790   -0.357784   -1.097211
      6          6           0       -4.458928    0.315695   -0.846129
      7          1           0       -5.731906    1.223671    0.640957
      8          1           0       -4.195375    0.709999    2.527926
      9          1           0       -2.042705   -0.496676    2.091999
     10          1           0       -2.972301   -0.667469   -2.094640
     11          1           0       -5.128004    0.538649   -1.672370
     12          7           0       -1.147598   -1.343652   -0.272204
     13          8           0       -0.897356   -1.659541   -1.433337
     14          8           0       -0.424760   -1.572712    0.695099
     15          6           0        3.028430    1.326661   -0.177730
     16          6           0        1.501275    1.253668   -0.156414
     17          6           0        0.840875    2.599981   -0.454920
     18          1           0        3.363828    2.071987    0.556397
     19          1           0        3.357619    1.687354   -1.162073
     20          1           0        1.175123    0.891903    0.827134
     21          1           0        1.169483    0.508292   -0.890542
     22          1           0        1.137653    2.963777   -1.443948
     23          1           0        1.143325    3.349567    0.283488
     24          1           0       -0.250827    2.524922   -0.434572
     25          6           0        3.703092   -0.011460    0.118899
     26          6           0        5.230247    0.061534    0.097584
     27          6           0        5.890648   -1.284779    0.396089
     28          1           0        3.373904   -0.372152    1.103242
     29          1           0        3.367695   -0.756786   -0.615228
     30          1           0        5.562040    0.806910    0.831711
     31          1           0        5.556400    0.423299   -0.885965
     32          1           0        5.588198   -2.034365   -0.342318
     33          1           0        5.593870   -1.648575    1.385117
     34          1           0        6.982350   -1.209720    0.375742
 ---------------------------------------------------------------------

 SCF Done:  E(RHF) =  -669.536064768     A.U. after   15 cycles
 E2 =    -0.2092661212D+01 EUMP2 =    -0.67162872598002D+03

 The electronic state is 1-A.
 Alpha  occ. eigenvalues --  -20.60928 -20.60916 -15.85923 -11.31281 -11.27841
 Alpha  occ. eigenvalues --  -11.27836 -11.27573 -11.26845 -11.26835 -11.20767
 Alpha  occ. eigenvalues --  -11.20579 -11.20506 -11.20481 -11.20292 -11.20283
 Alpha  occ. eigenvalues --   -1.59969  -1.39527  -1.19443  -1.08842  -1.07502
 Alpha  occ. eigenvalues --   -1.04840  -1.02711  -0.95683  -0.95187  -0.86239
 Alpha  occ. eigenvalues --   -0.86200  -0.82521  -0.78763  -0.77575  -0.77289
 Alpha  occ. eigenvalues --   -0.72165  -0.71263  -0.70550  -0.65098  -0.64842
 Alpha  occ. eigenvalues --   -0.64135  -0.62187  -0.60110  -0.58554  -0.56790
 Alpha  occ. eigenvalues --   -0.55342  -0.54480  -0.53178  -0.52931  -0.51914
 Alpha  occ. eigenvalues --   -0.51598  -0.49137  -0.48938  -0.48923  -0.47078
 Alpha  occ. eigenvalues --   -0.45845  -0.45121  -0.44761  -0.44450  -0.42936
 Alpha  occ. eigenvalues --   -0.37413  -0.36439
 Alpha virt. eigenvalues --    0.04921   0.11205   0.16388   0.21326   0.23750
 Alpha virt. eigenvalues --    0.24922   0.27191   0.27624   0.27959   0.28465
 Alpha virt. eigenvalues --    0.28887   0.30894   0.31929   0.32139   0.32454

 Mulliken charges:
               1
     1  C   -0.170562
     2  C   -0.218525
     3  C   -0.171050
     4  C    0.159387
     5  C   -0.171104
     6  C   -0.218554
     7  H    0.226000
     8  H    0.223806
     9  H    0.275615
    10  H    0.275836
    11  H    0.223840
    12  N    0.488737
    13  O   -0.460544
    14  O   -0.456991
    15  C   -0.297866
    16  C   -0.309124
    17  C   -0.475548
    18  H    0.144535
    19  H    0.146414
    20  H    0.157763
    21  H    0.164344
    22  H    0.153687
    23  H    0.151597
    24  H    0.153001
    25  C   -0.298329
    26  C   -0.299357
    27  C   -0.475043
    28  H    0.152956
    29  H    0.158650
    30  H    0.148214
    31  H    0.149491
    32  H    0.157021
    33  H    0.155128
    34  H    0.156579
 Sum of Mulliken charges =  -0.00000

 Dipole moment (field-independent basis, Debye):
    X=             -4.6490    Y=              2.2810    Z=              0.9022  Tot=              5.2564
 Quadrupole moment (field-independent basis, Debye-Ang):
   XX=            -74.4764   YY=           -100.0533   ZZ=            -89.0592
   XY=             -3.1814   XZ=             -1.0960   YZ=              0.0980

 Normal termination of Gaussian 16 at Thu May  6 17:46:44 2021.
