 Gaussian 16, Revision A.03,
 Gaussian 16:  EM64L-G16RevA.03 25-Dec-2016

 -------------
 #p 6-31g* mp2
 -------------

 ------------------------------------------------------
 Input file generated by CHIRIPA (05-May-2021 14:57:27)
 ------------------------------------------------------
 Symbolic Z-matrix:
 Charge =  0 Multiplicity = 1

                         Standard orientation:
 ---------------------------------------------------------------------
 Center     Atomic      Atomic             Coordinates (Angstroms)
 Number     Number       Type             X           Y           Z
 ---------------------------------------------------------------------
      1          6           0        3.262815    2.450911    0.395183
      2          6           0        3.725380    1.633179    1.431460
      3          6           0        3.705019    0.241409    1.300661
      4          6           0        3.213198   -0.301377    0.114581
      5          6           0        2.745369    0.486723   -0.935812
      6          6           0        2.775146    1.876086   -0.783068
      7          1           0        3.282289    3.531137    0.505315
      8          1           0        4.104660    2.076828    2.347630
      9          1           0        4.056976   -0.415146    2.087096
     10          1           0        2.373077    0.015307   -1.837246
     11          1           0        2.415268    2.508685   -1.589512
     12          7           0        3.186658   -1.773508   -0.035506
     13          8           0        2.748472   -2.227080   -1.090448
     14          8           0        3.604546   -2.445917    0.904639
     15          6           0       -1.030459    0.566094   -1.290433
     16          6           0       -1.414061   -0.760817   -1.069796
     17          6           0       -2.623695   -1.053681   -0.432958
     18          6           0       -3.429014    0.009704   -0.028032
     19          6           0       -3.074496    1.342135   -0.233547
     20          6           0       -1.860437    1.611491   -0.872341
     21          1           0       -0.089067    0.784467   -1.785904
     22          1           0       -0.771487   -1.574705   -1.393416
     23          1           0       -2.945086   -2.071756   -0.249521
     24          1           0       -3.736105    2.132185    0.100386
     25          1           0       -1.565087    2.642949   -1.042367
     26          7           0       -4.711941   -0.287895    0.647196
     27          8           0       -5.403646    0.666910    0.994369
     28          8           0       -5.001502   -1.470321    0.816481
 ---------------------------------------------------------------------

 SCF Done:  E(RHF) =  -868.337144748     A.U. after   16 cycles
 E2 =    -0.2601066315D+01 EUMP2 =    -0.87093821106315D+03

 The electronic state is 1-A.
 Alpha  occ. eigenvalues --  -20.61729 -20.61678 -20.60724 -20.60711 -15.86754
 Alpha  occ. eigenvalues --  -15.85773 -11.32149 -11.31155 -11.28831 -11.28649
 Alpha  occ. eigenvalues --  -11.28428 -11.27817 -11.27762 -11.27659 -11.27647
 Alpha  occ. eigenvalues --  -11.27518 -11.26838 -11.26632  -1.60770  -1.59795
 Alpha  occ. eigenvalues --   -1.40327  -1.39348  -1.20323  -1.19331  -1.09695
 Alpha  occ. eigenvalues --   -1.08741  -1.05754  -1.04724  -0.96537  -0.95573
 Alpha  occ. eigenvalues --   -0.87135  -0.86129  -0.83387  -0.82391  -0.78439
 Alpha  occ. eigenvalues --   -0.77419  -0.72971  -0.72091  -0.71991  -0.71466
 Alpha  occ. eigenvalues --   -0.71118  -0.70483  -0.65980  -0.65751  -0.64985
 Alpha  occ. eigenvalues --   -0.64726  -0.63104  -0.62056  -0.56216  -0.55374
 Alpha  occ. eigenvalues --   -0.53981  -0.53829  -0.53050  -0.52807  -0.49736
 Alpha  occ. eigenvalues --   -0.49715  -0.48752  -0.48744  -0.45725  -0.44750
 Alpha  occ. eigenvalues --   -0.38268  -0.37624  -0.37028  -0.36321
 Alpha virt. eigenvalues --    0.04046   0.05124   0.10228   0.11362   0.15451
 Alpha virt. eigenvalues --    0.16611   0.19035   0.22096   0.25361   0.26444
 Alpha virt. eigenvalues --    0.27645   0.29796   0.30121   0.31011   0.32422

 Mulliken charges:
               1
     1  C   -0.169552
     2  C   -0.217252
     3  C   -0.169072
     4  C    0.160749
     5  C   -0.175305
     6  C   -0.219465
     7  H    0.228476
     8  H    0.227733
     9  H    0.279170
    10  H    0.269642
    11  H    0.220431
    12  N    0.488506
    13  O   -0.465729
    14  O   -0.454330
    15  C   -0.167220
    16  C   -0.223936
    17  C   -0.170574
    18  C    0.158566
    19  C   -0.171490
    20  C   -0.219294
    21  H    0.215741
    22  H    0.236317
    23  H    0.278260
    24  H    0.274421
    25  H    0.217724
    26  N    0.487952
    27  O   -0.461595
    28  O   -0.458877
 Sum of Mulliken charges =  -0.00000

 Dipole moment (field-independent basis, Debye):
    X=              4.8535    Y=              6.1056    Z=             -1.5854  Tot=              7.9592
 Quadrupole moment (field-independent basis, Debye-Ang):
   XX=           -134.8617   YY=           -103.4483   ZZ=           -101.3149
   XY=             12.3569   XZ=             12.4890   YZ=              0.5614

 Normal termination of Gaussian 16 at Fri May  7 00:31:42 2021.
