 Gaussian 16, Revision A.03,
 Gaussian 16:  EM64L-G16RevA.03 25-Dec-2016

 -------------
 #p 6-31g* mp2
 -------------

 ------------------------------------------------------
 Input file generated by CHIRIPA (05-May-2021 14:55:25)
 ------------------------------------------------------
 Symbolic Z-matrix:
 Charge =  0 Multiplicity = 1

                         Standard orientation:
 ---------------------------------------------------------------------
 Center     Atomic      Atomic             Coordinates (Angstroms)
 Number     Number       Type             X           Y           Z
 ---------------------------------------------------------------------
      1          6           0        2.573118    2.153953    1.128210
      2          6           0        2.891338    1.993396   -0.224372
      3          6           0        2.672788    0.770036   -0.864821
      4          6           0        2.132121   -0.276298   -0.119064
      5          6           0        1.804701   -0.147469    1.229821
      6          6           0        2.031769    1.084893    1.849717
      7          1           0        2.746202    3.107785    1.617744
      8          1           0        3.311878    2.821904   -0.787192
      9          1           0        2.909994    0.618263   -1.910821
     10          1           0        1.386761   -0.991685    1.764650
     11          1           0        1.783676    1.206704    2.900268
     12          7           0        1.896243   -1.576179   -0.786200
     13          8           0        1.418838   -2.482534   -0.107052
     14          8           0        2.193232   -1.664057   -1.975616
     15          6           0       -3.123092    0.638101   -0.379289
     16          6           0       -2.517375    2.018726   -0.124406
     17          6           0       -3.216702    3.125938   -0.913593
     18          1           0       -3.070181    0.414142   -1.453528
     19          1           0       -4.189829    0.659212   -0.116572
     20          1           0       -1.451781    1.994636   -0.386218
     21          1           0       -2.571560    2.239343    0.949377
     22          1           0       -4.276989    3.178939   -0.646038
     23          1           0       -3.150847    2.932842   -1.989222
     24          1           0       -2.767739    4.104420   -0.716453
     25          6           0       -2.434660   -0.479223    0.402616
     26          6           0       -3.040377   -1.859849    0.147732
     27          6           0       -2.341048   -2.967061    0.936918
     28          1           0       -1.367922   -0.500333    0.139898
     29          1           0       -2.487571   -0.255265    1.476853
     30          1           0       -2.986191   -2.080465   -0.926050
     31          1           0       -4.105970   -1.835760    0.409544
     32          1           0       -2.406903   -2.773965    2.012548
     33          1           0       -1.280763   -3.020061    0.669365
     34          1           0       -2.790012   -3.945543    0.739778
 ---------------------------------------------------------------------

 SCF Done:  E(RHF) =  -669.536548220     A.U. after   15 cycles
 E2 =    -0.2092698549D+01 EUMP2 =    -0.67162924676897D+03

 The electronic state is 1-A.
 Alpha  occ. eigenvalues --  -20.61007 -20.60999 -15.86027 -11.31314 -11.27871
 Alpha  occ. eigenvalues --  -11.27861 -11.27599 -11.26869 -11.26850 -11.21592
 Alpha  occ. eigenvalues --  -11.21210 -11.21118 -11.21101 -11.21024 -11.20174
 Alpha  occ. eigenvalues --   -1.60059  -1.39616  -1.19477  -1.08887  -1.08171
 Alpha  occ. eigenvalues --   -1.04863  -1.03202  -0.95737  -0.95639  -0.86661
 Alpha  occ. eigenvalues --   -0.86265  -0.82567  -0.79297  -0.77989  -0.77613
 Alpha  occ. eigenvalues --   -0.72251  -0.71373  -0.70579  -0.65135  -0.64866
 Alpha  occ. eigenvalues --   -0.64792  -0.62209  -0.60584  -0.59064  -0.57255
 Alpha  occ. eigenvalues --   -0.55369  -0.54914  -0.53205  -0.52952  -0.52332
 Alpha  occ. eigenvalues --   -0.52066  -0.49584  -0.49017  -0.48995  -0.47601
 Alpha  occ. eigenvalues --   -0.46345  -0.45598  -0.45483  -0.44810  -0.43478
 Alpha  occ. eigenvalues --   -0.37442  -0.36445
 Alpha virt. eigenvalues --    0.04862   0.11136   0.16320   0.21224   0.23015
 Alpha virt. eigenvalues --    0.24494   0.26564   0.27084   0.27587   0.27871
 Alpha virt. eigenvalues --    0.28826   0.30791   0.31675   0.31918   0.32380

 Mulliken charges:
               1
     1  C   -0.170258
     2  C   -0.218695
     3  C   -0.171341
     4  C    0.157289
     5  C   -0.169506
     6  C   -0.217999
     7  H    0.226263
     8  H    0.223969
     9  H    0.275793
    10  H    0.277024
    11  H    0.224304
    12  N    0.489954
    13  O   -0.461519
    14  O   -0.458343
    15  C   -0.298205
    16  C   -0.299571
    17  C   -0.475323
    18  H    0.151638
    19  H    0.149087
    20  H    0.151599
    21  H    0.148454
    22  H    0.155600
    23  H    0.156156
    24  H    0.156991
    25  C   -0.299072
    26  C   -0.298229
    27  C   -0.488367
    28  H    0.148719
    29  H    0.144037
    30  H    0.154901
    31  H    0.148296
    32  H    0.146297
    33  H    0.180999
    34  H    0.159055
 Sum of Mulliken charges =  -0.00000

 Dipole moment (field-independent basis, Debye):
    X=              1.0394    Y=              4.5103    Z=              2.2759  Tot=              5.1578
 Quadrupole moment (field-independent basis, Debye-Ang):
   XX=            -91.4263   YY=            -97.9186   ZZ=            -91.5070
   XY=             10.7589   XZ=              2.8039   YZ=             -2.2239

 Normal termination of Gaussian 16 at Wed May  5 19:13:19 2021.
