 Gaussian 16, Revision A.03,
 Gaussian 16:  EM64L-G16RevA.03 25-Dec-2016

 -------------
 #p 6-31g* mp2
 -------------

 ------------------------------------------------------
 Input file generated by CHIRIPA (05-May-2021 14:53:16)
 ------------------------------------------------------
 Symbolic Z-matrix:
 Charge =  0 Multiplicity = 1

                         Standard orientation:
 ---------------------------------------------------------------------
 Center     Atomic      Atomic             Coordinates (Angstroms)
 Number     Number       Type             X           Y           Z
 ---------------------------------------------------------------------
      1          6           0        4.523646   -0.476885   -0.416518
      2          6           0        5.500150    0.603891    0.048613
      3          6           0        6.805213    0.603921   -0.748008
      4          1           0        5.006841   -1.459855   -0.331449
      5          1           0        4.303490   -0.328038   -1.482713
      6          1           0        5.717323    0.453875    1.113952
      7          1           0        5.014507    1.584386   -0.037392
      8          1           0        6.607714    0.776392   -1.810951
      9          1           0        7.314524   -0.360542   -0.653065
     10          1           0        7.488619    1.384284   -0.398937
     11          6           0        3.214275   -0.489555    0.370321
     12          6           0        2.237770   -1.570331   -0.094810
     13          6           0        0.932708   -1.570361    0.701811
     14          1           0        3.434431   -0.638402    1.436516
     15          1           0        2.731080    0.493415    0.285252
     16          1           0        2.723414   -2.550825   -0.008804
     17          1           0        2.020598   -1.420314   -1.160149
     18          1           0        0.423397   -0.605897    0.606868
     19          1           0        1.130206   -1.742832    1.764755
     20          1           0        0.249302   -2.350724    0.352740
     21          6           0       -1.600743    2.369965    0.629863
     22          6           0       -1.543705    1.205514    1.402730
     23          6           0       -2.327075    0.095466    1.073071
     24          6           0       -3.160088    0.184893   -0.041103
     25          6           0       -3.239069    1.330924   -0.830827
     26          6           0       -2.446752    2.428850   -0.482488
     27          1           0       -0.988728    3.227568    0.893206
     28          1           0       -0.887599    1.156939    2.267142
     29          1           0       -2.302466   -0.818489    1.654017
     30          1           0       -3.902744    1.349371   -1.686755
     31          1           0       -2.493097    3.331870   -1.084527
     32          7           0       -3.994142   -0.983848   -0.399985
     33          8           0       -4.719893   -0.879756   -1.386438
     34          8           0       -3.906331   -1.981869    0.311970
 ---------------------------------------------------------------------

 SCF Done:  E(RHF) =  -669.534415008     A.U. after   15 cycles
 E2 =    -0.2092630788D+01 EUMP2 =    -0.67162704579512D+03

 The electronic state is 1-A.
 Alpha  occ. eigenvalues --  -20.60777 -20.60772 -15.85831 -11.31198 -11.27779
 Alpha  occ. eigenvalues --  -11.27759 -11.27533 -11.26794 -11.26759 -11.21914
 Alpha  occ. eigenvalues --  -11.21821 -11.21728 -11.21647 -11.21330 -11.21222
 Alpha  occ. eigenvalues --   -1.59852  -1.39405  -1.19394  -1.08784  -1.08719
 Alpha  occ. eigenvalues --   -1.04809  -1.03789  -0.96257  -0.95610  -0.87283
 Alpha  occ. eigenvalues --   -0.86187  -0.82449  -0.79875  -0.78549  -0.77479
 Alpha  occ. eigenvalues --   -0.72049  -0.71176  -0.70491  -0.65356  -0.65040
 Alpha  occ. eigenvalues --   -0.64791  -0.62143  -0.61199  -0.59607  -0.57870
 Alpha  occ. eigenvalues --   -0.55618  -0.55293  -0.53326  -0.52972  -0.52796
 Alpha  occ. eigenvalues --   -0.52535  -0.50164  -0.48809  -0.48802  -0.48180
 Alpha  occ. eigenvalues --   -0.46896  -0.46089  -0.46011  -0.44808  -0.44052
 Alpha  occ. eigenvalues --   -0.37382  -0.36272
 Alpha virt. eigenvalues --    0.05043   0.11177   0.16468   0.21178   0.22617
 Alpha virt. eigenvalues --    0.24113   0.26336   0.26511   0.27223   0.28139
 Alpha virt. eigenvalues --    0.28674   0.30697   0.31254   0.31577   0.31873

 Mulliken charges:
               1
     1  C   -0.298395
     2  C   -0.299449
     3  C   -0.475809
     4  H    0.151307
     5  H    0.150361
     6  H    0.151685
     7  H    0.149730
     8  H    0.155616
     9  H    0.156283
    10  H    0.160285
    11  C   -0.297884
    12  C   -0.298694
    13  C   -0.487965
    14  H    0.148193
    15  H    0.145242
    16  H    0.153640
    17  H    0.153752
    18  H    0.160696
    19  H    0.149762
    20  H    0.167029
    21  C   -0.171816
    22  C   -0.221813
    23  C   -0.166324
    24  C    0.158391
    25  C   -0.171149
    26  C   -0.218779
    27  H    0.225817
    28  H    0.225974
    29  H    0.277830
    30  H    0.275675
    31  H    0.223443
    32  N    0.488174
    33  O   -0.460471
    34  O   -0.460338
 Sum of Mulliken charges =  -0.00000

 Dipole moment (field-independent basis, Debye):
    X=              2.9115    Y=              4.0954    Z=              1.2294  Tot=              5.1731
 Quadrupole moment (field-independent basis, Debye-Ang):
   XX=           -114.1120   YY=            -91.9884   ZZ=            -91.9769
   XY=            -14.0792   XZ=             -1.8793   YZ=             -2.5080

 Normal termination of Gaussian 16 at Thu May  6 15:33:28 2021.
