 Gaussian 16, Revision A.03,
 Gaussian 16:  EM64L-G16RevA.03 25-Dec-2016

 -------------
 #p 6-31g* mp2
 -------------

 ------------------------------------------------------
 Input file generated by CHIRIPA (05-May-2021 14:53:17)
 ------------------------------------------------------
 Symbolic Z-matrix:
 Charge =  0 Multiplicity = 1

                         Standard orientation:
 ---------------------------------------------------------------------
 Center     Atomic      Atomic             Coordinates (Angstroms)
 Number     Number       Type             X           Y           Z
 ---------------------------------------------------------------------
      1          6           0        2.803419    0.883665    0.954898
      2          6           0        1.341553    1.331882    0.949124
      3          6           0        1.041351    2.383192    2.017964
      4          1           0        3.053296    0.482190    1.946525
      5          1           0        3.448812    1.759475    0.800561
      6          1           0        0.699054    0.455282    1.102044
      7          1           0        1.095073    1.732160   -0.042663
      8          1           0        1.657962    3.274851    1.865198
      9          1           0        1.259693    1.990719    3.016409
     10          1           0       -0.009190    2.689367    1.996048
     11          6           0        3.119082   -0.167158   -0.108050
     12          6           0        4.580948   -0.615375   -0.102276
     13          6           0        4.881150   -1.666685   -1.171116
     14          1           0        2.473690   -1.042968    0.046287
     15          1           0        2.869205    0.234317   -1.099677
     16          1           0        4.827428   -1.015653    0.889511
     17          1           0        5.223447    0.261225   -0.255196
     18          1           0        4.662809   -1.274212   -2.169561
     19          1           0        4.264539   -2.558344   -1.018350
     20          1           0        5.931691   -1.972860   -1.149200
     21          6           0       -1.874947    1.740054   -1.777678
     22          6           0       -3.023432    1.685619   -0.981099
     23          6           0       -3.276590    0.571415   -0.175490
     24          6           0       -2.355872   -0.475166   -0.190921
     25          6           0       -1.202600   -0.450563   -0.973639
     26          6           0       -0.969792    0.673670   -1.771417
     27          1           0       -1.686191    2.609490   -2.400453
     28          1           0       -3.728135    2.512319   -0.983958
     29          1           0       -4.157762    0.503126    0.450843
     30          1           0       -0.518526   -1.290139   -0.949670
     31          1           0       -0.077030    0.713204   -2.389039
     32          7           0       -2.613108   -1.660032    0.657796
     33          8           0       -1.786412   -2.569001    0.626371
     34          8           0       -3.636554   -1.657327    1.338375
 ---------------------------------------------------------------------

 SCF Done:  E(RHF) =  -669.534082795     A.U. after   15 cycles
 E2 =    -0.2094111974D+01 EUMP2 =    -0.67162819476906D+03

 The electronic state is 1-A.
 Alpha  occ. eigenvalues --  -20.60794 -20.60787 -15.85845 -11.31185 -11.27747
 Alpha  occ. eigenvalues --  -11.27721 -11.27492 -11.26772 -11.26731 -11.21888
 Alpha  occ. eigenvalues --  -11.21805 -11.21722 -11.21598 -11.21322 -11.21224
 Alpha  occ. eigenvalues --   -1.59868  -1.39422  -1.19365  -1.08774  -1.08709
 Alpha  occ. eigenvalues --   -1.04770  -1.03754  -0.96225  -0.95601  -0.87239
 Alpha  occ. eigenvalues --   -0.86169  -0.82436  -0.79844  -0.78583  -0.77463
 Alpha  occ. eigenvalues --   -0.72063  -0.71193  -0.70473  -0.65375  -0.65014
 Alpha  occ. eigenvalues --   -0.64745  -0.62112  -0.61154  -0.59615  -0.57858
 Alpha  occ. eigenvalues --   -0.55515  -0.55268  -0.53221  -0.52860  -0.52827
 Alpha  occ. eigenvalues --   -0.52627  -0.50167  -0.48820  -0.48819  -0.48135
 Alpha  occ. eigenvalues --   -0.46880  -0.46093  -0.46015  -0.44825  -0.44039
 Alpha  occ. eigenvalues --   -0.37319  -0.36217
 Alpha virt. eigenvalues --    0.05045   0.11136   0.16508   0.20262   0.22898
 Alpha virt. eigenvalues --    0.24073   0.25186   0.25394   0.27584   0.28358
 Alpha virt. eigenvalues --    0.30031   0.30651   0.31200   0.31607   0.31838

 Mulliken charges:
               1
     1  C   -0.297823
     2  C   -0.300947
     3  C   -0.476080
     4  H    0.153169
     5  H    0.148442
     6  H    0.156018
     7  H    0.147171
     8  H    0.153026
     9  H    0.157933
    10  H    0.160066
    11  C   -0.300340
    12  C   -0.299445
    13  C   -0.476465
    14  H    0.151852
    15  H    0.140310
    16  H    0.155483
    17  H    0.152012
    18  H    0.152223
    19  H    0.157552
    20  H    0.162079
    21  C   -0.171948
    22  C   -0.218458
    23  C   -0.171513
    24  C    0.158687
    25  C   -0.169832
    26  C   -0.215058
    27  H    0.225441
    28  H    0.223382
    29  H    0.275465
    30  H    0.276702
    31  H    0.224308
    32  N    0.488021
    33  O   -0.461225
    34  O   -0.460207
 Sum of Mulliken charges =  -0.00000

 Dipole moment (field-independent basis, Debye):
    X=              0.9261    Y=              4.1297    Z=             -2.9288  Tot=              5.1468
 Quadrupole moment (field-independent basis, Debye-Ang):
   XX=            -95.6288   YY=            -98.5795   ZZ=            -93.8104
   XY=            -12.2158   XZ=              5.6642   YZ=              0.2581

 Normal termination of Gaussian 16 at Wed May  5 22:02:03 2021.
