 Gaussian 16, Revision A.03,
 Gaussian 16:  EM64L-G16RevA.03 25-Dec-2016

 -------------
 #p 6-31g* mp2
 -------------

 ------------------------------------------------------
 Input file generated by CHIRIPA (05-May-2021 14:53:14)
 ------------------------------------------------------
 Symbolic Z-matrix:
 Charge =  0 Multiplicity = 1

                         Standard orientation:
 ---------------------------------------------------------------------
 Center     Atomic      Atomic             Coordinates (Angstroms)
 Number     Number       Type             X           Y           Z
 ---------------------------------------------------------------------
      1          6           0       -4.759512   -0.015529    0.238508
      2          6           0       -5.276835    0.698801   -1.010529
      3          6           0       -6.621763    1.389343   -0.782243
      4          1           0       -5.502920   -0.756019    0.564029
      5          1           0       -4.664824    0.712533    1.056038
      6          1           0       -5.369204   -0.030125   -1.825851
      7          1           0       -4.532024    1.437543   -1.333226
      8          1           0       -6.540642    2.137424    0.012990
      9          1           0       -7.382578    0.661417   -0.482435
     10          1           0       -6.972960    1.893652   -1.687888
     11          6           0       -3.415864   -0.710661    0.026074
     12          6           0       -2.898541   -1.424992    1.275111
     13          6           0       -1.553613   -2.115533    1.046825
     14          1           0       -3.510552   -1.438723   -0.791456
     15          1           0       -2.672456    0.029829   -0.299447
     16          1           0       -3.643352   -2.163734    1.597808
     17          1           0       -2.806172   -0.696065    2.090433
     18          1           0       -0.792798   -1.387607    0.747017
     19          1           0       -1.634734   -2.863615    0.251592
     20          1           0       -1.202416   -2.619842    1.952470
     21          6           0        3.745090   -2.082109   -0.785100
     22          6           0        2.415200   -1.709442   -0.563662
     23          6           0        2.097914   -0.401412   -0.185596
     24          6           0        3.140181    0.512383   -0.037443
     25          6           0        4.474955    0.171595   -0.250826
     26          6           0        4.768918   -1.142057   -0.628252
     27          1           0        3.982506   -3.100402   -1.078543
     28          1           0        1.618028   -2.437389   -0.684722
     29          1           0        1.076981   -0.085986   -0.007775
     30          1           0        5.247979    0.919470   -0.122233
     31          1           0        5.802632   -1.428654   -0.799553
     32          7           0        2.816631    1.900112    0.362460
     33          8           0        3.753136    2.686406    0.486301
     34          8           0        1.632652    2.175243    0.544491
 ---------------------------------------------------------------------

 SCF Done:  E(RHF) =  -669.535550179     A.U. after   15 cycles
 E2 =    -0.2091237460D+01 EUMP2 =    -0.67162678763980D+03

 The electronic state is 1-A.
 Alpha  occ. eigenvalues --  -20.60760 -20.60754 -15.85810 -11.31150 -11.27717
 Alpha  occ. eigenvalues --  -11.27702 -11.27452 -11.26735 -11.26697 -11.21941
 Alpha  occ. eigenvalues --  -11.21785 -11.21594 -11.21583 -11.21428 -11.21020
 Alpha  occ. eigenvalues --   -1.59834  -1.39388  -1.19320  -1.08720  -1.08597
 Alpha  occ. eigenvalues --   -1.04720  -1.03748  -0.96227  -0.95560  -0.87253
 Alpha  occ. eigenvalues --   -0.86118  -0.82393  -0.79824  -0.78383  -0.77441
 Alpha  occ. eigenvalues --   -0.72031  -0.71155  -0.70444  -0.65228  -0.64971
 Alpha  occ. eigenvalues --   -0.64718  -0.62130  -0.61110  -0.59596  -0.57813
 Alpha  occ. eigenvalues --   -0.55553  -0.55201  -0.53059  -0.52922  -0.52814
 Alpha  occ. eigenvalues --   -0.52645  -0.50167  -0.48787  -0.48785  -0.48136
 Alpha  occ. eigenvalues --   -0.46827  -0.45936  -0.45822  -0.44799  -0.43978
 Alpha  occ. eigenvalues --   -0.37302  -0.36315
 Alpha virt. eigenvalues --    0.05080   0.11327   0.16569   0.20000   0.22779
 Alpha virt. eigenvalues --    0.23879   0.25501   0.26190   0.27406   0.28041
 Alpha virt. eigenvalues --    0.29292   0.29942   0.31413   0.31540   0.32173

 Mulliken charges:
               1
     1  C   -0.298786
     2  C   -0.300385
     3  C   -0.475984
     4  H    0.149145
     5  H    0.152735
     6  H    0.150603
     7  H    0.154859
     8  H    0.156790
     9  H    0.154440
    10  H    0.160745
    11  C   -0.299773
    12  C   -0.299440
    13  C   -0.481182
    14  H    0.147555
    15  H    0.152140
    16  H    0.153409
    17  H    0.157783
    18  H    0.149455
    19  H    0.152346
    20  H    0.164002
    21  C   -0.170992
    22  C   -0.220598
    23  C   -0.178384
    24  C    0.160753
    25  C   -0.170851
    26  C   -0.218617
    27  H    0.225531
    28  H    0.226623
    29  H    0.280797
    30  H    0.275396
    31  H    0.223291
    32  N    0.488057
    33  O   -0.460373
    34  O   -0.461091
 Sum of Mulliken charges =  -0.00000

 Dipole moment (field-independent basis, Debye):
    X=              1.0196    Y=             -4.8606    Z=             -1.3609  Tot=              5.1495
 Quadrupole moment (field-independent basis, Debye-Ang):
   XX=            -83.1127   YY=            -99.7335   ZZ=            -95.3618
   XY=            -12.8884   XZ=             -4.7446   YZ=             -0.3384

 Normal termination of Gaussian 16 at Thu May  6 08:57:33 2021.
