 Gaussian 16, Revision A.03,
 Gaussian 16:  EM64L-G16RevA.03 25-Dec-2016

 -------------
 #p 6-31g* mp2
 -------------

 ------------------------------------------------------
 Input file generated by CHIRIPA (05-May-2021 14:53:17)
 ------------------------------------------------------
 Symbolic Z-matrix:
 Charge =  0 Multiplicity = 1

                         Standard orientation:
 ---------------------------------------------------------------------
 Center     Atomic      Atomic             Coordinates (Angstroms)
 Number     Number       Type             X           Y           Z
 ---------------------------------------------------------------------
      1          6           0       -3.263349    0.652330   -0.158311
      2          6           0       -4.411395    1.654307   -0.284862
      3          6           0       -3.983581    2.962502   -0.950741
      4          1           0       -2.447953    1.109603    0.418728
      5          1           0       -2.858620    0.440882   -1.157750
      6          1           0       -4.814743    1.862746    0.714378
      7          1           0       -5.224231    1.194527   -0.861504
      8          1           0       -3.600433    2.774299   -1.958897
      9          1           0       -3.188618    3.446315   -0.374062
     10          1           0       -4.819620    3.664249   -1.031060
     11          6           0       -3.675405   -0.660454    0.505419
     12          6           0       -2.527359   -1.662432    0.631970
     13          6           0       -2.955174   -2.970626    1.297849
     14          1           0       -4.080134   -0.449006    1.504859
     15          1           0       -4.490802   -1.117727   -0.071620
     16          1           0       -1.714523   -1.202651    1.208612
     17          1           0       -2.124011   -1.870871   -0.367269
     18          1           0       -3.750137   -3.454440    0.721170
     19          1           0       -3.338322   -2.782423    2.306005
     20          1           0       -2.119135   -3.672373    1.378168
     21          6           0        4.064867    1.774138    1.045582
     22          6           0        4.708576    0.698625    0.424750
     23          6           0        3.968216   -0.288429   -0.232623
     24          6           0        2.579511   -0.168037   -0.249780
     25          6           0        1.909059    0.891506    0.359442
     26          6           0        2.669623    1.866983    1.011007
     27          1           0        4.647843    2.536409    1.553989
     28          1           0        5.792009    0.623942    0.450002
     29          1           0        4.440869   -1.131659   -0.721479
     30          1           0        0.827663    0.938775    0.317421
     31          1           0        2.167018    2.701128    1.492290
     32          7           0        1.785031   -1.206859   -0.942638
     33          8           0        0.562741   -1.077846   -0.943526
     34          8           0        2.399651   -2.130429   -1.471690
 ---------------------------------------------------------------------

 SCF Done:  E(RHF) =  -669.535765336     A.U. after   15 cycles
 E2 =    -0.2091693507D+01 EUMP2 =    -0.67162745884326D+03

 The electronic state is 1-A.
 Alpha  occ. eigenvalues --  -20.60872 -20.60857 -15.85901 -11.31244 -11.27812
 Alpha  occ. eigenvalues --  -11.27803 -11.27553 -11.26824 -11.26814 -11.21254
 Alpha  occ. eigenvalues --  -11.20880 -11.20869 -11.20648 -11.20392 -11.20159
 Alpha  occ. eigenvalues --   -1.59934  -1.39489  -1.19415  -1.08818  -1.07784
 Alpha  occ. eigenvalues --   -1.04814  -1.02862  -0.95657  -0.95375  -0.86397
 Alpha  occ. eigenvalues --   -0.86213  -0.82495  -0.78945  -0.77684  -0.77369
 Alpha  occ. eigenvalues --   -0.72122  -0.71248  -0.70523  -0.65071  -0.64821
 Alpha  occ. eigenvalues --   -0.64425  -0.62160  -0.60266  -0.58752  -0.56941
 Alpha  occ. eigenvalues --   -0.55319  -0.54690  -0.53146  -0.52907  -0.52072
 Alpha  occ. eigenvalues --   -0.51785  -0.49353  -0.48900  -0.48887  -0.47253
 Alpha  occ. eigenvalues --   -0.45984  -0.45213  -0.44931  -0.44731  -0.43130
 Alpha  occ. eigenvalues --   -0.37397  -0.36417
 Alpha virt. eigenvalues --    0.04980   0.11231   0.16468   0.20685   0.23108
 Alpha virt. eigenvalues --    0.24882   0.25206   0.27561   0.27689   0.28448
 Alpha virt. eigenvalues --    0.29347   0.31252   0.31851   0.32170   0.32676

 Mulliken charges:
               1
     1  C   -0.296381
     2  C   -0.299186
     3  C   -0.474740
     4  H    0.139685
     5  H    0.157949
     6  H    0.149665
     7  H    0.152781
     8  H    0.156649
     9  H    0.149784
    10  H    0.159087
    11  C   -0.299239
    12  C   -0.299696
    13  C   -0.476247
    14  H    0.144026
    15  H    0.148309
    16  H    0.146407
    17  H    0.175396
    18  H    0.152762
    19  H    0.148674
    20  H    0.162130
    21  C   -0.170540
    22  C   -0.218708
    23  C   -0.170502
    24  C    0.157490
    25  C   -0.172860
    26  C   -0.218987
    27  H    0.225808
    28  H    0.223617
    29  H    0.275677
    30  H    0.278410
    31  H    0.223727
    32  N    0.491806
    33  O   -0.462687
    34  O   -0.460066
 Sum of Mulliken charges =  -0.00000

 Dipole moment (field-independent basis, Debye):
    X=              2.9750    Y=              3.5470    Z=              2.2673  Tot=              5.1548
 Quadrupole moment (field-independent basis, Debye-Ang):
   XX=            -77.4967   YY=            -96.5052   ZZ=            -96.0412
   XY=              6.9344   XZ=              5.4100   YZ=              0.5341

 Normal termination of Gaussian 16 at Thu May  6 04:22:28 2021.
