 Gaussian 16, Revision A.03,
 Gaussian 16:  EM64L-G16RevA.03 25-Dec-2016

 -------------
 #p 6-31g* mp2
 -------------

 ------------------------------------------------------
 Input file generated by CHIRIPA (05-May-2021 14:53:18)
 ------------------------------------------------------
 Symbolic Z-matrix:
 Charge =  0 Multiplicity = 1

                         Standard orientation:
 ---------------------------------------------------------------------
 Center     Atomic      Atomic             Coordinates (Angstroms)
 Number     Number       Type             X           Y           Z
 ---------------------------------------------------------------------
      1          6           0       -3.927378   -0.305291    0.073621
      2          6           0       -3.163171   -1.610618   -0.150196
      3          6           0       -4.065902   -2.842901   -0.084249
      4          1           0       -4.427275   -0.343484    1.051163
      5          1           0       -4.721870   -0.219731   -0.680605
      6          1           0       -2.369472   -1.693026    0.603374
      7          1           0       -2.664878   -1.569235   -1.127236
      8          1           0       -4.849797   -2.787428   -0.846504
      9          1           0       -4.552712   -2.911922    0.893939
     10          1           0       -3.499125   -3.764939   -0.246948
     11          6           0       -3.038504    0.935542    0.010651
     12          6           0       -3.802711    2.240869    0.234468
     13          6           0       -2.899980    3.473152    0.168521
     14          1           0       -2.244012    0.849981    0.764877
     15          1           0       -2.538607    0.973735   -0.966891
     16          1           0       -4.301003    2.199486    1.211508
     17          1           0       -4.596410    2.323277   -0.519102
     18          1           0       -2.413169    3.542173   -0.809667
     19          1           0       -2.116084    3.417679    0.930776
     20          1           0       -3.466757    4.395189    0.331221
     21          6           0        0.746320   -1.816541   -0.052262
     22          6           0        0.571534   -0.468019   -0.380076
     23          6           0        1.658541    0.411133   -0.372659
     24          6           0        2.911957   -0.094376   -0.031049
     25          6           0        3.118166   -1.432649    0.300304
     26          6           0        2.016838   -2.293710    0.286285
     27          1           0       -0.103656   -2.492462   -0.060588
     28          1           0       -0.414017   -0.094660   -0.643393
     29          1           0        1.551521    1.459783   -0.622255
     30          1           0        4.112729   -1.775503    0.558593
     31          1           0        2.155543   -3.340500    0.541307
     32          7           0        4.070303    0.826768   -0.019702
     33          8           0        5.164335    0.356652    0.284801
     34          8           0        3.862249    2.001432   -0.315527
 ---------------------------------------------------------------------

 SCF Done:  E(RHF) =  -669.534604502     A.U. after   15 cycles
 E2 =    -0.2093522363D+01 EUMP2 =    -0.67162812686499D+03

 The electronic state is 1-A.
 Alpha  occ. eigenvalues --  -20.60658 -20.60652 -15.85707 -11.31039 -11.27605
 Alpha  occ. eigenvalues --  -11.27571 -11.27266 -11.26611 -11.26456 -11.22983
 Alpha  occ. eigenvalues --  -11.22578 -11.22492 -11.22418 -11.22197 -11.21726
 Alpha  occ. eigenvalues --   -1.59734  -1.39288  -1.19195  -1.09575  -1.08588
 Alpha  occ. eigenvalues --   -1.04593  -1.04564  -0.96989  -0.95439  -0.88003
 Alpha  occ. eigenvalues --   -0.86000  -0.82280  -0.80685  -0.79483  -0.77300
 Alpha  occ. eigenvalues --   -0.71926  -0.71057  -0.70303  -0.66175  -0.64838
 Alpha  occ. eigenvalues --   -0.64597  -0.61957  -0.61948  -0.60388  -0.58640
 Alpha  occ. eigenvalues --   -0.56244  -0.55072  -0.53673  -0.53458  -0.52929
 Alpha  occ. eigenvalues --   -0.52632  -0.50917  -0.48961  -0.48691  -0.48682
 Alpha  occ. eigenvalues --   -0.47696  -0.46845  -0.46796  -0.44837  -0.44702
 Alpha  occ. eigenvalues --   -0.37164  -0.36188
 Alpha virt. eigenvalues --    0.05179   0.11352   0.16632   0.20367   0.22380
 Alpha virt. eigenvalues --    0.22929   0.24744   0.25880   0.26247   0.28287
 Alpha virt. eigenvalues --    0.29556   0.30456   0.30758   0.31111   0.32008

 Mulliken charges:
               1
     1  C   -0.295960
     2  C   -0.311729
     3  C   -0.475752
     4  H    0.154660
     5  H    0.154074
     6  H    0.150684
     7  H    0.149408
     8  H    0.160201
     9  H    0.159741
    10  H    0.158822
    11  C   -0.310074
    12  C   -0.298679
    13  C   -0.477735
    14  H    0.152881
    15  H    0.145356
    16  H    0.155418
    17  H    0.154673
    18  H    0.154867
    19  H    0.157267
    20  H    0.164877
    21  C   -0.178648
    22  C   -0.227569
    23  C   -0.175482
    24  C    0.158786
    25  C   -0.171533
    26  C   -0.218762
    27  H    0.230683
    28  H    0.240496
    29  H    0.275375
    30  H    0.274831
    31  H    0.222573
    32  N    0.488052
    33  O   -0.461025
    34  O   -0.460777
 Sum of Mulliken charges =  -0.00000

 Dipole moment (field-independent basis, Debye):
    X=             -4.4561    Y=             -3.1540    Z=              0.0161  Tot=              5.4594
 Quadrupole moment (field-independent basis, Debye-Ang):
   XX=           -116.2656   YY=            -92.0983   ZZ=            -94.1736
   XY=            -12.3348   XZ=              0.9640   YZ=             -1.0989

 Normal termination of Gaussian 16 at Thu May  6 06:01:20 2021.
