 Gaussian 16, Revision A.03,
 Gaussian 16:  EM64L-G16RevA.03 25-Dec-2016

 -------------
 #p 6-31g* mp2
 -------------

 ------------------------------------------------------
 Input file generated by CHIRIPA (05-May-2021 14:55:21)
 ------------------------------------------------------
 Symbolic Z-matrix:
 Charge =  0 Multiplicity = 1

                         Standard orientation:
 ---------------------------------------------------------------------
 Center     Atomic      Atomic             Coordinates (Angstroms)
 Number     Number       Type             X           Y           Z
 ---------------------------------------------------------------------
      1          6           0        3.815669    0.972166    0.613550
      2          6           0        3.480512   -0.080357    1.471680
      3          6           0        2.511600   -1.017580    1.101044
      4          6           0        1.894988   -0.871342   -0.140606
      5          6           0        2.207132    0.166335   -1.017579
      6          6           0        3.179031    1.091942   -0.626155
      7          1           0        4.569503    1.695711    0.909543
      8          1           0        3.973298   -0.175864    2.435052
      9          1           0        2.232915   -1.842094    1.745969
     10          1           0        1.698664    0.235324   -1.971580
     11          1           0        3.437304    1.908330   -1.294624
     12          7           0        0.867663   -1.857389   -0.543985
     13          8           0        0.338977   -1.706419   -1.643229
     14          8           0        0.610584   -2.762552    0.246728
     15          6           0       -3.088207    0.341481   -0.158997
     16          6           0       -4.209000   -0.029766    0.812591
     17          6           0       -5.092506   -1.163243    0.290634
     18          1           0       -3.528314    0.631832   -1.122815
     19          1           0       -2.470762   -0.546676   -0.352215
     20          1           0       -4.823326    0.859166    1.004998
     21          1           0       -3.766185   -0.319083    1.774270
     22          1           0       -4.498033   -2.065853    0.115998
     23          1           0       -5.561181   -0.880910   -0.657646
     24          1           0       -5.887094   -1.412478    1.000826
     25          6           0       -2.196409    1.473122    0.348754
     26          6           0       -1.075616    1.844369   -0.622835
     27          6           0       -0.192110    2.977847   -0.100876
     28          1           0       -2.813854    2.361279    0.541973
     29          1           0       -1.756303    1.182772    1.312574
     30          1           0       -1.518432    2.133688   -1.584513
     31          1           0       -0.461290    0.955438   -0.815240
     32          1           0        0.276565    2.695513    0.847402
     33          1           0       -0.786583    3.880457    0.073759
     34          1           0        0.602478    3.227081   -0.811068
 ---------------------------------------------------------------------

 SCF Done:  E(RHF) =  -669.534954436     A.U. after   15 cycles
 E2 =    -0.2095010204D+01 EUMP2 =    -0.67162996463970D+03

 The electronic state is 1-A.
 Alpha  occ. eigenvalues --  -20.61031 -20.60993 -15.86019 -11.31291 -11.27873
 Alpha  occ. eigenvalues --  -11.27854 -11.27596 -11.26858 -11.26846 -11.21285
 Alpha  occ. eigenvalues --  -11.21079 -11.20989 -11.20972 -11.20638 -11.20365
 Alpha  occ. eigenvalues --   -1.60066  -1.39623  -1.19482  -1.08887  -1.07943
 Alpha  occ. eigenvalues --   -1.04875  -1.03105  -0.95739  -0.95557  -0.86590
 Alpha  occ. eigenvalues --   -0.86269  -0.82567  -0.79199  -0.77761  -0.77574
 Alpha  occ. eigenvalues --   -0.72243  -0.71397  -0.70591  -0.65136  -0.64883
 Alpha  occ. eigenvalues --   -0.64563  -0.62238  -0.60526  -0.58981  -0.57176
 Alpha  occ. eigenvalues --   -0.55370  -0.54906  -0.53103  -0.52963  -0.52280
 Alpha  occ. eigenvalues --   -0.51982  -0.49513  -0.49016  -0.48997  -0.47500
 Alpha  occ. eigenvalues --   -0.46293  -0.45440  -0.45239  -0.44640  -0.43340
 Alpha  occ. eigenvalues --   -0.37416  -0.36400
 Alpha virt. eigenvalues --    0.04870   0.11126   0.16315   0.21010   0.23292
 Alpha virt. eigenvalues --    0.24604   0.26638   0.27057   0.27693   0.28276
 Alpha virt. eigenvalues --    0.28924   0.30453   0.31734   0.32009   0.32716

 Mulliken charges:
               1
     1  C   -0.170900
     2  C   -0.218992
     3  C   -0.171060
     4  C    0.159727
     5  C   -0.172370
     6  C   -0.215792
     7  H    0.226361
     8  H    0.223851
     9  H    0.275687
    10  H    0.277010
    11  H    0.223993
    12  N    0.488580
    13  O   -0.458631
    14  O   -0.458789
    15  C   -0.303122
    16  C   -0.298945
    17  C   -0.476554
    18  H    0.148655
    19  H    0.164825
    20  H    0.148063
    21  H    0.150954
    22  H    0.162283
    23  H    0.153841
    24  H    0.157274
    25  C   -0.298078
    26  C   -0.307007
    27  C   -0.472542
    28  H    0.147117
    29  H    0.146956
    30  H    0.151796
    31  H    0.157287
    32  H    0.154804
    33  H    0.154476
    34  H    0.149241
 Sum of Mulliken charges =  -0.00000

 Dipole moment (field-independent basis, Debye):
    X=              3.7376    Y=              3.2678    Z=              1.3772  Tot=              5.1521
 Quadrupole moment (field-independent basis, Debye-Ang):
   XX=            -81.8982   YY=           -100.7866   ZZ=            -91.4868
   XY=              2.5522   XZ=              3.1996   YZ=             -4.6115

 Normal termination of Gaussian 16 at Thu May  6 09:19:14 2021.
