 Gaussian 16, Revision A.03,
 Gaussian 16:  EM64L-G16RevA.03 25-Dec-2016

 -------------
 #p 6-31g* mp2
 -------------

 ------------------------------------------------------
 Input file generated by CHIRIPA (05-May-2021 14:57:21)
 ------------------------------------------------------
 Symbolic Z-matrix:
 Charge =  0 Multiplicity = 1

                         Standard orientation:
 ---------------------------------------------------------------------
 Center     Atomic      Atomic             Coordinates (Angstroms)
 Number     Number       Type             X           Y           Z
 ---------------------------------------------------------------------
      1          6           0       -1.980832   -0.086220    0.745020
      2          6           0       -2.788602    1.032219    0.975504
      3          6           0       -4.133432    1.027635    0.593460
      4          6           0       -4.639947   -0.117382   -0.019457
      5          6           0       -3.860630   -1.247331   -0.262707
      6          6           0       -2.518476   -1.220426    0.127738
      7          1           0       -0.937175   -0.073990    1.045064
      8          1           0       -2.373756    1.914443    1.454700
      9          1           0       -4.781267    1.879710    0.759882
     10          1           0       -4.302581   -2.112177   -0.742435
     11          1           0       -1.893509   -2.090465   -0.052518
     12          7           0       -6.062242   -0.134050   -0.428357
     13          8           0       -6.484495   -1.155138   -0.966613
     14          8           0       -6.727853    0.874289   -0.202854
     15          6           0        2.108853    1.142950    0.135752
     16          6           0        2.363445   -0.108055    0.707321
     17          6           0        3.632211   -0.687398    0.611712
     18          6           0        4.627570    0.015222   -0.065693
     19          6           0        4.404988    1.263161   -0.645686
     20          6           0        3.128639    1.823366   -0.537741
     21          1           0        1.120300    1.585564    0.214816
     22          1           0        1.573378   -0.638760    1.230954
     23          1           0        3.856728   -1.654532    1.044912
     24          1           0        5.212719    1.768118   -1.161446
     25          1           0        2.933793    2.795054   -0.982602
     26          7           0        5.974770   -0.587972   -0.173441
     27          8           0        6.834668    0.051362   -0.775490
     28          8           0        6.145298   -1.688670    0.346196
 ---------------------------------------------------------------------

 SCF Done:  E(RHF) =  -868.336006328     A.U. after   16 cycles
 E2 =    -0.2600188932D+01 EUMP2 =    -0.87093619526036D+03

 The electronic state is 1-A.
 Alpha  occ. eigenvalues --  -20.61380 -20.61372 -20.61365 -20.61359 -15.86440
 Alpha  occ. eigenvalues --  -15.86423 -11.31967 -11.31967 -11.28607 -11.28546
 Alpha  occ. eigenvalues --  -11.28530 -11.28518 -11.28483 -11.28438 -11.27765
 Alpha  occ. eigenvalues --  -11.27684 -11.27630 -11.27585  -1.60450  -1.60436
 Alpha  occ. eigenvalues --   -1.39999  -1.39984  -1.20181  -1.20165  -1.09590
 Alpha  occ. eigenvalues --   -1.09541  -1.05612  -1.05583  -0.96402  -0.96327
 Alpha  occ. eigenvalues --   -0.87029  -0.86993  -0.83196  -0.83175  -0.78198
 Alpha  occ. eigenvalues --   -0.78161  -0.72659  -0.72640  -0.71776  -0.71759
 Alpha  occ. eigenvalues --   -0.71579  -0.71149  -0.65853  -0.65833  -0.65714
 Alpha  occ. eigenvalues --   -0.65542  -0.62964  -0.62914  -0.56295  -0.56095
 Alpha  occ. eigenvalues --   -0.53932  -0.53900  -0.53716  -0.53688  -0.49432
 Alpha  occ. eigenvalues --   -0.49412  -0.49397  -0.49382  -0.45368  -0.45349
 Alpha  occ. eigenvalues --   -0.38247  -0.38151  -0.37204  -0.37168
 Alpha virt. eigenvalues --    0.04306   0.04393   0.10414   0.10458   0.15682
 Alpha virt. eigenvalues --    0.15830   0.17259   0.22174   0.24522   0.25452
 Alpha virt. eigenvalues --    0.27433   0.29215   0.29646   0.30664   0.32479

 Mulliken charges:
               1
     1  C   -0.175337
     2  C   -0.220507
     3  C   -0.169613
     4  C    0.159603
     5  C   -0.169756
     6  C   -0.218730
     7  H    0.219596
     8  H    0.222341
     9  H    0.277881
    10  H    0.278649
    11  H    0.225007
    12  N    0.487809
    13  O   -0.457936
    14  O   -0.458572
    15  C   -0.170600
    16  C   -0.221717
    17  C   -0.169288
    18  C    0.159259
    19  C   -0.169460
    20  C   -0.217965
    21  H    0.219975
    22  H    0.215805
    23  H    0.277512
    24  H    0.278575
    25  H    0.226432
    26  N    0.487888
    27  O   -0.457902
    28  O   -0.458949
 Sum of Mulliken charges =  -0.00000

 Dipole moment (field-independent basis, Debye):
    X=              0.2584    Y=              2.1754    Z=              1.6847  Tot=              2.7636
 Quadrupole moment (field-independent basis, Debye-Ang):
   XX=           -193.4475   YY=            -97.3188   ZZ=           -104.4396
   XY=             10.0388   XZ=             -5.9812   YZ=             -0.8426

 Normal termination of Gaussian 16 at Wed May  5 20:53:42 2021.
