 Gaussian 16, Revision A.03,
 Gaussian 16:  EM64L-G16RevA.03 25-Dec-2016

 -------------
 #p 6-31g* mp2
 -------------

 ------------------------------------------------------
 Input file generated by CHIRIPA (05-May-2021 14:53:17)
 ------------------------------------------------------
 Symbolic Z-matrix:
 Charge =  0 Multiplicity = 1

                         Standard orientation:
 ---------------------------------------------------------------------
 Center     Atomic      Atomic             Coordinates (Angstroms)
 Number     Number       Type             X           Y           Z
 ---------------------------------------------------------------------
      1          6           0       -2.328633   -0.679760   -0.249258
      2          6           0       -2.001268   -1.995348   -0.956397
      3          6           0       -0.506966   -2.318802   -0.941101
      4          1           0       -1.770545    0.135841   -0.729131
      5          1           0       -1.974437   -0.731926    0.789596
      6          1           0       -2.357214   -1.941234   -1.993214
      7          1           0       -2.560348   -2.807883   -0.474907
      8          1           0       -0.140864   -2.399863    0.087489
      9          1           0        0.063425   -1.528290   -1.439444
     10          1           0       -0.295407   -3.263338   -1.451938
     11          6           0       -3.818620   -0.342683   -0.256200
     12          6           0       -4.145985    0.972905    0.450938
     13          6           0       -5.640287    1.296359    0.435643
     14          1           0       -4.172816   -0.290517   -1.295055
     15          1           0       -4.376708   -1.158284    0.223672
     16          1           0       -3.586905    1.785440   -0.030551
     17          1           0       -3.790040    0.918792    1.487756
     18          1           0       -6.210678    0.505847    0.933986
     19          1           0       -6.006389    1.377420   -0.592948
     20          1           0       -5.851846    2.240896    0.946479
     21          6           0        2.163346    2.766355   -0.643270
     22          6           0        2.878087    1.825932   -1.392450
     23          6           0        3.016345    0.511621   -0.936358
     24          6           0        2.424272    0.170562    0.278722
     25          6           0        1.706027    1.084716    1.047967
     26          6           0        1.580625    2.393402    0.572404
     27          1           0        2.060938    3.785158   -1.005136
     28          1           0        3.331699    2.112748   -2.336917
     29          1           0        3.564263   -0.236554   -1.496214
     30          1           0        1.265045    0.769056    1.985683
     31          1           0        1.024981    3.121638    1.156338
     32          7           0        2.563835   -1.217863    0.771872
     33          8           0        2.032762   -1.493222    1.845546
     34          8           0        3.201656   -2.004461    0.075392
 ---------------------------------------------------------------------

 SCF Done:  E(RHF) =  -669.536248775     A.U. after   15 cycles
 E2 =    -0.2092631631D+01 EUMP2 =    -0.67162888040574D+03

 The electronic state is 1-A.
 Alpha  occ. eigenvalues --  -20.60844 -20.60814 -15.85846 -11.31206 -11.27774
 Alpha  occ. eigenvalues --  -11.27769 -11.27518 -11.26795 -11.26784 -11.21688
 Alpha  occ. eigenvalues --  -11.21324 -11.21260 -11.21187 -11.21155 -11.20463
 Alpha  occ. eigenvalues --   -1.59882  -1.39440  -1.19379  -1.08776  -1.08302
 Alpha  occ. eigenvalues --   -1.04780  -1.03357  -0.95791  -0.95614  -0.86810
 Alpha  occ. eigenvalues --   -0.86178  -0.82451  -0.79452  -0.78119  -0.77497
 Alpha  occ. eigenvalues --   -0.72083  -0.71191  -0.70488  -0.65036  -0.64932
 Alpha  occ. eigenvalues --   -0.64784  -0.62127  -0.60751  -0.59181  -0.57403
 Alpha  occ. eigenvalues --   -0.55286  -0.55078  -0.53111  -0.52873  -0.52460
 Alpha  occ. eigenvalues --   -0.52218  -0.49740  -0.48844  -0.48841  -0.47747
 Alpha  occ. eigenvalues --   -0.46501  -0.45649  -0.45587  -0.44782  -0.43603
 Alpha  occ. eigenvalues --   -0.37341  -0.36377
 Alpha virt. eigenvalues --    0.05013   0.11230   0.16489   0.21355   0.22971
 Alpha virt. eigenvalues --    0.24453   0.26581   0.27148   0.27542   0.28106
 Alpha virt. eigenvalues --    0.28455   0.30923   0.31414   0.31917   0.32321

 Mulliken charges:
               1
     1  C   -0.299520
     2  C   -0.299083
     3  C   -0.485894
     4  H    0.146631
     5  H    0.150838
     6  H    0.149136
     7  H    0.153209
     8  H    0.170428
     9  H    0.147928
    10  H    0.163878
    11  C   -0.297848
    12  C   -0.299074
    13  C   -0.475444
    14  H    0.148888
    15  H    0.151114
    16  H    0.148211
    17  H    0.150920
    18  H    0.156528
    19  H    0.155147
    20  H    0.158714
    21  C   -0.171052
    22  C   -0.218710
    23  C   -0.172145
    24  C    0.160381
    25  C   -0.170064
    26  C   -0.218605
    27  H    0.225625
    28  H    0.223506
    29  H    0.275966
    30  H    0.275532
    31  H    0.223830
    32  N    0.490163
    33  O   -0.461038
    34  O   -0.458098
 Sum of Mulliken charges =  -0.00000

 Dipole moment (field-independent basis, Debye):
    X=             -0.3845    Y=              4.8039    Z=             -1.6847  Tot=              5.1052
 Quadrupole moment (field-independent basis, Debye-Ang):
   XX=            -97.5172   YY=            -93.0393   ZZ=            -92.0529
   XY=             11.6877   XZ=             -7.0578   YZ=              1.5723

 Normal termination of Gaussian 16 at Wed May  5 20:24:31 2021.
