 Gaussian 16, Revision A.03,
 Gaussian 16:  EM64L-G16RevA.03 25-Dec-2016

 -------------
 #p 6-31g* mp2
 -------------

 ------------------------------------------------------
 Input file generated by CHIRIPA (05-May-2021 14:53:16)
 ------------------------------------------------------
 Symbolic Z-matrix:
 Charge =  0 Multiplicity = 1

                         Standard orientation:
 ---------------------------------------------------------------------
 Center     Atomic      Atomic             Coordinates (Angstroms)
 Number     Number       Type             X           Y           Z
 ---------------------------------------------------------------------
      1          6           0        3.071925    0.936032    0.217882
      2          6           0        3.555924    2.155841   -0.566845
      3          6           0        2.621088    3.357656   -0.427145
      4          1           0        2.065626    0.661679   -0.127138
      5          1           0        2.975915    1.205692    1.278759
      6          1           0        3.652318    1.883573   -1.625709
      7          1           0        4.561265    2.427206   -0.220050
      8          1           0        2.532825    3.657133    0.622200
      9          1           0        1.618713    3.110411   -0.791446
     10          1           0        2.986077    4.218452   -0.996068
     11          6           0        3.996005   -0.273499    0.088120
     12          6           0        3.512006   -1.493308    0.872847
     13          6           0        4.446842   -2.695123    0.733147
     14          1           0        4.092015   -0.543159   -0.972757
     15          1           0        5.002304    0.000854    0.433140
     16          1           0        2.506665   -1.764673    0.526052
     17          1           0        3.415613   -1.221040    1.931711
     18          1           0        5.449217   -2.447878    1.097448
     19          1           0        4.535105   -2.994599   -0.316198
     20          1           0        4.081853   -3.555919    1.302070
     21          6           0       -4.662668    1.089504    0.845511
     22          6           0       -3.400087    1.671260    0.690683
     23          6           0       -2.339069    0.933654    0.157086
     24          6           0       -2.577056   -0.389151   -0.212829
     25          6           0       -3.823553   -0.996944   -0.070976
     26          6           0       -4.870006   -0.240396    0.464858
     27          1           0       -5.481236    1.669851    1.260891
     28          1           0       -3.236162    2.703874    0.985439
     29          1           0       -1.351525    1.359169    0.026277
     30          1           0       -3.956350   -2.028456   -0.373907
     31          1           0       -5.849484   -0.694801    0.583952
     32          7           0       -1.461512   -1.180047   -0.778909
     33          8           0       -1.697024   -2.343626   -1.097120
     34          8           0       -0.372761   -0.621399   -0.893672
 ---------------------------------------------------------------------

 SCF Done:  E(RHF) =  -669.536553707     A.U. after   15 cycles
 E2 =    -0.2091383294D+01 EUMP2 =    -0.67162793700112D+03

 The electronic state is 1-A.
 Alpha  occ. eigenvalues --  -20.61013 -20.61006 -15.86045 -11.31316 -11.27876
 Alpha  occ. eigenvalues --  -11.27871 -11.27607 -11.26875 -11.26863 -11.20952
 Alpha  occ. eigenvalues --  -11.20746 -11.20505 -11.20414 -11.20346 -11.20159
 Alpha  occ. eigenvalues --   -1.60069  -1.39627  -1.19482  -1.08895  -1.07524
 Alpha  occ. eigenvalues --   -1.04871  -1.02736  -0.95745  -0.95208  -0.86274
 Alpha  occ. eigenvalues --   -0.86238  -0.82583  -0.78799  -0.77660  -0.77289
 Alpha  occ. eigenvalues --   -0.72273  -0.71377  -0.70592  -0.65144  -0.64874
 Alpha  occ. eigenvalues --   -0.64121  -0.62219  -0.60126  -0.58597  -0.56813
 Alpha  occ. eigenvalues --   -0.55379  -0.54494  -0.53206  -0.52963  -0.51947
 Alpha  occ. eigenvalues --   -0.51655  -0.49188  -0.49020  -0.49004  -0.47127
 Alpha  occ. eigenvalues --   -0.45790  -0.45160  -0.44869  -0.44587  -0.42949
 Alpha  occ. eigenvalues --   -0.37459  -0.36470
 Alpha virt. eigenvalues --    0.04873   0.11185   0.16365   0.20757   0.23376
 Alpha virt. eigenvalues --    0.24604   0.26277   0.27470   0.27887   0.28758
 Alpha virt. eigenvalues --    0.29206   0.30847   0.31568   0.32324   0.32703

 Mulliken charges:
               1
     1  C   -0.311373
     2  C   -0.297981
     3  C   -0.475373
     4  H    0.175256
     5  H    0.141935
     6  H    0.153763
     7  H    0.149045
     8  H    0.151327
     9  H    0.151591
    10  H    0.158454
    11  C   -0.295852
    12  C   -0.304586
    13  C   -0.475081
    14  H    0.151612
    15  H    0.143991
    16  H    0.168830
    17  H    0.145634
    18  H    0.150679
    19  H    0.156350
    20  H    0.158261
    21  C   -0.170432
    22  C   -0.218843
    23  C   -0.170911
    24  C    0.157554
    25  C   -0.170703
    26  C   -0.218632
    27  H    0.226144
    28  H    0.224425
    29  H    0.276738
    30  H    0.275808
    31  H    0.223887
    32  N    0.495487
    33  O   -0.458511
    34  O   -0.468489
 Sum of Mulliken charges =  -0.00000

 Dipole moment (field-independent basis, Debye):
    X=             -4.2197    Y=              2.6511    Z=              1.8871  Tot=              5.3287
 Quadrupole moment (field-independent basis, Debye-Ang):
   XX=            -73.9261   YY=            -95.3625   ZZ=            -95.9317
   XY=             -2.5136   XZ=             -4.1792   YZ=             -0.5179

 Normal termination of Gaussian 16 at Wed May  5 21:59:33 2021.
