 Gaussian 16, Revision A.03,
 Gaussian 16:  EM64L-G16RevA.03 25-Dec-2016

 -------------
 #p 6-31g* mp2
 -------------

 ------------------------------------------------------
 Input file generated by CHIRIPA (05-May-2021 14:53:12)
 ------------------------------------------------------
 Symbolic Z-matrix:
 Charge =  0 Multiplicity = 1

                         Standard orientation:
 ---------------------------------------------------------------------
 Center     Atomic      Atomic             Coordinates (Angstroms)
 Number     Number       Type             X           Y           Z
 ---------------------------------------------------------------------
      1          6           0       -2.931948   -0.186898    0.027310
      2          6           0       -3.778824   -0.792497   -1.092527
      3          6           0       -4.109873   -2.265803   -0.852588
      4          1           0       -2.001101   -0.761931    0.126332
      5          1           0       -3.467655   -0.292719    0.980838
      6          1           0       -3.242290   -0.684326   -2.043866
      7          1           0       -4.707678   -0.215839   -1.189022
      8          1           0       -4.666735   -2.388263    0.082029
      9          1           0       -3.193021   -2.859412   -0.777673
     10          1           0       -4.715854   -2.678608   -1.665140
     11          6           0       -2.592799    1.285461   -0.198223
     12          6           0       -1.745923    1.891061    0.921614
     13          6           0       -1.414875    3.364367    0.681675
     14          1           0       -2.057092    1.391282   -1.151751
     15          1           0       -3.523647    1.860494   -0.297245
     16          1           0       -0.817070    1.314402    1.018109
     17          1           0       -2.282458    1.782889    1.872953
     18          1           0       -2.331727    3.957976    0.606759
     19          1           0       -0.858013    3.486827   -0.252942
     20          1           0       -0.808893    3.777171    1.494227
     21          6           0        1.259399   -2.278176    1.529386
     22          6           0        1.829220   -2.581521    0.288497
     23          6           0        2.330355   -1.565080   -0.530196
     24          6           0        2.244988   -0.250367   -0.074638
     25          6           0        1.683034    0.083786    1.156556
     26          6           0        1.188250   -0.948834    1.958699
     27          1           0        0.872573   -3.074056    2.158938
     28          1           0        1.885815   -3.613004   -0.047486
     29          1           0        2.776583   -1.771752   -1.495382
     30          1           0        1.640729    1.121516    1.464364
     31          1           0        0.746254   -0.710300    2.921915
     32          7           0        2.772156    0.834258   -0.932591
     33          8           0        2.685033    1.984504   -0.508351
     34          8           0        3.262488    0.513603   -2.013050
 ---------------------------------------------------------------------

 SCF Done:  E(RHF) =  -669.535147377     A.U. after   15 cycles
 E2 =    -0.2093319719D+01 EUMP2 =    -0.67162846709619D+03

 The electronic state is 1-A.
 Alpha  occ. eigenvalues --  -20.60859 -20.60853 -15.85911 -11.31290 -11.27861
 Alpha  occ. eigenvalues --  -11.27850 -11.27608 -11.26881 -11.26872 -11.21735
 Alpha  occ. eigenvalues --  -11.21622 -11.21503 -11.21390 -11.21311 -11.20893
 Alpha  occ. eigenvalues --   -1.59933  -1.39485  -1.19479  -1.08860  -1.08509
 Alpha  occ. eigenvalues --   -1.04887  -1.03601  -0.96035  -0.95693  -0.87046
 Alpha  occ. eigenvalues --   -0.86270  -0.82525  -0.79683  -0.78349  -0.77558
 Alpha  occ. eigenvalues --   -0.72127  -0.71260  -0.70579  -0.65183  -0.65110
 Alpha  occ. eigenvalues --   -0.64852  -0.62253  -0.60977  -0.59418  -0.57660
 Alpha  occ. eigenvalues --   -0.55385  -0.55289  -0.53254  -0.52957  -0.52715
 Alpha  occ. eigenvalues --   -0.52462  -0.49961  -0.48888  -0.48881  -0.47996
 Alpha  occ. eigenvalues --   -0.46715  -0.45871  -0.45784  -0.44880  -0.43849
 Alpha  occ. eigenvalues --   -0.37447  -0.36390
 Alpha virt. eigenvalues --    0.04926   0.11118   0.16380   0.21004   0.22852
 Alpha virt. eigenvalues --    0.24030   0.26400   0.26826   0.27421   0.27898
 Alpha virt. eigenvalues --    0.28788   0.30939   0.31437   0.31835   0.31906

 Mulliken charges:
               1
     1  C   -0.300483
     2  C   -0.299662
     3  C   -0.475305
     4  H    0.150375
     5  H    0.146380
     6  H    0.153835
     7  H    0.152813
     8  H    0.153995
     9  H    0.152155
    10  H    0.161139
    11  C   -0.297624
    12  C   -0.307047
    13  C   -0.476338
    14  H    0.153178
    15  H    0.150184
    16  H    0.151513
    17  H    0.147181
    18  H    0.154488
    19  H    0.165873
    20  H    0.157731
    21  C   -0.171232
    22  C   -0.218623
    23  C   -0.171429
    24  C    0.157830
    25  C   -0.172724
    26  C   -0.216248
    27  H    0.226622
    28  H    0.224043
    29  H    0.275976
    30  H    0.278065
    31  H    0.225521
    32  N    0.488138
    33  O   -0.460238
    34  O   -0.460083
 Sum of Mulliken charges =  -0.00000

 Dipole moment (field-independent basis, Debye):
    X=             -1.7567    Y=             -3.8035    Z=              2.9550  Tot=              5.1269
 Quadrupole moment (field-independent basis, Debye-Ang):
   XX=           -103.1121   YY=            -91.7868   ZZ=            -92.9494
   XY=             -9.8619   XZ=              5.7547   YZ=              2.0804

 Normal termination of Gaussian 16 at Wed May  5 20:09:18 2021.
