 Gaussian 16, Revision A.03,
 Gaussian 16:  EM64L-G16RevA.03 25-Dec-2016

 -------------
 #p 6-31g* mp2
 -------------

 ------------------------------------------------------
 Input file generated by CHIRIPA (05-May-2021 14:51:09)
 ------------------------------------------------------
 Symbolic Z-matrix:
 Charge =  0 Multiplicity = 1

                         Standard orientation:
 ---------------------------------------------------------------------
 Center     Atomic      Atomic             Coordinates (Angstroms)
 Number     Number       Type             X           Y           Z
 ---------------------------------------------------------------------
      1          6           0        3.167387   -0.555257   -0.306658
      2          6           0        3.949642    0.284474    0.703745
      3          6           0        5.112557    1.045091    0.065871
      4          1           0        3.851085   -1.266275   -0.790348
      5          1           0        2.785715    0.101061   -1.100993
      6          1           0        4.328554   -0.373028    1.496672
      7          1           0        3.263965    0.993445    1.185224
      8          1           0        4.748366    1.723922   -0.712045
      9          1           0        5.819005    0.349685   -0.398827
     10          1           0        5.658067    1.638781    0.806014
     11          6           0        2.001661   -1.321549    0.315923
     12          6           0        1.219407   -2.161280   -0.694480
     13          6           0        0.056491   -2.921897   -0.056606
     14          1           0        2.383334   -1.977867    1.110258
     15          1           0        1.317964   -0.610531    0.799613
     16          1           0        1.905084   -2.870251   -1.175959
     17          1           0        0.840494   -1.503778   -1.487407
     18          1           0       -0.649956   -2.226491    0.408092
     19          1           0        0.420683   -3.600728    0.721310
     20          1           0       -0.489019   -3.515587   -0.796749
     21          6           0       -2.843509    0.268775   -0.265319
     22          6           0       -3.927236   -0.348200    0.619476
     23          6           0       -4.435299   -1.687540    0.084841
     24          1           0       -3.241180    0.404609   -1.280382
     25          1           0       -2.004254   -0.435403   -0.350050
     26          1           0       -4.763603    0.357507    0.703640
     27          1           0       -3.527000   -0.482403    1.632598
     28          1           0       -3.616383   -2.411015    0.017314
     29          1           0       -4.860012   -1.566332   -0.916922
     30          1           0       -5.209358   -2.110782    0.732575
     31          6           0       -2.325540    1.608031    0.256054
     32          6           0       -1.241812    2.225006   -0.628741
     33          6           0       -0.733749    3.564346   -0.094106
     34          1           0       -3.164795    2.312209    0.340785
     35          1           0       -1.927869    1.472197    1.271117
     36          1           0       -1.642049    2.359209   -1.641863
     37          1           0       -0.405446    1.519298   -0.712905
     38          1           0       -0.309037    3.443138    0.907657
     39          1           0       -1.552666    4.287821   -0.026579
     40          1           0        0.040309    3.987587   -0.741840
 ---------------------------------------------------------------------

 SCF Done:  E(RHF) =  -470.733287298     A.U. after   11 cycles
 E2 =    -0.1583759644D+01 EUMP2 =    -0.47231704694149D+03

 The electronic state is 1-A.
 Alpha  occ. eigenvalues --  -11.21672 -11.21668 -11.21633 -11.21603 -11.21466
 Alpha  occ. eigenvalues --  -11.21430 -11.21401 -11.21355 -11.21144 -11.21127
 Alpha  occ. eigenvalues --  -11.21089 -11.21035  -1.08502  -1.08446  -1.03591
 Alpha  occ. eigenvalues --   -1.03548  -0.96040  -0.95994  -0.87060  -0.87008
 Alpha  occ. eigenvalues --   -0.79665  -0.79599  -0.78312  -0.78260  -0.65334
 Alpha  occ. eigenvalues --   -0.64909  -0.61075  -0.60873  -0.59403  -0.59367
 Alpha  occ. eigenvalues --   -0.57648  -0.57604  -0.55415  -0.55208  -0.52729
 Alpha  occ. eigenvalues --   -0.52692  -0.52478  -0.52401  -0.50085  -0.49860
 Alpha  occ. eigenvalues --   -0.47992  -0.47912  -0.46772  -0.46588  -0.45980
 Alpha  occ. eigenvalues --   -0.45785  -0.45768  -0.45493  -0.43837  -0.43807
 Alpha virt. eigenvalues --    0.18864   0.22258   0.23948   0.24464   0.26023
 Alpha virt. eigenvalues --    0.26668   0.27236   0.27816   0.27958   0.29733
 Alpha virt. eigenvalues --    0.30957   0.31602   0.31679   0.31960   0.32283

 Mulliken charges:
               1
     1  C   -0.298865
     2  C   -0.299654
     3  C   -0.475741
     4  H    0.149940
     5  H    0.150041
     6  H    0.151949
     7  H    0.151999
     8  H    0.155390
     9  H    0.155197
    10  H    0.160409
    11  C   -0.299475
    12  C   -0.301426
    13  C   -0.480994
    14  H    0.149925
    15  H    0.149760
    16  H    0.152682
    17  H    0.153290
    18  H    0.159104
    19  H    0.155840
    20  H    0.161048
    21  C   -0.306400
    22  C   -0.299293
    23  C   -0.477905
    24  H    0.149840
    25  H    0.157075
    26  H    0.152029
    27  H    0.151585
    28  H    0.157914
    29  H    0.154942
    30  H    0.160171
    31  C   -0.297854
    32  C   -0.301992
    33  C   -0.475646
    34  H    0.149955
    35  H    0.149193
    36  H    0.152351
    37  H    0.152716
    38  H    0.155028
    39  H    0.155651
    40  H    0.160221
 Sum of Mulliken charges =  -0.00000

 Dipole moment (field-independent basis, Debye):
    X=              0.0171    Y=             -0.0154    Z=             -0.0104  Tot=              0.0253
 Quadrupole moment (field-independent basis, Debye-Ang):
   XX=            -84.8293   YY=            -85.1701   ZZ=            -84.6275
   XY=             -1.8700   XZ=              0.6688   YZ=             -0.4669

 Normal termination of Gaussian 16 at Thu May  6 03:43:13 2021.
