 Gaussian 16, Revision A.03,
 Gaussian 16:  EM64L-G16RevA.03 25-Dec-2016

 -------------
 #p 6-31g* mp2
 -------------

 ------------------------------------------------------
 Input file generated by CHIRIPA (05-May-2021 14:53:13)
 ------------------------------------------------------
 Symbolic Z-matrix:
 Charge =  0 Multiplicity = 1

                         Standard orientation:
 ---------------------------------------------------------------------
 Center     Atomic      Atomic             Coordinates (Angstroms)
 Number     Number       Type             X           Y           Z
 ---------------------------------------------------------------------
      1          6           0       -4.127042    0.269631    0.295853
      2          6           0       -5.642208    0.209562    0.492449
      3          6           0       -6.187614    1.416968    1.255664
      4          1           0       -3.638635    0.335739    1.277705
      5          1           0       -3.870579    1.191942   -0.243558
      6          1           0       -5.895867   -0.713038    1.030113
      7          1           0       -6.127056    0.143396   -0.489977
      8          1           0       -5.963379    2.344895    0.719688
      9          1           0       -5.730876    1.483595    2.248414
     10          1           0       -7.272568    1.353548    1.384942
     11          6           0       -3.566888   -0.930492   -0.465502
     12          6           0       -2.051722   -0.870423   -0.662098
     13          6           0       -1.506316   -2.077829   -1.425313
     14          1           0       -3.823351   -1.852802    0.073909
     15          1           0       -4.055295   -0.996600   -1.447354
     16          1           0       -1.566874   -0.804257    0.320328
     17          1           0       -1.798063    0.052177   -1.199762
     18          1           0       -1.963054   -2.144456   -2.418063
     19          1           0       -1.730551   -3.005756   -0.889337
     20          1           0       -0.421362   -2.014409   -1.554591
     21          6           0        3.575643   -2.008301    1.017058
     22          6           0        2.522917   -1.876274    0.105543
     23          6           0        2.198113   -0.625392   -0.427693
     24          6           0        2.950316    0.477261   -0.025650
     25          6           0        4.004900    0.378004    0.880601
     26          6           0        4.311977   -0.882725    1.401001
     27          1           0        3.821073   -2.983841    1.426303
     28          1           0        1.949353   -2.748674   -0.194436
     29          1           0        1.388182   -0.494695   -1.135045
     30          1           0        4.558554    1.265965    1.160621
     31          1           0        5.130066   -0.982272    2.108719
     32          7           0        2.615845    1.806726   -0.583368
     33          8           0        3.293821    2.762706   -0.213113
     34          8           0        1.682042    1.867608   -1.380202
 ---------------------------------------------------------------------

 SCF Done:  E(RHF) =  -669.535453477     A.U. after   15 cycles
 E2 =    -0.2091597471D+01 EUMP2 =    -0.67162705094743D+03

 The electronic state is 1-A.
 Alpha  occ. eigenvalues --  -20.60753 -20.60748 -15.85804 -11.31154 -11.27730
 Alpha  occ. eigenvalues --  -11.27701 -11.27473 -11.26747 -11.26724 -11.21819
 Alpha  occ. eigenvalues --  -11.21699 -11.21569 -11.21513 -11.21342 -11.20989
 Alpha  occ. eigenvalues --   -1.59826  -1.39380  -1.19330  -1.08728  -1.08524
 Alpha  occ. eigenvalues --   -1.04738  -1.03690  -0.96172  -0.95564  -0.87184
 Alpha  occ. eigenvalues --   -0.86130  -0.82400  -0.79739  -0.78298  -0.77450
 Alpha  occ. eigenvalues --   -0.72025  -0.71147  -0.70454  -0.65146  -0.64988
 Alpha  occ. eigenvalues --   -0.64740  -0.62186  -0.61070  -0.59522  -0.57754
 Alpha  occ. eigenvalues --   -0.55436  -0.55233  -0.53066  -0.52923  -0.52814
 Alpha  occ. eigenvalues --   -0.52547  -0.50076  -0.48781  -0.48779  -0.48062
 Alpha  occ. eigenvalues --   -0.46741  -0.45853  -0.45744  -0.44787  -0.43941
 Alpha  occ. eigenvalues --   -0.37314  -0.36331
 Alpha virt. eigenvalues --    0.05075   0.11307   0.16558   0.19865   0.22944
 Alpha virt. eigenvalues --    0.23866   0.26196   0.26583   0.27262   0.28012
 Alpha virt. eigenvalues --    0.29224   0.30000   0.31270   0.31594   0.32163

 Mulliken charges:
               1
     1  C   -0.299168
     2  C   -0.299866
     3  C   -0.475907
     4  H    0.149823
     5  H    0.154252
     6  H    0.150679
     7  H    0.152210
     8  H    0.157093
     9  H    0.155173
    10  H    0.159961
    11  C   -0.298693
    12  C   -0.304402
    13  C   -0.478108
    14  H    0.147936
    15  H    0.150842
    16  H    0.151684
    17  H    0.163742
    18  H    0.161113
    19  H    0.154791
    20  H    0.147136
    21  C   -0.170775
    22  C   -0.221079
    23  C   -0.177433
    24  C    0.159850
    25  C   -0.170678
    26  C   -0.218828
    27  H    0.225501
    28  H    0.225056
    29  H    0.282369
    30  H    0.275438
    31  H    0.223344
    32  N    0.488300
    33  O   -0.460501
    34  O   -0.460855
 Sum of Mulliken charges =  -0.00000

 Dipole moment (field-independent basis, Debye):
    X=              1.0521    Y=             -4.5941    Z=              1.9565  Tot=              5.1030
 Quadrupole moment (field-independent basis, Debye-Ang):
   XX=            -85.4004   YY=            -99.4904   ZZ=            -93.5036
   XY=            -11.4632   XZ=              8.7978   YZ=              1.3314

 Normal termination of Gaussian 16 at Thu May  6 05:48:08 2021.
