 Gaussian 16, Revision A.03,
 Gaussian 16:  EM64L-G16RevA.03 25-Dec-2016

 -------------
 #p 6-31g* mp2
 -------------

 ------------------------------------------------------
 Input file generated by CHIRIPA (05-May-2021 14:53:17)
 ------------------------------------------------------
 Symbolic Z-matrix:
 Charge =  0 Multiplicity = 1

                         Standard orientation:
 ---------------------------------------------------------------------
 Center     Atomic      Atomic             Coordinates (Angstroms)
 Number     Number       Type             X           Y           Z
 ---------------------------------------------------------------------
      1          6           0        4.142206    0.814761    0.248467
      2          6           0        2.703820    0.879054    0.763151
      3          6           0        2.214066    2.312399    0.971610
      4          1           0        4.802685    1.329678    0.959503
      5          1           0        4.210484    1.367930   -0.698495
      6          1           0        2.637972    0.324759    1.708158
      7          1           0        2.046715    0.363757    0.050903
      8          1           0        2.251017    2.872655    0.031743
      9          1           0        2.845634    2.833435    1.698414
     10          1           0        1.183627    2.335022    1.339771
     11          6           0        4.646113   -0.611524    0.035126
     12          6           0        6.084498   -0.675817   -0.479558
     13          6           0        6.574252   -2.109163   -0.688016
     14          1           0        4.577834   -1.164693    0.982088
     15          1           0        3.985633   -1.126442   -0.675910
     16          1           0        6.741604   -0.160520    0.232690
     17          1           0        6.150347   -0.121522   -1.424565
     18          1           0        5.942685   -2.630198   -1.414821
     19          1           0        6.537301   -2.669418    0.251850
     20          1           0        7.604692   -2.131785   -1.056178
     21          6           0       -1.551728    1.546902   -0.537573
     22          6           0       -1.302706    0.352243    0.146019
     23          6           0       -2.337416   -0.556228    0.388100
     24          6           0       -3.614806   -0.236613   -0.069517
     25          6           0       -3.894581    0.945432   -0.753467
     26          6           0       -2.844591    1.839168   -0.984347
     27          1           0       -0.742006    2.246901   -0.721277
     28          1           0       -0.299643    0.122636    0.494145
     29          1           0       -2.172575   -1.488350    0.914783
     30          1           0       -4.904933    1.146614   -1.088326
     31          1           0       -3.040914    2.766196   -1.515499
     32          7           0       -4.718294   -1.190572    0.180834
     33          8           0       -5.834853   -0.885605   -0.232601
     34          8           0       -4.445756   -2.225188    0.785754
 ---------------------------------------------------------------------

 SCF Done:  E(RHF) =  -669.535459353     A.U. after   15 cycles
 E2 =    -0.2091806638D+01 EUMP2 =    -0.67162726599116D+03

 The electronic state is 1-A.
 Alpha  occ. eigenvalues --  -20.60717 -20.60711 -15.85769 -11.31123 -11.27693
 Alpha  occ. eigenvalues --  -11.27678 -11.27400 -11.26700 -11.26637 -11.22856
 Alpha  occ. eigenvalues --  -11.22364 -11.22303 -11.22175 -11.22084 -11.21522
 Alpha  occ. eigenvalues --   -1.59792  -1.39346  -1.19290  -1.09307  -1.08684
 Alpha  occ. eigenvalues --   -1.04697  -1.04418  -0.96855  -0.95521  -0.87869
 Alpha  occ. eigenvalues --   -0.86091  -0.82357  -0.80529  -0.79066  -0.77406
 Alpha  occ. eigenvalues --   -0.71988  -0.71115  -0.70399  -0.65957  -0.64941
 Alpha  occ. eigenvalues --   -0.64726  -0.62141  -0.61741  -0.60219  -0.58435
 Alpha  occ. eigenvalues --   -0.56127  -0.55184  -0.53568  -0.53285  -0.53000
 Alpha  occ. eigenvalues --   -0.52775  -0.50781  -0.48842  -0.48743  -0.48720
 Alpha  occ. eigenvalues --   -0.47539  -0.46604  -0.46491  -0.44754  -0.44651
 Alpha  occ. eigenvalues --   -0.37265  -0.36294
 Alpha virt. eigenvalues --    0.05119   0.11271   0.16606   0.19424   0.22450
 Alpha virt. eigenvalues --    0.23938   0.25470   0.25810   0.26481   0.27985
 Alpha virt. eigenvalues --    0.29714   0.29832   0.30819   0.31046   0.31825

 Mulliken charges:
               1
     1  C   -0.297664
     2  C   -0.306645
     3  C   -0.482452
     4  H    0.153136
     5  H    0.150910
     6  H    0.155742
     7  H    0.146354
     8  H    0.154373
     9  H    0.163492
    10  H    0.158307
    11  C   -0.299488
    12  C   -0.300342
    13  C   -0.476277
    14  H    0.151003
    15  H    0.150077
    16  H    0.153116
    17  H    0.152615
    18  H    0.156060
    19  H    0.156226
    20  H    0.162119
    21  C   -0.175575
    22  C   -0.227271
    23  C   -0.172337
    24  C    0.158791
    25  C   -0.171200
    26  C   -0.218770
    27  H    0.229140
    28  H    0.235464
    29  H    0.275821
    30  H    0.275312
    31  H    0.223182
    32  N    0.487990
    33  O   -0.460662
    34  O   -0.460548
 Sum of Mulliken charges =  -0.00000

 Dipole moment (field-independent basis, Debye):
    X=              4.1727    Y=              3.3656    Z=             -0.8524  Tot=              5.4282
 Quadrupole moment (field-independent basis, Debye-Ang):
   XX=           -120.3220   YY=            -95.7389   ZZ=            -93.2526
   XY=            -14.9084   XZ=              5.2312   YZ=             -1.8626

 Normal termination of Gaussian 16 at Thu May  6 20:30:05 2021.
