 Gaussian 16, Revision A.03,
 Gaussian 16:  EM64L-G16RevA.03 25-Dec-2016

 -------------
 #p 6-31g* mp2
 -------------

 ------------------------------------------------------
 Input file generated by CHIRIPA (05-May-2021 14:57:21)
 ------------------------------------------------------
 Symbolic Z-matrix:
 Charge =  0 Multiplicity = 1

                         Standard orientation:
 ---------------------------------------------------------------------
 Center     Atomic      Atomic             Coordinates (Angstroms)
 Number     Number       Type             X           Y           Z
 ---------------------------------------------------------------------
      1          6           0        3.227112    2.325644    0.038927
      2          6           0        2.333130    1.258717    0.176711
      3          6           0        2.791701   -0.061408    0.137596
      4          6           0        4.156890   -0.279221   -0.041594
      5          6           0        5.072478    0.762565   -0.181847
      6          6           0        4.591527    2.074605   -0.139597
      7          1           0        2.862190    3.348008    0.070531
      8          1           0        1.272971    1.450689    0.315478
      9          1           0        2.121574   -0.906111    0.241638
     10          1           0        6.123656    0.539716   -0.318889
     11          1           0        5.288108    2.901232   -0.246877
     12          7           0        4.654205   -1.672498   -0.084663
     13          8           0        5.861699   -1.837813   -0.243616
     14          8           0        3.827090   -2.572853    0.041349
     15          6           0       -2.560451    2.058344    0.227379
     16          6           0       -3.860522    2.206749   -0.266901
     17          6           0       -4.708389    1.100722   -0.378142
     18          6           0       -4.221340   -0.144607    0.015849
     19          6           0       -2.931157   -0.324686    0.512126
     20          6           0       -2.100728    0.795328    0.614632
     21          1           0       -1.908581    2.922964    0.310401
     22          1           0       -4.220233    3.186417   -0.568401
     23          1           0       -5.719370    1.187183   -0.757430
     24          1           0       -2.600858   -1.313982    0.804723
     25          1           0       -1.091549    0.677094    0.998848
     26          7           0       -5.109708   -1.322912   -0.097294
     27          8           0       -4.656742   -2.409314    0.256527
     28          8           0       -6.242156   -1.137753   -0.537653
 ---------------------------------------------------------------------

 SCF Done:  E(RHF) =  -868.336148374     A.U. after   16 cycles
 E2 =    -0.2599734596D+01 EUMP2 =    -0.87093588296968D+03

 The electronic state is 1-A.
 Alpha  occ. eigenvalues --  -20.61215 -20.61210 -20.61132 -20.61126 -15.86277
 Alpha  occ. eigenvalues --  -15.86194 -11.31795 -11.31730 -11.28450 -11.28359
 Alpha  occ. eigenvalues --  -11.28359 -11.28313 -11.28205 -11.28202 -11.27572
 Alpha  occ. eigenvalues --  -11.27518 -11.27394 -11.27366  -1.60288  -1.60204
 Alpha  occ. eigenvalues --   -1.39838  -1.39752  -1.19999  -1.19944  -1.09370
 Alpha  occ. eigenvalues --   -1.09323  -1.05446  -1.05376  -0.96172  -0.96119
 Alpha  occ. eigenvalues --   -0.86863  -0.86762  -0.83022  -0.82943  -0.78056
 Alpha  occ. eigenvalues --   -0.77931  -0.72492  -0.72409  -0.71614  -0.71530
 Alpha  occ. eigenvalues --   -0.71116  -0.71082  -0.65690  -0.65659  -0.65594
 Alpha  occ. eigenvalues --   -0.65263  -0.62901  -0.62610  -0.55961  -0.55913
 Alpha  occ. eigenvalues --   -0.53740  -0.53717  -0.53651  -0.53365  -0.49266
 Alpha  occ. eigenvalues --   -0.49237  -0.49182  -0.49150  -0.45210  -0.45119
 Alpha  occ. eigenvalues --   -0.37985  -0.37953  -0.37042  -0.36971
 Alpha virt. eigenvalues --    0.04533   0.04601   0.10573   0.10642   0.15970
 Alpha virt. eigenvalues --    0.16028   0.17691   0.21993   0.24533   0.26686
 Alpha virt. eigenvalues --    0.28000   0.28656   0.29885   0.31079   0.31921

 Mulliken charges:
               1
     1  C   -0.170640
     2  C   -0.219808
     3  C   -0.170479
     4  C    0.159148
     5  C   -0.169615
     6  C   -0.218105
     7  H    0.224706
     8  H    0.215298
     9  H    0.274377
    10  H    0.278007
    11  H    0.225518
    12  N    0.488067
    13  O   -0.458406
    14  O   -0.458887
    15  C   -0.170645
    16  C   -0.218133
    17  C   -0.169567
    18  C    0.159305
    19  C   -0.169371
    20  C   -0.222061
    21  H    0.220510
    22  H    0.224952
    23  H    0.277912
    24  H    0.278940
    25  H    0.217768
    26  N    0.487870
    27  O   -0.457785
    28  O   -0.458878
 Sum of Mulliken charges =  -0.00000

 Dipole moment (field-independent basis, Debye):
    X=              1.3654    Y=              8.9600    Z=              0.4834  Tot=              9.0763
 Quadrupole moment (field-independent basis, Debye-Ang):
   XX=           -136.9923   YY=           -107.3228   ZZ=           -105.7622
   XY=              2.4217   XZ=             -0.1107   YZ=             -1.8420

 Normal termination of Gaussian 16 at Thu May  6 19:25:09 2021.
