 Gaussian 16, Revision A.03,
 Gaussian 16:  EM64L-G16RevA.03 25-Dec-2016

 -------------
 #p 6-31g* mp2
 -------------

 ------------------------------------------------------
 Input file generated by CHIRIPA (05-May-2021 14:51:09)
 ------------------------------------------------------
 Symbolic Z-matrix:
 Charge =  0 Multiplicity = 1

                         Standard orientation:
 ---------------------------------------------------------------------
 Center     Atomic      Atomic             Coordinates (Angstroms)
 Number     Number       Type             X           Y           Z
 ---------------------------------------------------------------------
      1          6           0        4.864199   -0.115045   -0.313841
      2          6           0        6.064489   -1.002288    0.017955
      3          6           0        7.129065   -0.991266   -1.079474
      4          1           0        4.419743   -0.449612   -1.261189
      5          1           0        5.212160    0.914195   -0.478102
      6          1           0        5.714193   -2.029275    0.182900
      7          1           0        6.506023   -0.665690    0.964721
      8          1           0        7.506476    0.023834   -1.239894
      9          1           0        6.710147   -1.347498   -2.026157
     10          1           0        7.978046   -1.632074   -0.821683
     11          6           0        3.791387   -0.115631    0.773726
     12          6           0        2.591097    0.771612    0.441931
     13          6           0        1.526521    0.760590    1.539360
     14          1           0        3.443426   -1.144871    0.937987
     15          1           0        4.235843    0.218936    1.721075
     16          1           0        2.149563    0.435014   -0.504835
     17          1           0        2.941393    1.798599    0.276985
     18          1           0        1.945439    1.116822    2.486042
     19          1           0        1.149110   -0.254510    1.699779
     20          1           0        0.677540    1.401398    1.281568
     21          6           0       -3.611155    0.341490   -0.366753
     22          6           0       -3.444273    1.861404   -0.365528
     23          6           0       -2.005106    2.298314   -0.640663
     24          1           0       -2.943220   -0.094950    0.388447
     25          1           0       -3.285920   -0.055321   -1.338431
     26          1           0       -3.771027    2.255372    0.605366
     27          1           0       -4.112823    2.294291   -1.120687
     28          1           0       -1.671627    1.932950   -1.617343
     29          1           0       -1.327889    1.893811    0.118517
     30          1           0       -1.908507    3.388496   -0.635211
     31          6           0       -5.044431   -0.110815   -0.093132
     32          6           0       -5.211312   -1.630727   -0.094357
     33          6           0       -6.650481   -2.067637    0.180778
     34          1           0       -5.369666    0.285997    0.878545
     35          1           0       -5.712366    0.325626   -0.848332
     36          1           0       -4.542762   -2.063615    0.660801
     37          1           0       -4.884559   -2.024696   -1.065252
     38          1           0       -7.327698   -1.663134   -0.578402
     39          1           0       -6.983959   -1.702275    1.157459
     40          1           0       -6.747079   -3.157820    0.175325
 ---------------------------------------------------------------------

 SCF Done:  E(RHF) =  -470.733326185     A.U. after   11 cycles
 E2 =    -0.1582240838D+01 EUMP2 =    -0.47231556702360D+03

 The electronic state is 1-A.
 Alpha  occ. eigenvalues --  -11.21598 -11.21597 -11.21591 -11.21578 -11.21397
 Alpha  occ. eigenvalues --  -11.21390 -11.21338 -11.21330 -11.21068 -11.21062
 Alpha  occ. eigenvalues --  -11.21062 -11.21060  -1.08426  -1.08413  -1.03537
 Alpha  occ. eigenvalues --   -1.03506  -0.96005  -0.95943  -0.87037  -0.86948
 Alpha  occ. eigenvalues --   -0.79613  -0.79555  -0.78236  -0.78225  -0.65059
 Alpha  occ. eigenvalues --   -0.65041  -0.60955  -0.60903  -0.59392  -0.59312
 Alpha  occ. eigenvalues --   -0.57697  -0.57483  -0.55287  -0.55239  -0.52778
 Alpha  occ. eigenvalues --   -0.52661  -0.52459  -0.52247  -0.49927  -0.49884
 Alpha  occ. eigenvalues --   -0.47980  -0.47815  -0.46626  -0.46595  -0.45778
 Alpha  occ. eigenvalues --   -0.45767  -0.45703  -0.45690  -0.43781  -0.43748
 Alpha virt. eigenvalues --    0.21903   0.23028   0.23464   0.24836   0.26307
 Alpha virt. eigenvalues --    0.26666   0.26964   0.27496   0.27766   0.28836
 Alpha virt. eigenvalues --    0.30147   0.31403   0.31692   0.31925   0.32011

 Mulliken charges:
               1
     1  C   -0.298247
     2  C   -0.299640
     3  C   -0.475697
     4  H    0.149686
     5  H    0.149558
     6  H    0.151894
     7  H    0.151905
     8  H    0.155185
     9  H    0.155171
    10  H    0.160206
    11  C   -0.298477
    12  C   -0.298958
    13  C   -0.482892
    14  H    0.149433
    15  H    0.149561
    16  H    0.152584
    17  H    0.152097
    18  H    0.155206
    19  H    0.154766
    20  H    0.166689
    21  C   -0.298492
    22  C   -0.299126
    23  C   -0.483109
    24  H    0.150110
    25  H    0.149357
    26  H    0.151958
    27  H    0.151927
    28  H    0.155331
    29  H    0.161783
    30  H    0.160280
    31  C   -0.298314
    32  C   -0.299661
    33  C   -0.475703
    34  H    0.149599
    35  H    0.149610
    36  H    0.151988
    37  H    0.151834
    38  H    0.155162
    39  H    0.155224
    40  H    0.160212
 Sum of Mulliken charges =  -0.00000

 Dipole moment (field-independent basis, Debye):
    X=              0.0003    Y=              0.0046    Z=             -0.0024  Tot=              0.0052
 Quadrupole moment (field-independent basis, Debye-Ang):
   XX=            -86.3106   YY=            -84.4026   ZZ=            -84.1017
   XY=              0.0069   XZ=              1.1790   YZ=              0.3792

 Normal termination of Gaussian 16 at Thu May  6 06:55:09 2021.
