 Gaussian 16, Revision A.03,
 Gaussian 16:  EM64L-G16RevA.03 25-Dec-2016

 -------------
 #p 6-31g* mp2
 -------------

 ------------------------------------------------------
 Input file generated by CHIRIPA (05-May-2021 14:53:13)
 ------------------------------------------------------
 Symbolic Z-matrix:
 Charge =  0 Multiplicity = 1

                         Standard orientation:
 ---------------------------------------------------------------------
 Center     Atomic      Atomic             Coordinates (Angstroms)
 Number     Number       Type             X           Y           Z
 ---------------------------------------------------------------------
      1          6           0       -2.913194    0.747447   -0.480119
      2          6           0       -2.899599    2.275829   -0.437093
      3          6           0       -1.881746    2.885337   -1.401597
      4          1           0       -1.908934    0.371312   -0.241521
      5          1           0       -3.134928    0.418386   -1.504789
      6          1           0       -2.679323    2.601912    0.587487
      7          1           0       -3.904055    2.648364   -0.675633
      8          1           0       -2.101919    2.588599   -2.432165
      9          1           0       -0.870228    2.541882   -1.161868
     10          1           0       -1.888831    3.978769   -1.354515
     11          6           0       -3.925659    0.123386    0.478625
     12          6           0       -3.939253   -1.404995    0.435598
     13          6           0       -4.957106   -2.014503    1.400103
     14          1           0       -3.703925    0.452447    1.503295
     15          1           0       -4.929919    0.499522    0.240027
     16          1           0       -2.934797   -1.777531    0.674139
     17          1           0       -4.159530   -1.731078   -0.588982
     18          1           0       -5.968625   -1.671049    1.160374
     19          1           0       -4.736934   -1.717765    2.430671
     20          1           0       -4.950022   -3.107935    1.353021
     21          6           0        4.187269    1.189016    1.315780
     22          6           0        2.804343    1.398741    1.322952
     23          6           0        1.954900    0.557725    0.597909
     24          6           0        2.524881   -0.488006   -0.126564
     25          6           0        3.898718   -0.722802   -0.153584
     26          6           0        4.729088    0.130779    0.578834
     27          1           0        4.839728    1.847217    1.881875
     28          1           0        2.380770    2.219785    1.894371
     29          1           0        0.880752    0.697286    0.585927
     30          1           0        4.291572   -1.549656   -0.732718
     31          1           0        5.802716   -0.034486    0.571425
     32          7           0        1.635711   -1.385003   -0.898039
     33          8           0        2.162672   -2.299201   -1.528267
     34          8           0        0.428654   -1.156885   -0.857884
 ---------------------------------------------------------------------

 SCF Done:  E(RHF) =  -669.535879368     A.U. after   15 cycles
 E2 =    -0.2091805981D+01 EUMP2 =    -0.67162768534852D+03

 The electronic state is 1-A.
 Alpha  occ. eigenvalues --  -20.60914 -20.60906 -15.85954 -11.31294 -11.27867
 Alpha  occ. eigenvalues --  -11.27850 -11.27590 -11.26869 -11.26859 -11.21255
 Alpha  occ. eigenvalues --  -11.20859 -11.20824 -11.20760 -11.20595 -11.20484
 Alpha  occ. eigenvalues --   -1.59979  -1.39535  -1.19462  -1.08861  -1.07830
 Alpha  occ. eigenvalues --   -1.04862  -1.03018  -0.95703  -0.95470  -0.86495
 Alpha  occ. eigenvalues --   -0.86261  -0.82538  -0.79061  -0.77712  -0.77457
 Alpha  occ. eigenvalues --   -0.72177  -0.71294  -0.70571  -0.65122  -0.64876
 Alpha  occ. eigenvalues --   -0.64464  -0.62214  -0.60432  -0.58842  -0.57057
 Alpha  occ. eigenvalues --   -0.55362  -0.54776  -0.53189  -0.52955  -0.52203
 Alpha  occ. eigenvalues --   -0.51887  -0.49452  -0.48940  -0.48926  -0.47372
 Alpha  occ. eigenvalues --   -0.46090  -0.45139  -0.45013  -0.44932  -0.43233
 Alpha  occ. eigenvalues --   -0.37438  -0.36462
 Alpha virt. eigenvalues --    0.04932   0.11164   0.16443   0.19982   0.22877
 Alpha virt. eigenvalues --    0.24393   0.26121   0.27526   0.27697   0.28460
 Alpha virt. eigenvalues --    0.29328   0.30949   0.31486   0.32125   0.32411

 Mulliken charges:
               1
     1  C   -0.308956
     2  C   -0.299758
     3  C   -0.473862
     4  H    0.169262
     5  H    0.153099
     6  H    0.144489
     7  H    0.151244
     8  H    0.159431
     9  H    0.149711
    10  H    0.156529
    11  C   -0.297683
    12  C   -0.300347
    13  C   -0.475542
    14  H    0.143599
    15  H    0.146652
    16  H    0.160660
    17  H    0.154156
    18  H    0.152795
    19  H    0.151850
    20  H    0.160279
    21  C   -0.170398
    22  C   -0.219767
    23  C   -0.172836
    24  C    0.157277
    25  C   -0.170531
    26  C   -0.218575
    27  H    0.226072
    28  H    0.224326
    29  H    0.279770
    30  H    0.275869
    31  H    0.223877
    32  N    0.493738
    33  O   -0.459204
    34  O   -0.467228
 Sum of Mulliken charges =  -0.00000

 Dipole moment (field-independent basis, Debye):
    X=              3.3081    Y=              2.9966    Z=              2.6065  Tot=              5.1689
 Quadrupole moment (field-independent basis, Debye-Ang):
   XX=            -76.3731   YY=            -97.7828   ZZ=            -95.6153
   XY=              4.0432   XZ=              6.6681   YZ=             -0.2628

 Normal termination of Gaussian 16 at Thu May  6 08:55:42 2021.
