 Gaussian 16, Revision A.03,
 Gaussian 16:  EM64L-G16RevA.03 25-Dec-2016

 -------------
 #p 6-31g* mp2
 -------------

 ------------------------------------------------------
 Input file generated by CHIRIPA (05-May-2021 14:53:17)
 ------------------------------------------------------
 Symbolic Z-matrix:
 Charge =  0 Multiplicity = 1

                         Standard orientation:
 ---------------------------------------------------------------------
 Center     Atomic      Atomic             Coordinates (Angstroms)
 Number     Number       Type             X           Y           Z
 ---------------------------------------------------------------------
      1          6           0        3.927087    0.739464    0.122846
      2          6           0        2.612358    1.519757    0.098003
      3          6           0        2.799818    3.004063    0.413419
      4          1           0        4.392879    0.849674    1.111702
      5          1           0        4.623101    1.184211   -0.601834
      6          1           0        1.918544    1.072815    0.821522
      7          1           0        2.149548    1.407519   -0.890847
      8          1           0        3.471496    3.470722   -0.314372
      9          1           0        3.239180    3.134115    1.407727
     10          1           0        1.847419    3.542820    0.390244
     11          6           0        3.756025   -0.745878   -0.190560
     12          6           0        5.070754   -1.526171   -0.165717
     13          6           0        4.883294   -3.010478   -0.481133
     14          1           0        3.060012   -1.190625    0.534119
     15          1           0        3.290233   -0.856088   -1.179417
     16          1           0        5.533564   -1.413934    0.823133
     17          1           0        5.764568   -1.079229   -0.889237
     18          1           0        4.443933   -3.140529   -1.475441
     19          1           0        4.211616   -3.477136    0.246658
     20          1           0        5.835693   -3.549234   -0.457958
     21          6           0       -1.442068    1.980562   -0.122799
     22          6           0       -1.221170    0.985877    0.835495
     23          6           0       -2.078595   -0.114553    0.927278
     24          6           0       -3.151948   -0.188726    0.040880
     25          6           0       -3.398478    0.786074   -0.924666
     26          6           0       -2.528103    1.877667   -0.998277
     27          1           0       -0.770970    2.831970   -0.187039
     28          1           0       -0.378546    1.063165    1.516711
     29          1           0       -1.930917   -0.898925    1.659651
     30          1           0       -4.246917    0.681407   -1.589958
     31          1           0       -2.702101    2.648652   -1.743497
     32          7           0       -4.066521   -1.349024    0.128427
     33          8           0       -5.004997   -1.391049   -0.664122
     34          8           0       -3.827570   -2.194470    0.987939
 ---------------------------------------------------------------------

 SCF Done:  E(RHF) =  -669.535112528     A.U. after   15 cycles
 E2 =    -0.2091916043D+01 EUMP2 =    -0.67162702857095D+03

 The electronic state is 1-A.
 Alpha  occ. eigenvalues --  -20.60733 -20.60728 -15.85786 -11.31145 -11.27714
 Alpha  occ. eigenvalues --  -11.27703 -11.27444 -11.26729 -11.26696 -11.22622
 Alpha  occ. eigenvalues --  -11.22208 -11.22124 -11.22025 -11.21923 -11.21368
 Alpha  occ. eigenvalues --   -1.59809  -1.39363  -1.19315  -1.09130  -1.08708
 Alpha  occ. eigenvalues --   -1.04722  -1.04244  -0.96683  -0.95545  -0.87695
 Alpha  occ. eigenvalues --   -0.86121  -0.82382  -0.80337  -0.78893  -0.77428
 Alpha  occ. eigenvalues --   -0.72005  -0.71132  -0.70428  -0.65785  -0.64967
 Alpha  occ. eigenvalues --   -0.64735  -0.62125  -0.61591  -0.60099  -0.58286
 Alpha  occ. eigenvalues --   -0.55947  -0.55224  -0.53402  -0.53114  -0.53030
 Alpha  occ. eigenvalues --   -0.52823  -0.50601  -0.48795  -0.48761  -0.48595
 Alpha  occ. eigenvalues --   -0.47346  -0.46429  -0.46327  -0.44770  -0.44485
 Alpha  occ. eigenvalues --   -0.37278  -0.36311
 Alpha virt. eigenvalues --    0.05096   0.11266   0.16550   0.19057   0.22575
 Alpha virt. eigenvalues --    0.23874   0.24861   0.25898   0.26503   0.27939
 Alpha virt. eigenvalues --    0.28896   0.29624   0.30958   0.31736   0.32080

 Mulliken charges:
               1
     1  C   -0.298613
     2  C   -0.303461
     3  C   -0.477700
     4  H    0.150902
     5  H    0.151934
     6  H    0.145855
     7  H    0.155047
     8  H    0.160818
     9  H    0.159182
    10  H    0.150711
    11  C   -0.298545
    12  C   -0.300316
    13  C   -0.476189
    14  H    0.148840
    15  H    0.151741
    16  H    0.152352
    17  H    0.152629
    18  H    0.156435
    19  H    0.156364
    20  H    0.161729
    21  C   -0.173447
    22  C   -0.218421
    23  C   -0.172044
    24  C    0.158550
    25  C   -0.170885
    26  C   -0.219385
    27  H    0.229133
    28  H    0.225896
    29  H    0.275245
    30  H    0.275371
    31  H    0.223373
    32  N    0.488052
    33  O   -0.460576
    34  O   -0.460578
 Sum of Mulliken charges =  -0.00000

 Dipole moment (field-independent basis, Debye):
    X=              3.4214    Y=              4.0324    Z=             -0.3621  Tot=              5.3007
 Quadrupole moment (field-independent basis, Debye-Ang):
   XX=           -113.4885   YY=            -97.3826   ZZ=            -91.3181
   XY=            -14.7097   XZ=              3.2689   YZ=             -1.8880

 Normal termination of Gaussian 16 at Wed May  5 20:22:21 2021.
