 Gaussian 16, Revision A.03,
 Gaussian 16:  EM64L-G16RevA.03 25-Dec-2016

 -------------
 #p 6-31g* mp2
 -------------

 ------------------------------------------------------
 Input file generated by CHIRIPA (05-May-2021 14:57:22)
 ------------------------------------------------------
 Symbolic Z-matrix:
 Charge =  0 Multiplicity = 1

                         Standard orientation:
 ---------------------------------------------------------------------
 Center     Atomic      Atomic             Coordinates (Angstroms)
 Number     Number       Type             X           Y           Z
 ---------------------------------------------------------------------
      1          6           0        3.578413    1.714033    0.705309
      2          6           0        3.453779    0.576913    1.510259
      3          6           0        2.745844   -0.540024    1.056577
      4          6           0        2.172697   -0.485281   -0.212989
      5          6           0        2.279293    0.632954   -1.038505
      6          6           0        2.991806    1.738382   -0.564266
      7          1           0        4.130132    2.577226    1.065726
      8          1           0        3.908300    0.555184    2.496659
      9          1           0        2.633845   -1.433321    1.658984
     10          1           0        1.815187    0.624906   -2.017259
     11          1           0        3.086972    2.620124   -1.191576
     12          7           0        1.420815   -1.661640   -0.704164
     13          8           0        0.925173   -1.588329   -1.826483
     14          8           0        1.341368   -2.634706    0.042474
     15          6           0       -2.410955   -2.162136    0.709095
     16          6           0       -2.271748   -1.762334   -0.624060
     17          6           0       -2.207329   -0.405648   -0.955422
     18          6           0       -2.285563    0.528602    0.076249
     19          6           0       -2.424430    0.161728    1.413938
     20          6           0       -2.486719   -1.200524    1.722053
     21          1           0       -2.460169   -3.218205    0.957476
     22          1           0       -2.212654   -2.506930   -1.412811
     23          1           0       -2.099711   -0.068375   -1.979182
     24          1           0       -2.480660    0.927202    2.178338
     25          1           0       -2.594845   -1.508107    2.758270
     26          7           0       -2.218493    1.967812   -0.262245
     27          8           0       -2.289679    2.771281    0.665121
     28          8           0       -2.096009    2.265142   -1.448511
 ---------------------------------------------------------------------

 SCF Done:  E(RHF) =  -868.340599652     A.U. after   16 cycles
 E2 =    -0.2601463408D+01 EUMP2 =    -0.87094206306053D+03

 The electronic state is 1-A.
 Alpha  occ. eigenvalues --  -20.61182 -20.61175 -20.60400 -20.60393 -15.86163
 Alpha  occ. eigenvalues --  -15.85440 -11.31243 -11.30469 -11.27805 -11.27728
 Alpha  occ. eigenvalues --  -11.27449 -11.27050 -11.26895 -11.26756 -11.26666
 Alpha  occ. eigenvalues --  -11.26601 -11.25992 -11.25746  -1.60218  -1.59484
 Alpha  occ. eigenvalues --   -1.39790  -1.39045  -1.19382  -1.18606  -1.08833
 Alpha  occ. eigenvalues --   -1.08042  -1.04736  -1.03929  -0.95724  -0.94936
 Alpha  occ. eigenvalues --   -0.86151  -0.85338  -0.82578  -0.81769  -0.77653
 Alpha  occ. eigenvalues --   -0.76872  -0.72445  -0.71667  -0.71530  -0.70801
 Alpha  occ. eigenvalues --   -0.70488  -0.69667  -0.65041  -0.64738  -0.64227
 Alpha  occ. eigenvalues --   -0.63899  -0.62089  -0.61275  -0.55253  -0.54412
 Alpha  occ. eigenvalues --   -0.53086  -0.52825  -0.52304  -0.51997  -0.49201
 Alpha  occ. eigenvalues --   -0.49162  -0.48435  -0.48388  -0.45292  -0.44525
 Alpha  occ. eigenvalues --   -0.37388  -0.36503  -0.36316  -0.35444
 Alpha virt. eigenvalues --    0.04841   0.05647   0.11308   0.12162   0.16411
 Alpha virt. eigenvalues --    0.17244   0.21471   0.22339   0.27387   0.28042
 Alpha virt. eigenvalues --    0.28514   0.29187   0.31061   0.31886   0.32419

 Mulliken charges:
               1
     1  C   -0.169227
     2  C   -0.218612
     3  C   -0.171274
     4  C    0.158645
     5  C   -0.170693
     6  C   -0.216540
     7  H    0.227424
     8  H    0.222933
     9  H    0.272645
    10  H    0.277450
    11  H    0.228185
    12  N    0.491065
    13  O   -0.465528
    14  O   -0.463962
    15  C   -0.165560
    16  C   -0.209127
    17  C   -0.170800
    18  C    0.152414
    19  C   -0.174706
    20  C   -0.221034
    21  H    0.227796
    22  H    0.233052
    23  H    0.275688
    24  H    0.270598
    25  H    0.219537
    26  N    0.488487
    27  O   -0.464495
    28  O   -0.464361
 Sum of Mulliken charges =  -0.00000

 Dipole moment (field-independent basis, Debye):
    X=              2.5816    Y=             -1.0961    Z=              2.7458  Tot=              3.9250
 Quadrupole moment (field-independent basis, Debye-Ang):
   XX=            -93.5526   YY=           -113.5770   ZZ=            -97.3714
   XY=             19.9493   XZ=              1.3111   YZ=             -2.4728

 Normal termination of Gaussian 16 at Thu May  6 09:42:21 2021.
