 Gaussian 16, Revision A.03,
 Gaussian 16:  EM64L-G16RevA.03 25-Dec-2016

 -------------
 #p 6-31g* mp2
 -------------

 ------------------------------------------------------
 Input file generated by CHIRIPA (05-May-2021 14:55:25)
 ------------------------------------------------------
 Symbolic Z-matrix:
 Charge =  0 Multiplicity = 1

                         Standard orientation:
 ---------------------------------------------------------------------
 Center     Atomic      Atomic             Coordinates (Angstroms)
 Number     Number       Type             X           Y           Z
 ---------------------------------------------------------------------
      1          6           0        0.988911   -1.426695    1.497349
      2          6           0        2.078836   -0.818291    2.128562
      3          6           0        3.063994   -0.170964    1.376911
      4          6           0        2.927031   -0.151072   -0.010221
      5          6           0        1.852878   -0.748016   -0.668358
      6          6           0        0.879604   -1.389681    0.103361
      7          1           0        0.228232   -1.927355    2.089044
      8          1           0        2.166320   -0.845466    3.210991
      9          1           0        3.918159    0.308181    1.839771
     10          1           0        1.793013   -0.704372   -1.749066
     11          1           0        0.034242   -1.861322   -0.389552
     12          7           0        3.963683    0.531227   -0.816583
     13          8           0        3.819934    0.534776   -2.037222
     14          8           0        4.900332    1.049545   -0.212702
     15          6           0       -3.848274   -0.335349    0.011281
     16          6           0       -3.394479   -1.469984   -0.907774
     17          6           0       -4.044058   -2.809331   -0.558506
     18          1           0       -3.612973   -0.598370    1.051665
     19          1           0       -4.941379   -0.240161   -0.047492
     20          1           0       -2.302418   -1.562094   -0.848338
     21          1           0       -3.630714   -1.204147   -1.946109
     22          1           0       -5.133946   -2.740803   -0.636278
     23          1           0       -3.798102   -3.100783    0.467731
     24          1           0       -3.705615   -3.606344   -1.227900
     25          6           0       -3.207542    1.009969   -0.325334
     26          6           0       -3.661336    2.144603    0.593721
     27          6           0       -3.011757    3.483951    0.244452
     28          1           0       -2.114436    0.914781   -0.266562
     29          1           0       -3.442842    1.272989   -1.365718
     30          1           0       -3.425101    1.878767    1.632056
     31          1           0       -4.753398    2.236714    0.534284
     32          1           0       -3.257713    3.775403   -0.781785
     33          1           0       -1.921869    3.415422    0.322225
     34          1           0       -3.350200    4.280964    0.913847
 ---------------------------------------------------------------------

 SCF Done:  E(RHF) =  -669.535593659     A.U. after   15 cycles
 E2 =    -0.2091443210D+01 EUMP2 =    -0.67162703686912D+03

 The electronic state is 1-A.
 Alpha  occ. eigenvalues --  -20.60785 -20.60779 -15.85839 -11.31221 -11.27800
 Alpha  occ. eigenvalues --  -11.27795 -11.27550 -11.26812 -11.26798 -11.22524
 Alpha  occ. eigenvalues --  -11.22098 -11.22023 -11.21905 -11.21890 -11.21347
 Alpha  occ. eigenvalues --   -1.59860  -1.39413  -1.19400  -1.09073  -1.08791
 Alpha  occ. eigenvalues --   -1.04806  -1.04149  -0.96570  -0.95622  -0.87586
 Alpha  occ. eigenvalues --   -0.86204  -0.82455  -0.80240  -0.78859  -0.77496
 Alpha  occ. eigenvalues --   -0.72057  -0.71183  -0.70507  -0.65762  -0.65051
 Alpha  occ. eigenvalues --   -0.64789  -0.62188  -0.61516  -0.59958  -0.58179
 Alpha  occ. eigenvalues --   -0.55855  -0.55308  -0.53278  -0.53131  -0.53006
 Alpha  occ. eigenvalues --   -0.52889  -0.50512  -0.48828  -0.48810  -0.48523
 Alpha  occ. eigenvalues --   -0.47281  -0.46391  -0.46305  -0.44814  -0.44393
 Alpha  occ. eigenvalues --   -0.37380  -0.36401
 Alpha virt. eigenvalues --    0.05039   0.11151   0.16482   0.19574   0.22793
 Alpha virt. eigenvalues --    0.23763   0.25171   0.26325   0.27433   0.28281
 Alpha virt. eigenvalues --    0.28629   0.30080   0.31084   0.31306   0.31951

 Mulliken charges:
               1
     1  C   -0.172766
     2  C   -0.218670
     3  C   -0.170793
     4  C    0.158655
     5  C   -0.172448
     6  C   -0.224389
     7  H    0.225745
     8  H    0.223568
     9  H    0.275817
    10  H    0.276396
    11  H    0.232668
    12  N    0.488059
    13  O   -0.460156
    14  O   -0.460398
    15  C   -0.297452
    16  C   -0.304401
    17  C   -0.475758
    18  H    0.146384
    19  H    0.152843
    20  H    0.143065
    21  H    0.156913
    22  H    0.159780
    23  H    0.152248
    24  H    0.161167
    25  C   -0.300386
    26  C   -0.299689
    27  C   -0.476396
    28  H    0.150142
    29  H    0.151761
    30  H    0.150572
    31  H    0.152756
    32  H    0.156671
    33  H    0.157143
    34  H    0.161350
 Sum of Mulliken charges =  -0.00000

 Dipole moment (field-independent basis, Debye):
    X=             -3.7571    Y=             -2.3326    Z=              2.8173  Tot=              5.2435
 Quadrupole moment (field-independent basis, Debye-Ang):
   XX=           -114.4608   YY=            -95.4067   ZZ=            -91.0454
   XY=             -6.4542   XZ=             11.5426   YZ=              0.7104

 Normal termination of Gaussian 16 at Wed May  5 16:10:22 2021.
