 Gaussian 16, Revision A.03,
 Gaussian 16:  EM64L-G16RevA.03 25-Dec-2016

 -------------
 #p 6-31g* mp2
 -------------

 ------------------------------------------------------
 Input file generated by CHIRIPA (05-May-2021 14:53:11)
 ------------------------------------------------------
 Symbolic Z-matrix:
 Charge =  0 Multiplicity = 1

                         Standard orientation:
 ---------------------------------------------------------------------
 Center     Atomic      Atomic             Coordinates (Angstroms)
 Number     Number       Type             X           Y           Z
 ---------------------------------------------------------------------
      1          6           0        3.678200   -0.256126    0.243522
      2          6           0        5.098876   -0.452400    0.773749
      3          6           0        5.341941   -1.865723    1.304060
      4          1           0        2.960563   -0.476822    1.045542
      5          1           0        3.488351   -0.986228   -0.555416
      6          1           0        5.286467    0.278768    1.570504
      7          1           0        5.813219   -0.231025   -0.029572
      8          1           0        5.181939   -2.606474    0.513940
      9          1           0        4.652194   -2.093784    2.123107
     10          1           0        6.363690   -1.983974    1.678099
     11          6           0        3.419845    1.151790   -0.290100
     12          6           0        1.999169    1.348064   -0.820327
     13          6           0        1.756104    2.761388   -1.350637
     14          1           0        3.609694    1.881893    0.508839
     15          1           0        4.137482    1.372487   -1.092120
     16          1           0        1.284826    1.126690   -0.017006
     17          1           0        1.811578    0.616896   -1.617082
     18          1           0        2.445851    2.989448   -2.169685
     19          1           0        1.916106    3.502138   -0.560517
     20          1           0        0.734355    2.879638   -1.724677
     21          6           0       -4.357165    1.123770    1.315768
     22          6           0       -4.825377   -0.049767    0.715678
     23          6           0       -3.956430   -0.873867   -0.005667
     24          6           0       -2.619491   -0.492335   -0.107250
     25          6           0       -2.122816    0.670675    0.479276
     26          6           0       -3.009754    1.479619    1.195863
     27          1           0       -5.039172    1.758064    1.874279
     28          1           0       -5.871283   -0.328620    0.807145
     29          1           0       -4.292269   -1.787865   -0.480258
     30          1           0       -1.074824    0.922344    0.370671
     31          1           0       -2.643343    2.390429    1.660850
     32          7           0       -1.690052   -1.356750   -0.868388
     33          8           0       -0.516750   -0.998412   -0.943171
     34          8           0       -2.152460   -2.376249   -1.375772
 ---------------------------------------------------------------------

 SCF Done:  E(RHF) =  -669.535049100     A.U. after   15 cycles
 E2 =    -0.2092344413D+01 EUMP2 =    -0.67162739351350D+03

 The electronic state is 1-A.
 Alpha  occ. eigenvalues --  -20.60821 -20.60808 -15.85859 -11.31216 -11.27788
 Alpha  occ. eigenvalues --  -11.27766 -11.27531 -11.26803 -11.26790 -11.21065
 Alpha  occ. eigenvalues --  -11.20892 -11.20803 -11.20744 -11.20661 -11.20564
 Alpha  occ. eigenvalues --   -1.59894  -1.39448  -1.19391  -1.08790  -1.07826
 Alpha  occ. eigenvalues --   -1.04792  -1.03000  -0.95633  -0.95474  -0.86491
 Alpha  occ. eigenvalues --   -0.86193  -0.82468  -0.79055  -0.77755  -0.77327
 Alpha  occ. eigenvalues --   -0.72079  -0.71212  -0.70507  -0.65045  -0.64829
 Alpha  occ. eigenvalues --   -0.64454  -0.62164  -0.60397  -0.58828  -0.57069
 Alpha  occ. eigenvalues --   -0.55298  -0.54779  -0.53123  -0.52890  -0.52190
 Alpha  occ. eigenvalues --   -0.51889  -0.49424  -0.48889  -0.48850  -0.47291
 Alpha  occ. eigenvalues --   -0.46055  -0.45138  -0.45081  -0.44803  -0.43235
 Alpha  occ. eigenvalues --   -0.37374  -0.36395
 Alpha virt. eigenvalues --    0.05007   0.11249   0.16501   0.20677   0.23330
 Alpha virt. eigenvalues --    0.24258   0.26234   0.27607   0.27666   0.28434
 Alpha virt. eigenvalues --    0.29309   0.30694   0.31560   0.31973   0.32281

 Mulliken charges:
               1
     1  C   -0.297240
     2  C   -0.299429
     3  C   -0.475187
     4  H    0.149224
     5  H    0.157814
     6  H    0.148534
     7  H    0.150710
     8  H    0.157372
     9  H    0.154423
    10  H    0.157763
    11  C   -0.298423
    12  C   -0.301316
    13  C   -0.477895
    14  H    0.143528
    15  H    0.148219
    16  H    0.146457
    17  H    0.172386
    18  H    0.156362
    19  H    0.148853
    20  H    0.156456
    21  C   -0.170205
    22  C   -0.219190
    23  C   -0.169580
    24  C    0.153691
    25  C   -0.175429
    26  C   -0.223055
    27  H    0.225751
    28  H    0.223523
    29  H    0.275702
    30  H    0.290182
    31  H    0.224327
    32  N    0.490644
    33  O   -0.464773
    34  O   -0.460198
 Sum of Mulliken charges =  -0.00000

 Dipole moment (field-independent basis, Debye):
    X=             -3.3622    Y=              2.8603    Z=              2.5545  Tot=              5.1001
 Quadrupole moment (field-independent basis, Debye-Ang):
   XX=            -75.5514   YY=            -97.6373   ZZ=            -95.1817
   XY=             -3.9179   XZ=             -6.8664   YZ=             -0.0551

 Normal termination of Gaussian 16 at Thu May  6 05:39:26 2021.
