 Gaussian 16, Revision A.03,
 Gaussian 16:  EM64L-G16RevA.03 25-Dec-2016

 -------------
 #p 6-31g* mp2
 -------------

 ------------------------------------------------------
 Input file generated by CHIRIPA (05-May-2021 14:53:18)
 ------------------------------------------------------
 Symbolic Z-matrix:
 Charge =  0 Multiplicity = 1

                         Standard orientation:
 ---------------------------------------------------------------------
 Center     Atomic      Atomic             Coordinates (Angstroms)
 Number     Number       Type             X           Y           Z
 ---------------------------------------------------------------------
      1          6           0        2.100149    1.025730   -0.062453
      2          6           0        2.053945    2.459008   -0.593080
      3          6           0        0.861142    3.250228   -0.055506
      4          1           0        1.166764    0.512012   -0.330467
      5          1           0        2.139625    1.049687    1.035391
      6          1           0        2.015964    2.432380   -1.689649
      7          1           0        2.987629    2.969315   -0.323937
      8          1           0        0.897145    3.306498    1.037261
      9          1           0       -0.080041    2.766512   -0.336211
     10          1           0        0.847586    4.271974   -0.447565
     11          6           0        3.286991    0.222060   -0.590892
     12          6           0        3.333195   -1.211218   -0.060265
     13          6           0        4.525998   -2.002438   -0.597839
     14          1           0        3.247515    0.198103   -1.688736
     15          1           0        4.220376    0.735778   -0.322878
     16          1           0        2.399511   -1.721525   -0.329408
     17          1           0        3.371176   -1.184590    1.036304
     18          1           0        5.467181   -1.518722   -0.317134
     19          1           0        4.489995   -2.058708   -1.690606
     20          1           0        4.539554   -3.024184   -0.205780
     21          6           0       -0.354543   -0.772804    2.050387
     22          6           0       -1.329411    0.222497    2.175010
     23          6           0       -2.303803    0.389703    1.186501
     24          6           0       -2.273516   -0.459828    0.081662
     25          6           0       -1.315299   -1.460700   -0.071188
     26          6           0       -0.350605   -1.609750    0.929661
     27          1           0        0.398622   -0.895641    2.823077
     28          1           0       -1.334906    0.873930    3.044292
     29          1           0       -3.070043    1.152087    1.257670
     30          1           0       -1.335513   -2.094818   -0.949200
     31          1           0        0.405280   -2.383567    0.830224
     32          7           0       -3.299928   -0.292425   -0.971360
     33          8           0       -3.251554   -1.053748   -1.935042
     34          8           0       -4.133368    0.596939   -0.813097
 ---------------------------------------------------------------------

 SCF Done:  E(RHF) =  -669.533693233     A.U. after   15 cycles
 E2 =    -0.2095530071D+01 EUMP2 =    -0.67162922330450D+03

 The electronic state is 1-A.
 Alpha  occ. eigenvalues --  -20.60817 -20.60812 -15.85872 -11.31259 -11.27815
 Alpha  occ. eigenvalues --  -11.27791 -11.27489 -11.26807 -11.26739 -11.22383
 Alpha  occ. eigenvalues --  -11.21853 -11.21818 -11.21693 -11.21597 -11.21271
 Alpha  occ. eigenvalues --   -1.59894  -1.39446  -1.19419  -1.08930  -1.08741
 Alpha  occ. eigenvalues --   -1.04818  -1.03980  -0.96396  -0.95633  -0.87421
 Alpha  occ. eigenvalues --   -0.86209  -0.82469  -0.80101  -0.78694  -0.77509
 Alpha  occ. eigenvalues --   -0.72085  -0.71220  -0.70501  -0.65537  -0.65054
 Alpha  occ. eigenvalues --   -0.64806  -0.62188  -0.61362  -0.59784  -0.58032
 Alpha  occ. eigenvalues --   -0.55681  -0.55294  -0.53393  -0.53097  -0.52904
 Alpha  occ. eigenvalues --   -0.52713  -0.50341  -0.48859  -0.48842  -0.48366
 Alpha  occ. eigenvalues --   -0.47131  -0.46192  -0.46025  -0.44848  -0.44205
 Alpha  occ. eigenvalues --   -0.37287  -0.36343
 Alpha virt. eigenvalues --    0.04975   0.11124   0.16376   0.20405   0.22847
 Alpha virt. eigenvalues --    0.23619   0.25355   0.26276   0.27444   0.28145
 Alpha virt. eigenvalues --    0.29139   0.29774   0.31139   0.31561   0.31957

 Mulliken charges:
               1
     1  C   -0.301442
     2  C   -0.300029
     3  C   -0.475402
     4  H    0.160606
     5  H    0.140965
     6  H    0.154250
     7  H    0.150745
     8  H    0.149445
     9  H    0.157928
    10  H    0.161869
    11  C   -0.297972
    12  C   -0.301649
    13  C   -0.475420
    14  H    0.152323
    15  H    0.150392
    16  H    0.146622
    17  H    0.145203
    18  H    0.157678
    19  H    0.158425
    20  H    0.158590
    21  C   -0.166512
    22  C   -0.217081
    23  C   -0.171104
    24  C    0.158643
    25  C   -0.174908
    26  C   -0.217460
    27  H    0.225787
    28  H    0.223744
    29  H    0.276157
    30  H    0.275437
    31  H    0.226686
    32  N    0.488019
    33  O   -0.460425
    34  O   -0.460107
 Sum of Mulliken charges =  -0.00000

 Dipole moment (field-independent basis, Debye):
    X=              3.5836    Y=             -0.5793    Z=              3.6754  Tot=              5.1659
 Quadrupole moment (field-independent basis, Debye-Ang):
   XX=           -111.4501   YY=            -92.2572   ZZ=            -92.7015
   XY=             -1.3938   XZ=             -8.9712   YZ=              0.4330

 Normal termination of Gaussian 16 at Thu May  6 10:44:43 2021.
