 Gaussian 16, Revision A.03,
 Gaussian 16:  EM64L-G16RevA.03 25-Dec-2016

 -------------
 #p 6-31g* mp2
 -------------

 ------------------------------------------------------
 Input file generated by CHIRIPA (05-May-2021 14:55:19)
 ------------------------------------------------------
 Symbolic Z-matrix:
 Charge =  0 Multiplicity = 1

                         Standard orientation:
 ---------------------------------------------------------------------
 Center     Atomic      Atomic             Coordinates (Angstroms)
 Number     Number       Type             X           Y           Z
 ---------------------------------------------------------------------
      1          6           0       -2.667117   -1.671496    1.586038
      2          6           0       -2.721777   -1.753128    0.190735
      3          6           0       -2.526424   -0.613632   -0.595352
      4          6           0       -2.277458    0.596714    0.049914
      5          6           0       -2.216914    0.710253    1.437982
      6          6           0       -2.415304   -0.442233    2.204118
      7          1           0       -2.820052   -2.561730    2.188940
      8          1           0       -2.917161   -2.706458   -0.291999
      9          1           0       -2.563371   -0.648410   -1.677407
     10          1           0       -2.020272    1.674612    1.890488
     11          1           0       -2.372291   -0.375858    3.287534
     12          7           0       -2.069038    1.809924   -0.771720
     13          8           0       -1.851280    2.864393   -0.179003
     14          8           0       -2.127384    1.683397   -1.992877
     15          6           0        3.474442   -0.360590    0.307003
     16          6           0        4.258511    0.929889    0.066406
     17          6           0        5.285596    1.210861    1.163649
     18          1           0        2.966630   -0.297743    1.279177
     19          1           0        4.178252   -1.201610    0.375785
     20          1           0        3.553329    1.768029   -0.003282
     21          1           0        4.764361    0.864041   -0.905395
     22          1           0        6.011549    0.394052    1.230092
     23          1           0        4.793637    1.303176    2.137331
     24          1           0        5.834670    2.137972    0.971709
     25          6           0        2.443785   -0.655123   -0.781446
     26          6           0        1.659717   -1.945601   -0.540849
     27          6           0        0.632632   -2.226573   -1.638093
     28          1           0        1.739975    0.185898   -0.850228
     29          1           0        2.951598   -0.717970   -1.753620
     30          1           0        1.153867   -1.879753    0.430951
     31          1           0        2.364899   -2.783742   -0.471161
     32          1           0        1.124591   -2.318888   -2.611774
     33          1           0       -0.093322   -1.409764   -1.704536
     34          1           0        0.083557   -3.153685   -1.446153
 ---------------------------------------------------------------------

 SCF Done:  E(RHF) =  -669.534783049     A.U. after   15 cycles
 E2 =    -0.2093125872D+01 EUMP2 =    -0.67162790892183D+03

 The electronic state is 1-A.
 Alpha  occ. eigenvalues --  -20.60849 -20.60843 -15.85901 -11.31262 -11.27829
 Alpha  occ. eigenvalues --  -11.27818 -11.27576 -11.26840 -11.26823 -11.21680
 Alpha  occ. eigenvalues --  -11.21443 -11.21340 -11.21280 -11.21197 -11.20959
 Alpha  occ. eigenvalues --   -1.59925  -1.39477  -1.19444  -1.08833  -1.08383
 Alpha  occ. eigenvalues --   -1.04849  -1.03506  -0.95979  -0.95664  -0.87000
 Alpha  occ. eigenvalues --   -0.86240  -0.82496  -0.79579  -0.78182  -0.77542
 Alpha  occ. eigenvalues --   -0.72116  -0.71254  -0.70553  -0.65095  -0.65019
 Alpha  occ. eigenvalues --   -0.64837  -0.62206  -0.60917  -0.59351  -0.57576
 Alpha  occ. eigenvalues --   -0.55402  -0.55280  -0.53146  -0.52950  -0.52663
 Alpha  occ. eigenvalues --   -0.52355  -0.49895  -0.48875  -0.48872  -0.47887
 Alpha  occ. eigenvalues --   -0.46604  -0.45728  -0.45645  -0.44873  -0.43769
 Alpha  occ. eigenvalues --   -0.37415  -0.36355
 Alpha virt. eigenvalues --    0.04976   0.11105   0.16457   0.21102   0.22877
 Alpha virt. eigenvalues --    0.24271   0.26428   0.26729   0.27364   0.28077
 Alpha virt. eigenvalues --    0.28841   0.29817   0.31441   0.31766   0.32160

 Mulliken charges:
               1
     1  C   -0.171641
     2  C   -0.214065
     3  C   -0.173311
     4  C    0.158808
     5  C   -0.171491
     6  C   -0.218682
     7  H    0.226096
     8  H    0.224462
     9  H    0.276913
    10  H    0.275681
    11  H    0.223705
    12  N    0.488092
    13  O   -0.460233
    14  O   -0.460570
    15  C   -0.297972
    16  C   -0.300610
    17  C   -0.475571
    18  H    0.147483
    19  H    0.148206
    20  H    0.156228
    21  H    0.152636
    22  H    0.153998
    23  H    0.153932
    24  H    0.161304
    25  C   -0.298900
    26  C   -0.299775
    27  C   -0.476929
    28  H    0.153064
    29  H    0.151167
    30  H    0.150668
    31  H    0.150764
    32  H    0.156804
    33  H    0.158828
    34  H    0.150915
 Sum of Mulliken charges =  -0.00000

 Dipole moment (field-independent basis, Debye):
    X=             -0.7742    Y=             -4.2042    Z=              2.8860  Tot=              5.1579
 Quadrupole moment (field-independent basis, Debye-Ang):
   XX=            -92.1851   YY=            -98.9617   ZZ=            -91.4496
   XY=              9.4456   XZ=             -7.1789   YZ=              3.9940

 Normal termination of Gaussian 16 at Thu May  6 06:05:40 2021.
