 Gaussian 16, Revision A.03,
 Gaussian 16:  EM64L-G16RevA.03 25-Dec-2016

 -------------
 #p 6-31g* mp2
 -------------

 ------------------------------------------------------
 Input file generated by CHIRIPA (05-May-2021 14:53:13)
 ------------------------------------------------------
 Symbolic Z-matrix:
 Charge =  0 Multiplicity = 1

                         Standard orientation:
 ---------------------------------------------------------------------
 Center     Atomic      Atomic             Coordinates (Angstroms)
 Number     Number       Type             X           Y           Z
 ---------------------------------------------------------------------
      1          6           0       -3.241928    0.064433   -0.203776
      2          6           0       -2.275869   -1.117875   -0.120942
      3          6           0       -0.814726   -0.700332   -0.289794
      4          1           0       -3.112568    0.568344   -1.171394
      5          1           0       -2.977994    0.799467    0.569179
      6          1           0       -2.542407   -1.851098   -0.892925
      7          1           0       -2.407679   -1.619145    0.846514
      8          1           0       -0.525808    0.013871    0.488051
      9          1           0       -0.661302   -0.219400   -1.261271
     10          1           0       -0.141454   -1.560938   -0.227181
     11          6           0       -4.706407   -0.337008   -0.036812
     12          6           0       -5.672466    0.845301   -0.119646
     13          6           0       -7.133609    0.427757    0.049206
     14          1           0       -4.970342   -1.072041   -0.809767
     15          1           0       -4.835767   -0.840918    0.930806
     16          1           0       -5.540657    1.346571   -1.087102
     17          1           0       -5.405928    1.578524    0.652337
     18          1           0       -7.287033   -0.053174    1.020683
     19          1           0       -7.422527   -0.286445   -0.728639
     20          1           0       -7.806882    1.288364   -0.013407
     21          6           0        2.984173   -2.412786    0.162485
     22          6           0        3.615563   -1.771073   -0.908063
     23          6           0        3.688336   -0.375756   -0.956440
     24          6           0        3.116482    0.350027    0.087357
     25          6           0        2.480650   -0.260165    1.167483
     26          6           0        2.419727   -1.656617    1.195021
     27          1           0        2.932244   -3.497143    0.191971
     28          1           0        4.054797   -2.355770   -1.711335
     29          1           0        4.171169    0.146769   -1.773299
     30          1           0        2.052040    0.349595    1.953552
     31          1           0        1.928756   -2.152283    2.027672
     32          7           0        3.187251    1.827788    0.047172
     33          8           0        2.675645    2.444489    0.979148
     34          8           0        3.752984    2.341375   -0.915537
 ---------------------------------------------------------------------

 SCF Done:  E(RHF) =  -669.534329059     A.U. after   15 cycles
 E2 =    -0.2092819203D+01 EUMP2 =    -0.67162714826256D+03

 The electronic state is 1-A.
 Alpha  occ. eigenvalues --  -20.60758 -20.60753 -15.85811 -11.31175 -11.27738
 Alpha  occ. eigenvalues --  -11.27727 -11.27491 -11.26766 -11.26738 -11.21719
 Alpha  occ. eigenvalues --  -11.21589 -11.21434 -11.21373 -11.21086 -11.21073
 Alpha  occ. eigenvalues --   -1.59832  -1.39386  -1.19353  -1.08752  -1.08471
 Alpha  occ. eigenvalues --   -1.04764  -1.03576  -0.96024  -0.95583  -0.87042
 Alpha  occ. eigenvalues --   -0.86161  -0.82416  -0.79649  -0.78281  -0.77461
 Alpha  occ. eigenvalues --   -0.72031  -0.71152  -0.70470  -0.65109  -0.65006
 Alpha  occ. eigenvalues --   -0.64768  -0.62113  -0.60983  -0.59431  -0.57642
 Alpha  occ. eigenvalues --   -0.55340  -0.55255  -0.53526  -0.52861  -0.52441
 Alpha  occ. eigenvalues --   -0.52251  -0.49961  -0.48789  -0.48785  -0.47965
 Alpha  occ. eigenvalues --   -0.46688  -0.45822  -0.45749  -0.44790  -0.43827
 Alpha  occ. eigenvalues --   -0.37314  -0.36250
 Alpha virt. eigenvalues --    0.05068   0.11199   0.16549   0.21221   0.22848
 Alpha virt. eigenvalues --    0.24243   0.26473   0.27009   0.27440   0.28053
 Alpha virt. eigenvalues --    0.28514   0.30563   0.31342   0.31663   0.31907

 Mulliken charges:
               1
     1  C   -0.298604
     2  C   -0.300025
     3  C   -0.477459
     4  H    0.151404
     5  H    0.151380
     6  H    0.150519
     7  H    0.147733
     8  H    0.153469
     9  H    0.156915
    10  H    0.160253
    11  C   -0.298128
    12  C   -0.299850
    13  C   -0.475713
    14  H    0.148761
    15  H    0.148385
    16  H    0.152847
    17  H    0.153015
    18  H    0.154630
    19  H    0.154722
    20  H    0.160871
    21  C   -0.172041
    22  C   -0.217759
    23  C   -0.171192
    24  C    0.159775
    25  C   -0.166068
    26  C   -0.217336
    27  H    0.225515
    28  H    0.223365
    29  H    0.275489
    30  H    0.274809
    31  H    0.223463
    32  N    0.488155
    33  O   -0.460862
    34  O   -0.460435
 Sum of Mulliken charges =  -0.00000

 Dipole moment (field-independent basis, Debye):
    X=             -0.1949    Y=             -5.1697    Z=              0.1320  Tot=              5.1751
 Quadrupole moment (field-independent basis, Debye-Ang):
   XX=            -97.0445   YY=            -99.1633   ZZ=            -90.1332
   XY=            -16.9755   XZ=             -1.8407   YZ=             -0.0373

 Normal termination of Gaussian 16 at Thu May  6 04:09:47 2021.
