 Gaussian 16, Revision A.03,
 Gaussian 16:  EM64L-G16RevA.03 25-Dec-2016

 -------------
 #p 6-31g* mp2
 -------------

 ------------------------------------------------------
 Input file generated by CHIRIPA (05-May-2021 14:55:20)
 ------------------------------------------------------
 Symbolic Z-matrix:
 Charge =  0 Multiplicity = 1

                         Standard orientation:
 ---------------------------------------------------------------------
 Center     Atomic      Atomic             Coordinates (Angstroms)
 Number     Number       Type             X           Y           Z
 ---------------------------------------------------------------------
      1          6           0       -2.675289   -2.215729   -0.598727
      2          6           0       -1.790546   -1.133427   -0.647451
      3          6           0       -2.241709    0.164576   -0.390179
      4          6           0       -3.590148    0.344829   -0.086020
      5          6           0       -4.496200   -0.713092   -0.029784
      6          6           0       -4.022916   -2.002483   -0.290592
      7          1           0       -2.316222   -3.220703   -0.799956
      8          1           0       -0.743428   -1.296057   -0.886490
      9          1           0       -1.578444    1.020461   -0.421114
     10          1           0       -5.534403   -0.519584    0.211274
     11          1           0       -4.712291   -2.841126   -0.252040
     12          7           0       -4.079483    1.714407    0.188214
     13          8           0       -5.272202    1.846709    0.453839
     14          8           0       -3.261041    2.629649    0.132341
     15          6           0        4.853532    0.458133   -0.114927
     16          6           0        6.376822    0.351801   -0.035766
     17          6           0        7.085617    1.580918   -0.605567
     18          1           0        4.556314    0.601650   -1.162785
     19          1           0        4.526868    1.355642    0.428362
     20          1           0        6.700402   -0.545993   -0.577871
     21          1           0        6.670437    0.208328    1.012004
     22          1           0        6.791400    2.482998   -0.059406
     23          1           0        6.821535    1.724390   -1.658315
     24          1           0        8.173725    1.483734   -0.538949
     25          6           0        4.130786   -0.763043    0.450842
     26          6           0        2.607496   -0.656710    0.371683
     27          6           0        1.898702   -1.885829    0.941483
     28          1           0        4.457451   -1.660551   -0.092446
     29          1           0        4.428005   -0.906560    1.498702
     30          1           0        2.313881   -0.513238   -0.676087
     31          1           0        2.283916    0.241084    0.913788
     32          1           0        2.162783   -2.029300    1.994230
     33          1           0        2.192919   -2.787907    0.395323
     34          1           0        0.810594   -1.788643    0.874866
 ---------------------------------------------------------------------

 SCF Done:  E(RHF) =  -669.535508653     A.U. after   15 cycles
 E2 =    -0.2091206434D+01 EUMP2 =    -0.67162671508615D+03

 The electronic state is 1-A.
 Alpha  occ. eigenvalues --  -20.60759 -20.60754 -15.85812 -11.31183 -11.27762
 Alpha  occ. eigenvalues --  -11.27753 -11.27501 -11.26769 -11.26733 -11.22358
 Alpha  occ. eigenvalues --  -11.21930 -11.21911 -11.21886 -11.21764 -11.21301
 Alpha  occ. eigenvalues --   -1.59834  -1.39387  -1.19361  -1.08936  -1.08752
 Alpha  occ. eigenvalues --   -1.04766  -1.04058  -0.96503  -0.95585  -0.87522
 Alpha  occ. eigenvalues --   -0.86158  -0.82417  -0.80133  -0.78717  -0.77466
 Alpha  occ. eigenvalues --   -0.72031  -0.71157  -0.70463  -0.65565  -0.65010
 Alpha  occ. eigenvalues --   -0.64802  -0.62166  -0.61442  -0.59873  -0.58106
 Alpha  occ. eigenvalues --   -0.55772  -0.55258  -0.53369  -0.53061  -0.53000
 Alpha  occ. eigenvalues --   -0.52610  -0.50429  -0.48790  -0.48785  -0.48439
 Alpha  occ. eigenvalues --   -0.47162  -0.46265  -0.46164  -0.44792  -0.44300
 Alpha  occ. eigenvalues --   -0.37335  -0.36355
 Alpha virt. eigenvalues --    0.05070   0.11172   0.16500   0.20097   0.22633
 Alpha virt. eigenvalues --    0.23806   0.25959   0.26433   0.27111   0.28320
 Alpha virt. eigenvalues --    0.28864   0.30335   0.30952   0.31384   0.32010

 Mulliken charges:
               1
     1  C   -0.172152
     2  C   -0.221443
     3  C   -0.172465
     4  C    0.158535
     5  C   -0.170627
     6  C   -0.218518
     7  H    0.226249
     8  H    0.229805
     9  H    0.276184
    10  H    0.275675
    11  H    0.223472
    12  N    0.488118
    13  O   -0.460495
    14  O   -0.460352
    15  C   -0.299043
    16  C   -0.300102
    17  C   -0.476076
    18  H    0.149542
    19  H    0.151662
    20  H    0.151826
    21  H    0.152794
    22  H    0.156486
    23  H    0.155485
    24  H    0.161225
    25  C   -0.298182
    26  C   -0.302138
    27  C   -0.482344
    28  H    0.149741
    29  H    0.152120
    30  H    0.146627
    31  H    0.155974
    32  H    0.161106
    33  H    0.154322
    34  H    0.156986
 Sum of Mulliken charges =  -0.00000

 Dipole moment (field-independent basis, Debye):
    X=              1.8479    Y=             -4.8032    Z=             -0.9229  Tot=              5.2285
 Quadrupole moment (field-independent basis, Debye-Ang):
   XX=           -102.6576   YY=            -98.5007   ZZ=            -94.5629
   XY=             19.5973   XZ=              2.9664   YZ=              0.5008

 Normal termination of Gaussian 16 at Wed May  5 22:12:02 2021.
