 Gaussian 16, Revision A.03,
 Gaussian 16:  EM64L-G16RevA.03 25-Dec-2016

 -------------
 #p 6-31g* mp2
 -------------

 ------------------------------------------------------
 Input file generated by CHIRIPA (05-May-2021 14:55:22)
 ------------------------------------------------------
 Symbolic Z-matrix:
 Charge =  0 Multiplicity = 1

                         Standard orientation:
 ---------------------------------------------------------------------
 Center     Atomic      Atomic             Coordinates (Angstroms)
 Number     Number       Type             X           Y           Z
 ---------------------------------------------------------------------
      1          6           0       -0.591965   -1.691861    1.271510
      2          6           0       -1.419938   -0.848829    2.020027
      3          6           0       -2.417033   -0.094563    1.394381
      4          6           0       -2.558992   -0.208149    0.012268
      5          6           0       -1.749783   -1.039193   -0.760930
      6          6           0       -0.759235   -1.784190   -0.114136
      7          1           0        0.180059   -2.274193    1.765742
      8          1           0       -1.292319   -0.775127    3.096283
      9          1           0       -3.071894    0.565929    1.949651
     10          1           0       -1.901069   -1.091615   -1.832277
     11          1           0       -0.117674   -2.438078   -0.697981
     12          7           0       -3.611106    0.585452   -0.661270
     13          8           0       -3.715852    0.467614   -1.880195
     14          8           0       -4.311085    1.310289    0.042490
     15          6           0        2.848443    1.024772    0.280579
     16          6           0        3.000539    2.377694   -0.415449
     17          6           0        2.586274    3.550109    0.474282
     18          1           0        1.803654    0.896862    0.595221
     19          1           0        3.453646    1.022009    1.197702
     20          1           0        2.396317    2.377409   -1.331709
     21          1           0        4.045047    2.502314   -0.728641
     22          1           0        3.196527    3.578685    1.382784
     23          1           0        1.538431    3.453070    0.776289
     24          1           0        2.702972    4.507505   -0.043052
     25          6           0        3.258670   -0.157076   -0.596163
     26          6           0        3.106574   -1.509997    0.099865
     27          6           0        3.520838   -2.682412   -0.789866
     28          1           0        2.653466   -0.154313   -1.513286
     29          1           0        4.303459   -0.029166   -0.910806
     30          1           0        2.062066   -1.634617    0.413057
     31          1           0        3.710795   -1.509713    1.016125
     32          1           0        4.568681   -2.585374   -1.091873
     33          1           0        2.910585   -2.710989   -1.698368
     34          1           0        3.404140   -3.639809   -0.272532
 ---------------------------------------------------------------------

 SCF Done:  E(RHF) =  -669.534509591     A.U. after   15 cycles
 E2 =    -0.2093645461D+01 EUMP2 =    -0.67162815505180D+03

 The electronic state is 1-A.
 Alpha  occ. eigenvalues --  -20.60832 -20.60827 -15.85887 -11.31278 -11.27850
 Alpha  occ. eigenvalues --  -11.27845 -11.27584 -11.26866 -11.26855 -11.22397
 Alpha  occ. eigenvalues --  -11.21972 -11.21961 -11.21870 -11.21757 -11.21262
 Alpha  occ. eigenvalues --   -1.59907  -1.39460  -1.19462  -1.08995  -1.08825
 Alpha  occ. eigenvalues --   -1.04866  -1.04077  -0.96511  -0.95685  -0.87530
 Alpha  occ. eigenvalues --   -0.86267  -0.82510  -0.80180  -0.78745  -0.77547
 Alpha  occ. eigenvalues --   -0.72106  -0.71232  -0.70589  -0.65703  -0.65100
 Alpha  occ. eigenvalues --   -0.64814  -0.62245  -0.61417  -0.59917  -0.58115
 Alpha  occ. eigenvalues --   -0.55794  -0.55376  -0.53293  -0.53145  -0.52948
 Alpha  occ. eigenvalues --   -0.52925  -0.50458  -0.48865  -0.48859  -0.48467
 Alpha  occ. eigenvalues --   -0.47215  -0.46282  -0.46174  -0.44860  -0.44302
 Alpha  occ. eigenvalues --   -0.37362  -0.36453
 Alpha virt. eigenvalues --    0.04953   0.11068   0.16380   0.19998   0.22753
 Alpha virt. eigenvalues --    0.23805   0.25981   0.26376   0.27084   0.28043
 Alpha virt. eigenvalues --    0.28943   0.29895   0.31079   0.31609   0.32210

 Mulliken charges:
               1
     1  C   -0.170793
     2  C   -0.220206
     3  C   -0.171143
     4  C    0.158314
     5  C   -0.172275
     6  C   -0.218697
     7  H    0.228383
     8  H    0.224357
     9  H    0.276071
    10  H    0.275977
    11  H    0.227137
    12  N    0.488093
    13  O   -0.460192
    14  O   -0.460119
    15  C   -0.301543
    16  C   -0.300165
    17  C   -0.476152
    18  H    0.153097
    19  H    0.148026
    20  H    0.154170
    21  H    0.152096
    22  H    0.154087
    23  H    0.156548
    24  H    0.162449
    25  C   -0.296372
    26  C   -0.308333
    27  C   -0.477209
    28  H    0.149526
    29  H    0.151868
    30  H    0.148810
    31  H    0.152773
    32  H    0.160971
    33  H    0.152540
    34  H    0.157908
 Sum of Mulliken charges =  -0.00000

 Dipole moment (field-independent basis, Debye):
    X=              3.7014    Y=             -2.7143    Z=              2.3708  Tot=              5.1661
 Quadrupole moment (field-independent basis, Debye-Ang):
   XX=           -113.1110   YY=            -94.3781   ZZ=            -91.0377
   XY=              6.2698   XZ=             -7.1356   YZ=              0.8871

 Normal termination of Gaussian 16 at Thu May  6 19:11:21 2021.
