 Gaussian 16, Revision A.03,
 Gaussian 16:  EM64L-G16RevA.03 25-Dec-2016

 -------------
 #p 6-31g* mp2
 -------------

 ------------------------------------------------------
 Input file generated by CHIRIPA (05-May-2021 14:51:09)
 ------------------------------------------------------
 Symbolic Z-matrix:
 Charge =  0 Multiplicity = 1

                         Standard orientation:
 ---------------------------------------------------------------------
 Center     Atomic      Atomic             Coordinates (Angstroms)
 Number     Number       Type             X           Y           Z
 ---------------------------------------------------------------------
      1          6           0        2.975339   -0.077978   -0.304997
      2          6           0        2.775158    1.372985    0.133885
      3          6           0        3.769946    2.331439   -0.521521
      4          1           0        4.000681   -0.389459   -0.062925
      5          1           0        2.879716   -0.139674   -1.397903
      6          1           0        2.869758    1.431695    1.225773
      7          1           0        1.750114    1.680987   -0.109086
      8          1           0        3.671867    2.302418   -1.611538
      9          1           0        4.797873    2.051709   -0.269095
     10          1           0        3.608890    3.363179   -0.193748
     11          6           0        1.988314   -1.048178    0.341704
     12          6           0        2.188494   -2.499142   -0.097178
     13          6           0        1.193706   -3.457596    0.558228
     14          1           0        2.083936   -0.986482    1.434611
     15          1           0        0.962972   -0.736697    0.099632
     16          1           0        3.213539   -2.807143    0.145793
     17          1           0        2.093894   -2.557851   -1.189066
     18          1           0        0.165779   -3.177866    0.305802
     19          1           0        1.291786   -3.428574    1.648246
     20          1           0        1.354762   -4.489335    0.230455
     21          6           0       -2.323153   -0.180583    0.053925
     22          6           0       -3.432236   -1.091323   -0.473777
     23          6           0       -3.100108   -2.576084   -0.322223
     24          1           0       -1.388771   -0.404973   -0.478545
     25          1           0       -2.142315   -0.410558    1.113077
     26          1           0       -3.611884   -0.858746   -1.531251
     27          1           0       -4.364132   -0.864605    0.059877
     28          1           0       -2.941255   -2.829767    0.730873
     29          1           0       -2.184733   -2.823874   -0.869296
     30          1           0       -3.906426   -3.209022   -0.705761
     31          6           0       -2.640500    1.306739   -0.090632
     32          6           0       -1.531416    2.217479    0.437070
     33          6           0       -1.863544    3.702240    0.285515
     34          1           0       -2.821338    1.536714   -1.149784
     35          1           0       -3.574881    1.531129    0.441838
     36          1           0       -0.599521    1.990761   -0.096584
     37          1           0       -1.351769    1.984902    1.494544
     38          1           0       -2.778919    3.950030    0.832588
     39          1           0       -2.022397    3.955924   -0.767581
     40          1           0       -1.057226    4.335178    0.669054
 ---------------------------------------------------------------------

 SCF Done:  E(RHF) =  -470.732591905     A.U. after   11 cycles
 E2 =    -0.1584964810D+01 EUMP2 =    -0.47231755671472D+03

 The electronic state is 1-A.
 Alpha  occ. eigenvalues --  -11.21661 -11.21626 -11.21550 -11.21547 -11.21463
 Alpha  occ. eigenvalues --  -11.21402 -11.21351 -11.21273 -11.21128 -11.21099
 Alpha  occ. eigenvalues --  -11.21052 -11.20974  -1.08503  -1.08373  -1.03593
 Alpha  occ. eigenvalues --   -1.03473  -0.96043  -0.95919  -0.87069  -0.86925
 Alpha  occ. eigenvalues --   -0.79735  -0.79463  -0.78485  -0.78034  -0.65274
 Alpha  occ. eigenvalues --   -0.64882  -0.61120  -0.60777  -0.59439  -0.59248
 Alpha  occ. eigenvalues --   -0.57752  -0.57459  -0.55418  -0.55130  -0.52727
 Alpha  occ. eigenvalues --   -0.52622  -0.52573  -0.52232  -0.50090  -0.49731
 Alpha  occ. eigenvalues --   -0.48258  -0.47666  -0.46881  -0.46620  -0.46268
 Alpha  occ. eigenvalues --   -0.45792  -0.45679  -0.44890  -0.43830  -0.43727
 Alpha virt. eigenvalues --    0.20461   0.22168   0.23566   0.24651   0.25339
 Alpha virt. eigenvalues --    0.26258   0.26763   0.27223   0.28946   0.29303
 Alpha virt. eigenvalues --    0.31257   0.31481   0.31664   0.31893   0.32222

 Mulliken charges:
               1
     1  C   -0.297292
     2  C   -0.307863
     3  C   -0.475046
     4  H    0.149573
     5  H    0.148420
     6  H    0.151977
     7  H    0.159642
     8  H    0.154701
     9  H    0.155174
    10  H    0.160030
    11  C   -0.306822
    12  C   -0.299012
    13  C   -0.481298
    14  H    0.149341
    15  H    0.157976
    16  H    0.151763
    17  H    0.150737
    18  H    0.161175
    19  H    0.154757
    20  H    0.159777
    21  C   -0.304308
    22  C   -0.299319
    23  C   -0.478937
    24  H    0.154047
    25  H    0.150676
    26  H    0.151816
    27  H    0.152398
    28  H    0.156546
    29  H    0.157441
    30  H    0.160834
    31  C   -0.297417
    32  C   -0.307542
    33  C   -0.475462
    34  H    0.149149
    35  H    0.150039
    36  H    0.158678
    37  H    0.152682
    38  H    0.155410
    39  H    0.154950
    40  H    0.160611
 Sum of Mulliken charges =  -0.00000

 Dipole moment (field-independent basis, Debye):
    X=             -0.0721    Y=              0.0160    Z=              0.0185  Tot=              0.0761
 Quadrupole moment (field-independent basis, Debye-Ang):
   XX=            -84.6514   YY=            -86.7130   ZZ=            -83.4565
   XY=             -0.4302   XZ=              0.3553   YZ=              0.2663

 Normal termination of Gaussian 16 at Wed May  5 22:58:28 2021.
