 Gaussian 16, Revision A.03,
 Gaussian 16:  EM64L-G16RevA.03 25-Dec-2016

 -------------
 #p 6-31g* mp2
 -------------

 ------------------------------------------------------
 Input file generated by CHIRIPA (05-May-2021 14:55:24)
 ------------------------------------------------------
 Symbolic Z-matrix:
 Charge =  0 Multiplicity = 1

                         Standard orientation:
 ---------------------------------------------------------------------
 Center     Atomic      Atomic             Coordinates (Angstroms)
 Number     Number       Type             X           Y           Z
 ---------------------------------------------------------------------
      1          6           0       -1.736513    1.524336    1.364676
      2          6           0       -2.847426    2.205573    0.856437
      3          6           0       -3.820391    1.525680    0.117767
      4          6           0       -3.649965    0.158515   -0.094613
      5          6           0       -2.554277   -0.548198    0.398655
      6          6           0       -1.593735    0.152043    1.134568
      7          1           0       -0.985515    2.060397    1.937422
      8          1           0       -2.960915    3.271306    1.033580
      9          1           0       -4.690256    2.028383   -0.287256
     10          1           0       -2.468603   -1.610655    0.205617
     11          1           0       -0.732015   -0.379602    1.528061
     12          7           0       -4.673423   -0.572028   -0.875151
     13          8           0       -4.500096   -1.776433   -1.048368
     14          8           0       -5.629558    0.073609   -1.298939
     15          6           0        3.710437   -0.450136    0.093652
     16          6           0        3.373189   -1.804975    0.717077
     17          6           0        1.877763   -1.976305    0.985667
     18          1           0        3.362225    0.350208    0.760841
     19          1           0        3.152885   -0.337998   -0.846538
     20          1           0        3.932273   -1.915108    1.655114
     21          1           0        3.722416   -2.602188    0.048415
     22          1           0        1.307170   -1.892809    0.055047
     23          1           0        1.518219   -1.201825    1.670875
     24          1           0        1.659087   -2.951708    1.431345
     25          6           0        5.201657   -0.263894   -0.180766
     26          6           0        5.538904    1.090945   -0.804191
     27          6           0        7.034331    1.262275   -1.072781
     28          1           0        5.759209   -0.376031    0.759424
     29          1           0        5.549869   -1.064238   -0.847956
     30          1           0        5.189677    1.888158   -0.135529
     31          1           0        4.979822    1.201077   -1.742227
     32          1           0        7.393875    0.487796   -1.757989
     33          1           0        7.604923    1.178779   -0.142161
     34          1           0        7.253007    2.237679   -1.518459
 ---------------------------------------------------------------------

 SCF Done:  E(RHF) =  -669.535497120     A.U. after   15 cycles
 E2 =    -0.2090969259D+01 EUMP2 =    -0.67162646637904D+03

 The electronic state is 1-A.
 Alpha  occ. eigenvalues --  -20.60703 -20.60698 -15.85754 -11.31102 -11.27669
 Alpha  occ. eigenvalues --  -11.27646 -11.27400 -11.26691 -11.26606 -11.22367
 Alpha  occ. eigenvalues --  -11.22132 -11.22065 -11.22052 -11.21894 -11.21447
 Alpha  occ. eigenvalues --   -1.59778  -1.39332  -1.19267  -1.09051  -1.08668
 Alpha  occ. eigenvalues --   -1.04665  -1.04178  -0.96653  -0.95508  -0.87684
 Alpha  occ. eigenvalues --   -0.86063  -0.82338  -0.80258  -0.78842  -0.77384
 Alpha  occ. eigenvalues --   -0.71973  -0.71101  -0.70383  -0.65681  -0.64918
 Alpha  occ. eigenvalues --   -0.64684  -0.62044  -0.61562  -0.60014  -0.58240
 Alpha  occ. eigenvalues --   -0.55956  -0.55176  -0.53369  -0.53213  -0.52993
 Alpha  occ. eigenvalues --   -0.52597  -0.50591  -0.48751  -0.48730  -0.48526
 Alpha  occ. eigenvalues --   -0.47268  -0.46389  -0.46290  -0.44742  -0.44416
 Alpha  occ. eigenvalues --   -0.37253  -0.36264
 Alpha virt. eigenvalues --    0.05136   0.11376   0.16617   0.20500   0.22390
 Alpha virt. eigenvalues --    0.23795   0.25388   0.26058   0.27062   0.28114
 Alpha virt. eigenvalues --    0.28904   0.30000   0.31043   0.31242   0.31968

 Mulliken charges:
               1
     1  C   -0.172951
     2  C   -0.218391
     3  C   -0.171540
     4  C    0.158888
     5  C   -0.174265
     6  C   -0.224343
     7  H    0.224948
     8  H    0.222923
     9  H    0.275193
    10  H    0.275823
    11  H    0.235321
    12  N    0.488053
    13  O   -0.460603
    14  O   -0.460793
    15  C   -0.298555
    16  C   -0.299472
    17  C   -0.481623
    18  H    0.145782
    19  H    0.151767
    20  H    0.153975
    21  H    0.156454
    22  H    0.158276
    23  H    0.145956
    24  H    0.165088
    25  C   -0.298839
    26  C   -0.299955
    27  C   -0.476041
    28  H    0.150151
    29  H    0.151731
    30  H    0.150700
    31  H    0.153093
    32  H    0.156431
    33  H    0.155508
    34  H    0.161310
 Sum of Mulliken charges =  -0.00000

 Dipole moment (field-independent basis, Debye):
    X=              3.8349    Y=              2.5090    Z=              2.6992  Tot=              5.3186
 Quadrupole moment (field-independent basis, Debye-Ang):
   XX=           -120.8204   YY=            -90.2457   ZZ=            -95.2746
   XY=            -11.8388   XZ=             -9.8440   YZ=              0.1124

 Normal termination of Gaussian 16 at Thu May  6 09:31:18 2021.
