 Gaussian 16, Revision A.03,
 Gaussian 16:  EM64L-G16RevA.03 25-Dec-2016

 -------------
 #p 6-31g* mp2
 -------------

 ------------------------------------------------------
 Input file generated by CHIRIPA (05-May-2021 14:57:23)
 ------------------------------------------------------
 Symbolic Z-matrix:
 Charge =  0 Multiplicity = 1

                         Standard orientation:
 ---------------------------------------------------------------------
 Center     Atomic      Atomic             Coordinates (Angstroms)
 Number     Number       Type             X           Y           Z
 ---------------------------------------------------------------------
      1          6           0       -2.211232    2.610659    0.502716
      2          6           0       -2.966752    2.330947   -0.640731
      3          6           0       -3.380689    1.024287   -0.916131
      4          6           0       -3.019715    0.017063   -0.022550
      5          6           0       -2.267793    0.263989    1.125027
      6          6           0       -1.864775    1.578108    1.380398
      7          1           0       -1.893917    3.628601    0.708874
      8          1           0       -3.237275    3.130848   -1.324120
      9          1           0       -3.966312    0.779720   -1.793998
     10          1           0       -2.013511   -0.554378    1.787624
     11          1           0       -1.278105    1.792399    2.269185
     12          7           0       -3.452152   -1.370187   -0.303502
     13          8           0       -3.121140   -2.239836    0.499480
     14          8           0       -4.113920   -1.561598   -1.321373
     15          6           0        2.022902   -2.564365    0.341052
     16          6           0        3.329891   -2.398280   -0.128752
     17          6           0        3.853127   -1.118271   -0.334538
     18          6           0        3.037922   -0.021538   -0.059023
     19          6           0        1.731898   -0.154406    0.409952
     20          6           0        1.229475   -1.443873    0.608432
     21          1           0        1.624524   -3.562381    0.498075
     22          1           0        3.948361   -3.266653   -0.337246
     23          1           0        4.861567   -0.960923   -0.697453
     24          1           0        1.139443    0.730372    0.608905
     25          1           0        0.214095   -1.569840    0.973372
     26          7           0        3.580831    1.338556   -0.273013
     27          8           0        2.842315    2.288618   -0.022781
     28          8           0        4.734598    1.428784   -0.686917
 ---------------------------------------------------------------------

 SCF Done:  E(RHF) =  -868.339086420     A.U. after   16 cycles
 E2 =    -0.2600900172D+01 EUMP2 =    -0.87093998659208D+03

 The electronic state is 1-A.
 Alpha  occ. eigenvalues --  -20.61529 -20.61481 -20.60944 -20.60918 -15.86548
 Alpha  occ. eigenvalues --  -15.85982 -11.31855 -11.31191 -11.28510 -11.28342
 Alpha  occ. eigenvalues --  -11.28022 -11.27743 -11.27732 -11.27412 -11.27396
 Alpha  occ. eigenvalues --  -11.27284 -11.26702 -11.26669  -1.60573  -1.60009
 Alpha  occ. eigenvalues --   -1.40133  -1.39569  -1.20009  -1.19343  -1.09377
 Alpha  occ. eigenvalues --   -1.08752  -1.05418  -1.04724  -0.96234  -0.95616
 Alpha  occ. eigenvalues --   -0.86794  -0.86117  -0.83077  -0.82465  -0.78177
 Alpha  occ. eigenvalues --   -0.77536  -0.72763  -0.72207  -0.71892  -0.71328
 Alpha  occ. eigenvalues --   -0.71059  -0.70422  -0.65645  -0.65415  -0.64990
 Alpha  occ. eigenvalues --   -0.64688  -0.62815  -0.62037  -0.55807  -0.55192
 Alpha  occ. eigenvalues --   -0.53688  -0.53512  -0.53059  -0.52762  -0.49537
 Alpha  occ. eigenvalues --   -0.49506  -0.48970  -0.48942  -0.45547  -0.45010
 Alpha  occ. eigenvalues --   -0.37909  -0.37291  -0.37023  -0.36326
 Alpha virt. eigenvalues --    0.04335   0.04986   0.10481   0.11329   0.15853
 Alpha virt. eigenvalues --    0.16520   0.19955   0.22127   0.25517   0.26949
 Alpha virt. eigenvalues --    0.28463   0.29190   0.29654   0.31198   0.32107

 Mulliken charges:
               1
     1  C   -0.167366
     2  C   -0.216946
     3  C   -0.169386
     4  C    0.161057
     5  C   -0.180635
     6  C   -0.224733
     7  H    0.234091
     8  H    0.228355
     9  H    0.278006
    10  H    0.270920
    11  H    0.228074
    12  N    0.489038
    13  O   -0.467238
    14  O   -0.455436
    15  C   -0.170739
    16  C   -0.218928
    17  C   -0.170745
    18  C    0.158394
    19  C   -0.175691
    20  C   -0.224578
    21  H    0.231398
    22  H    0.224194
    23  H    0.275108
    24  H    0.272412
    25  H    0.228102
    26  N    0.488364
    27  O   -0.465470
    28  O   -0.459623
 Sum of Mulliken charges =  -0.00000

 Dipole moment (field-independent basis, Debye):
    X=             -0.6405    Y=              0.2261    Z=              1.5925  Tot=              1.7313
 Quadrupole moment (field-independent basis, Debye-Ang):
   XX=           -121.1185   YY=           -103.3076   ZZ=           -101.9737
   XY=            -33.1753   XZ=              0.3608   YZ=             -0.5511

 Normal termination of Gaussian 16 at Thu May  6 17:57:16 2021.
