 Gaussian 16, Revision A.03,
 Gaussian 16:  EM64L-G16RevA.03 25-Dec-2016

 -------------
 #p 6-31g* mp2
 -------------

 ------------------------------------------------------
 Input file generated by CHIRIPA (05-May-2021 14:51:12)
 ------------------------------------------------------
 Symbolic Z-matrix:
 Charge =  0 Multiplicity = 1

                         Standard orientation:
 ---------------------------------------------------------------------
 Center     Atomic      Atomic             Coordinates (Angstroms)
 Number     Number       Type             X           Y           Z
 ---------------------------------------------------------------------
      1          6           0        2.665552   -0.492642   -0.219016
      2          6           0        2.878955   -1.346320   -1.469487
      3          6           0        2.656062   -2.837015   -1.212696
      4          1           0        3.346391   -0.835725    0.571994
      5          1           0        1.645104   -0.652519    0.155843
      6          1           0        3.898241   -1.183826   -1.842673
      7          1           0        2.197663   -1.001040   -2.257675
      8          1           0        1.635013   -3.019084   -0.862110
      9          1           0        3.345253   -3.202908   -0.444750
     10          1           0        2.813848   -3.428654   -2.119849
     11          6           0        2.884734    0.999913   -0.459783
     12          6           0        2.671332    1.853592    0.790687
     13          6           0        2.894224    3.344286    0.533896
     14          1           0        3.905182    1.159791   -0.834643
     15          1           0        2.203896    1.342996   -1.250794
     16          1           0        3.352623    1.508312    1.578875
     17          1           0        1.652046    1.691097    1.163873
     18          1           0        2.205034    3.710179   -0.234050
     19          1           0        3.915273    3.526355    0.183310
     20          1           0        2.736438    3.935925    1.441049
     21          6           0       -2.957931    0.178708   -0.263177
     22          6           0       -4.462429    0.408283   -0.410709
     23          6           0       -4.812315    1.275010   -1.620733
     24          1           0       -2.451762    1.150114   -0.178850
     25          1           0       -2.574940   -0.294967   -1.177697
     26          1           0       -4.842714    0.880124    0.504368
     27          1           0       -4.965094   -0.563787   -0.494502
     28          1           0       -4.460313    0.806000   -2.545247
     29          1           0       -4.337238    2.258116   -1.540701
     30          1           0       -5.892813    1.426381   -1.707166
     31          6           0       -2.592355   -0.685979    0.941977
     32          6           0       -1.087858   -0.915555    1.089509
     33          6           0       -0.737971   -1.782281    2.299533
     34          1           0       -2.975347   -0.212304    1.856496
     35          1           0       -3.098525   -1.657385    0.857650
     36          1           0       -0.585192    0.056517    1.173302
     37          1           0       -0.707573   -1.387395    0.174432
     38          1           0       -1.213049   -2.765387    2.219501
     39          1           0       -1.089973   -1.313272    3.224047
     40          1           0        0.342527   -1.933652    2.385966
 ---------------------------------------------------------------------

 SCF Done:  E(RHF) =  -470.732791965     A.U. after   11 cycles
 E2 =    -0.1584179322D+01 EUMP2 =    -0.47231697128703D+03

 The electronic state is 1-A.
 Alpha  occ. eigenvalues --  -11.21708 -11.21651 -11.21593 -11.21556 -11.21475
 Alpha  occ. eigenvalues --  -11.21416 -11.21335 -11.21220 -11.21118 -11.21112
 Alpha  occ. eigenvalues --  -11.21068 -11.21062  -1.08518  -1.08371  -1.03608
 Alpha  occ. eigenvalues --   -1.03501  -0.96045  -0.95943  -0.87054  -0.86967
 Alpha  occ. eigenvalues --   -0.79715  -0.79558  -0.78438  -0.78076  -0.65138
 Alpha  occ. eigenvalues --   -0.65031  -0.61087  -0.60828  -0.59441  -0.59294
 Alpha  occ. eigenvalues --   -0.57722  -0.57506  -0.55325  -0.55228  -0.52738
 Alpha  occ. eigenvalues --   -0.52649  -0.52473  -0.52363  -0.49988  -0.49892
 Alpha  occ. eigenvalues --   -0.48064  -0.47892  -0.46823  -0.46495  -0.46163
 Alpha  occ. eigenvalues --   -0.45759  -0.45715  -0.45231  -0.43841  -0.43740
 Alpha virt. eigenvalues --    0.20482   0.22831   0.23209   0.24210   0.25906
 Alpha virt. eigenvalues --    0.26465   0.26990   0.27771   0.27904   0.29484
 Alpha virt. eigenvalues --    0.29947   0.31089   0.31644   0.31921   0.32079

 Mulliken charges:
               1
     1  C   -0.311822
     2  C   -0.298858
     3  C   -0.477330
     4  H    0.148205
     5  H    0.166724
     6  H    0.151691
     7  H    0.151339
     8  H    0.155711
     9  H    0.155245
    10  H    0.160147
    11  C   -0.297203
    12  C   -0.303181
    13  C   -0.475593
    14  H    0.149228
    15  H    0.149361
    16  H    0.152002
    17  H    0.154070
    18  H    0.155069
    19  H    0.155395
    20  H    0.159977
    21  C   -0.298501
    22  C   -0.299709
    23  C   -0.475767
    24  H    0.149339
    25  H    0.149362
    26  H    0.152129
    27  H    0.152153
    28  H    0.155214
    29  H    0.155212
    30  H    0.160494
    31  C   -0.296751
    32  C   -0.308447
    33  C   -0.477660
    34  H    0.149899
    35  H    0.150048
    36  H    0.155513
    37  H    0.153041
    38  H    0.155534
    39  H    0.155640
    40  H    0.163079
 Sum of Mulliken charges =  -0.00000

 Dipole moment (field-independent basis, Debye):
    X=             -0.0491    Y=             -0.0094    Z=              0.0244  Tot=              0.0556
 Quadrupole moment (field-independent basis, Debye-Ang):
   XX=            -84.0740   YY=            -85.7055   ZZ=            -85.0782
   XY=              0.0772   XZ=             -0.0293   YZ=              0.9634

 Normal termination of Gaussian 16 at Wed May  5 23:09:16 2021.
