 Gaussian 16, Revision A.03,
 Gaussian 16:  EM64L-G16RevA.03 25-Dec-2016

 -------------
 #p 6-31g* mp2
 -------------

 ------------------------------------------------------
 Input file generated by CHIRIPA (05-May-2021 14:51:12)
 ------------------------------------------------------
 Symbolic Z-matrix:
 Charge =  0 Multiplicity = 1

                         Standard orientation:
 ---------------------------------------------------------------------
 Center     Atomic      Atomic             Coordinates (Angstroms)
 Number     Number       Type             X           Y           Z
 ---------------------------------------------------------------------
      1          6           0        2.823657   -0.203913    0.507769
      2          6           0        2.247902    0.963634    1.309845
      3          6           0        0.777831    0.760194    1.677671
      4          1           0        2.230714   -0.339742   -0.407061
      5          1           0        2.715224   -1.128986    1.090759
      6          1           0        2.358643    1.886449    0.726094
      7          1           0        2.842402    1.096821    2.222778
      8          1           0        0.653388   -0.144745    2.281162
      9          1           0        0.166880    0.649370    0.775974
     10          1           0        0.386523    1.606587    2.250694
     11          6           0        4.292450   -0.015237    0.132567
     12          6           0        4.868205   -1.182784   -0.669509
     13          6           0        6.338276   -0.979344   -1.037335
     14          1           0        4.400883    0.909836   -0.450423
     15          1           0        4.885393    0.120592    1.047397
     16          1           0        4.273705   -1.315971   -1.582442
     17          1           0        4.757464   -2.105599   -0.085758
     18          1           0        6.949227   -0.868520   -0.135638
     19          1           0        6.462719   -0.074406   -1.640826
     20          1           0        6.729584   -1.825737   -1.610358
     21          6           0       -3.210145    0.594434   -0.796931
     22          6           0       -2.704308    1.862957   -0.109205
     23          6           0       -2.010625    2.823072   -1.076041
     24          1           0       -2.364917    0.084442   -1.279054
     25          1           0       -3.906018    0.873771   -1.600128
     26          1           0       -2.010660    1.581245    0.693359
     27          1           0       -3.550806    2.369888    0.371501
     28          1           0       -2.697365    3.132763   -1.870449
     29          1           0       -1.148469    2.339638   -1.546762
     30          1           0       -1.656909    3.723055   -0.563422
     31          6           0       -3.905963   -0.375285    0.156595
     32          6           0       -4.411799   -1.643806   -0.531132
     33          6           0       -5.105482   -2.603922    0.435706
     34          1           0       -3.210089   -0.654621    0.959792
     35          1           0       -4.751190    0.134708    0.638718
     36          1           0       -3.565301   -2.150738   -1.011836
     37          1           0       -5.105446   -1.362094   -1.333694
     38          1           0       -5.967639   -2.120488    0.906426
     39          1           0       -4.418742   -2.913612    1.230112
     40          1           0       -5.459198   -3.503904   -0.076913
 ---------------------------------------------------------------------

 SCF Done:  E(RHF) =  -470.733032431     A.U. after   11 cycles
 E2 =    -0.1582901514D+01 EUMP2 =    -0.47231593394523D+03

 The electronic state is 1-A.
 Alpha  occ. eigenvalues --  -11.21652 -11.21630 -11.21567 -11.21473 -11.21450
 Alpha  occ. eigenvalues --  -11.21388 -11.21360 -11.21301 -11.21138 -11.21092
 Alpha  occ. eigenvalues --  -11.21046 -11.21043  -1.08476  -1.08381  -1.03588
 Alpha  occ. eigenvalues --   -1.03473  -0.96038  -0.95934  -0.87061  -0.86949
 Alpha  occ. eigenvalues --   -0.79686  -0.79506  -0.78293  -0.78184  -0.65168
 Alpha  occ. eigenvalues --   -0.64976  -0.61147  -0.60738  -0.59415  -0.59288
 Alpha  occ. eigenvalues --   -0.57636  -0.57547  -0.55398  -0.55146  -0.52741
 Alpha  occ. eigenvalues --   -0.52626  -0.52462  -0.52357  -0.50050  -0.49824
 Alpha  occ. eigenvalues --   -0.47998  -0.47827  -0.46786  -0.46457  -0.45875
 Alpha  occ. eigenvalues --   -0.45764  -0.45714  -0.45549  -0.43817  -0.43732
 Alpha virt. eigenvalues --    0.20866   0.23036   0.23818   0.25076   0.26174
 Alpha virt. eigenvalues --    0.26493   0.27133   0.27640   0.28053   0.29061
 Alpha virt. eigenvalues --    0.30431   0.30961   0.31713   0.31830   0.32390

 Mulliken charges:
               1
     1  C   -0.298572
     2  C   -0.299834
     3  C   -0.480064
     4  H    0.149357
     5  H    0.149541
     6  H    0.152630
     7  H    0.152166
     8  H    0.155121
     9  H    0.159456
    10  H    0.161048
    11  C   -0.298370
    12  C   -0.299684
    13  C   -0.475740
    14  H    0.149742
    15  H    0.149801
    16  H    0.151934
    17  H    0.151938
    18  H    0.155233
    19  H    0.155285
    20  H    0.160348
    21  C   -0.298470
    22  C   -0.307472
    23  C   -0.475486
    24  H    0.148582
    25  H    0.149380
    26  H    0.161270
    27  H    0.151625
    28  H    0.155143
    29  H    0.153852
    30  H    0.160126
    31  C   -0.298485
    32  C   -0.299595
    33  C   -0.475681
    34  H    0.150270
    35  H    0.149577
    36  H    0.151826
    37  H    0.151770
    38  H    0.155113
    39  H    0.155227
    40  H    0.160091
 Sum of Mulliken charges =  -0.00000

 Dipole moment (field-independent basis, Debye):
    X=              0.0361    Y=              0.0007    Z=              0.0322  Tot=              0.0484
 Quadrupole moment (field-independent basis, Debye-Ang):
   XX=            -85.3525   YY=            -85.0470   ZZ=            -84.4426
   XY=             -0.9447   XZ=              1.0334   YZ=              0.0044

 Normal termination of Gaussian 16 at Thu May  6 05:29:40 2021.
