 Gaussian 16, Revision A.03,
 Gaussian 16:  EM64L-G16RevA.03 25-Dec-2016

 -------------
 #p 6-31g* mp2
 -------------

 ------------------------------------------------------
 Input file generated by CHIRIPA (05-May-2021 14:53:18)
 ------------------------------------------------------
 Symbolic Z-matrix:
 Charge =  0 Multiplicity = 1

                         Standard orientation:
 ---------------------------------------------------------------------
 Center     Atomic      Atomic             Coordinates (Angstroms)
 Number     Number       Type             X           Y           Z
 ---------------------------------------------------------------------
      1          6           0       -2.686147    0.292367   -0.257544
      2          6           0       -3.974155   -0.172504    0.422836
      3          6           0       -4.361142   -1.601877    0.042139
      4          1           0       -2.808482    0.221923   -1.347047
      5          1           0       -1.870199   -0.393097    0.010339
      6          1           0       -4.787130    0.514427    0.154860
      7          1           0       -3.848807   -0.100764    1.510842
      8          1           0       -3.569704   -2.303525    0.324832
      9          1           0       -4.513359   -1.684838   -1.038855
     10          1           0       -5.284709   -1.913799    0.539722
     11          6           0       -2.286205    1.719386    0.113121
     12          6           0       -0.998198    2.184257   -0.567259
     13          6           0       -0.611210    3.613629   -0.186562
     14          1           0       -3.102154    2.404850   -0.154762
     15          1           0       -2.163871    1.789830    1.202624
     16          1           0       -1.123546    2.112517   -1.655265
     17          1           0       -0.185222    1.497325   -0.299282
     18          1           0       -0.458994    3.696591    0.894432
     19          1           0       -1.402649    4.315278   -0.469255
     20          1           0        0.312357    3.925552   -0.684145
     21          6           0        3.747733    0.961520    0.286965
     22          6           0        3.482697    0.389342   -0.961589
     23          6           0        2.484685   -0.579711   -1.101072
     24          6           0        1.767785   -0.954769    0.034126
     25          6           0        2.008302   -0.403194    1.291586
     26          6           0        3.010988    0.564127    1.407593
     27          1           0        4.524829    1.713632    0.386200
     28          1           0        4.053278    0.696032   -1.833612
     29          1           0        2.258727   -1.038996   -2.055755
     30          1           0        1.422816   -0.729262    2.142648
     31          1           0        3.214642    1.006777    2.378485
     32          7           0        0.708760   -1.979745   -0.101110
     33          8           0        0.091271   -2.292997    0.914378
     34          8           0        0.516237   -2.450462   -1.220038
 ---------------------------------------------------------------------

 SCF Done:  E(RHF) =  -669.535989432     A.U. after   15 cycles
 E2 =    -0.2093710167D+01 EUMP2 =    -0.67162969959953D+03

 The electronic state is 1-A.
 Alpha  occ. eigenvalues --  -20.60991 -20.60979 -15.86000 -11.31321 -11.27893
 Alpha  occ. eigenvalues --  -11.27878 -11.27617 -11.26891 -11.26877 -11.21362
 Alpha  occ. eigenvalues --  -11.21049 -11.20949 -11.20789 -11.20568 -11.19992
 Alpha  occ. eigenvalues --   -1.60047  -1.39601  -1.19499  -1.08899  -1.07877
 Alpha  occ. eigenvalues --   -1.04887  -1.02974  -0.95742  -0.95420  -0.86437
 Alpha  occ. eigenvalues --   -0.86287  -0.82574  -0.79091  -0.77649  -0.77626
 Alpha  occ. eigenvalues --   -0.72229  -0.71377  -0.70596  -0.65148  -0.64885
 Alpha  occ. eigenvalues --   -0.64501  -0.62232  -0.60382  -0.58854  -0.57021
 Alpha  occ. eigenvalues --   -0.55387  -0.54705  -0.53247  -0.52975  -0.52148
 Alpha  occ. eigenvalues --   -0.51824  -0.49345  -0.49003  -0.48988  -0.47376
 Alpha  occ. eigenvalues --   -0.46119  -0.45376  -0.45171  -0.44655  -0.43224
 Alpha  occ. eigenvalues --   -0.37444  -0.36481
 Alpha virt. eigenvalues --    0.04869   0.11158   0.16341   0.21302   0.23222
 Alpha virt. eigenvalues --    0.24912   0.26762   0.27242   0.27696   0.28248
 Alpha virt. eigenvalues --    0.28553   0.30995   0.31896   0.32066   0.32380

 Mulliken charges:
               1
     1  C   -0.304992
     2  C   -0.297644
     3  C   -0.479293
     4  H    0.149301
     5  H    0.160810
     6  H    0.147141
     7  H    0.150187
     8  H    0.171270
     9  H    0.153366
    10  H    0.155308
    11  C   -0.297401
    12  C   -0.303211
    13  C   -0.473782
    14  H    0.147795
    15  H    0.146782
    16  H    0.151575
    17  H    0.152077
    18  H    0.152160
    19  H    0.155562
    20  H    0.155727
    21  C   -0.170415
    22  C   -0.217751
    23  C   -0.170848
    24  C    0.159550
    25  C   -0.173111
    26  C   -0.217207
    27  H    0.226375
    28  H    0.224127
    29  H    0.276238
    30  H    0.275865
    31  H    0.224168
    32  N    0.487219
    33  O   -0.459970
    34  O   -0.456978
 Sum of Mulliken charges =  -0.00000

 Dipole moment (field-independent basis, Debye):
    X=              3.9013    Y=              3.3908    Z=              0.4553  Tot=              5.1890
 Quadrupole moment (field-independent basis, Debye-Ang):
   XX=            -82.2082   YY=           -103.5628   ZZ=            -89.3439
   XY=              2.6330   XZ=              0.2445   YZ=             -0.3348

 Normal termination of Gaussian 16 at Wed May  5 15:48:12 2021.
