 Gaussian 16, Revision A.03,
 Gaussian 16:  EM64L-G16RevA.03 25-Dec-2016

 -------------
 #p 6-31g* mp2
 -------------

 ------------------------------------------------------
 Input file generated by CHIRIPA (05-May-2021 14:51:13)
 ------------------------------------------------------
 Symbolic Z-matrix:
 Charge =  0 Multiplicity = 1

                         Standard orientation:
 ---------------------------------------------------------------------
 Center     Atomic      Atomic             Coordinates (Angstroms)
 Number     Number       Type             X           Y           Z
 ---------------------------------------------------------------------
      1          6           0       -2.996148   -0.294440    0.303387
      2          6           0       -2.497325   -0.560990    1.723989
      3          6           0       -0.974818   -0.482220    1.840443
      4          1           0       -2.536549   -1.019746   -0.381920
      5          1           0       -2.653851    0.699150   -0.017559
      6          1           0       -2.841630   -1.553215    2.042676
      7          1           0       -2.958313    0.164913    2.406023
      8          1           0       -0.616966    0.510399    1.548464
      9          1           0       -0.499619   -1.217491    1.183052
     10          1           0       -0.639928   -0.675988    2.864241
     11          6           0       -4.516191   -0.369664    0.170953
     12          6           0       -5.015014   -0.103113   -1.249649
     13          6           0       -6.537521   -0.181884   -1.366103
     14          1           0       -4.858488   -1.363254    0.491899
     15          1           0       -4.975790    0.355642    0.856260
     16          1           0       -4.554026   -0.829017   -1.931683
     17          1           0       -4.670709    0.889111   -1.568336
     18          1           0       -7.012719    0.553387   -0.708712
     19          1           0       -6.895373   -1.174503   -1.074124
     20          1           0       -6.872410    0.011884   -2.389901
     21          6           0        4.078599   -0.347170   -0.371810
     22          6           0        5.607032   -0.303842   -0.370139
     23          6           0        6.237452   -1.670240   -0.640915
     24          1           0        3.737688   -1.066408    0.385435
     25          1           0        3.730554   -0.726724   -1.342479
     26          1           0        5.952054    0.076824    0.599742
     27          1           0        5.944341    0.415518   -1.127344
     28          1           0        5.921691   -2.053658   -1.616562
     29          1           0        5.929447   -2.394277    0.120337
     30          1           0        7.330574   -1.616268   -0.635212
     31          6           0        3.433739    1.011274   -0.102530
     32          6           0        1.905307    0.967946   -0.104201
     33          6           0        1.274887    2.334344    0.166575
     34          1           0        3.781786    1.390828    0.868139
     35          1           0        3.774652    1.730512   -0.859775
     36          1           0        1.567998    0.248586    0.653005
     37          1           0        1.560284    0.587280   -1.074082
     38          1           0        1.582891    3.058379   -0.594677
     39          1           0        1.590649    2.717762    1.142222
     40          1           0        0.181765    2.280370    0.160873
 ---------------------------------------------------------------------

 SCF Done:  E(RHF) =  -470.731847675     A.U. after   11 cycles
 E2 =    -0.1583739643D+01 EUMP2 =    -0.47231558731824D+03

 The electronic state is 1-A.
 Alpha  occ. eigenvalues --  -11.21603 -11.21583 -11.21568 -11.21444 -11.21411
 Alpha  occ. eigenvalues --  -11.21351 -11.21348 -11.21283 -11.21072 -11.21062
 Alpha  occ. eigenvalues --  -11.21047 -11.20991  -1.08439  -1.08366  -1.03581
 Alpha  occ. eigenvalues --   -1.03436  -0.96052  -0.95884  -0.87011  -0.86963
 Alpha  occ. eigenvalues --   -0.79703  -0.79461  -0.78289  -0.78131  -0.65082
 Alpha  occ. eigenvalues --   -0.64998  -0.61050  -0.60825  -0.59474  -0.59248
 Alpha  occ. eigenvalues --   -0.57819  -0.57335  -0.55373  -0.55122  -0.52701
 Alpha  occ. eigenvalues --   -0.52675  -0.52422  -0.52294  -0.49941  -0.49837
 Alpha  occ. eigenvalues --   -0.48054  -0.47761  -0.46607  -0.46529  -0.45888
 Alpha  occ. eigenvalues --   -0.45719  -0.45672  -0.45465  -0.43786  -0.43730
 Alpha virt. eigenvalues --    0.21617   0.23015   0.23519   0.25004   0.25803
 Alpha virt. eigenvalues --    0.26505   0.26979   0.27477   0.27886   0.29248
 Alpha virt. eigenvalues --    0.30489   0.31295   0.31621   0.31827   0.32260

 Mulliken charges:
               1
     1  C   -0.298860
     2  C   -0.299867
     3  C   -0.483333
     4  H    0.149895
     5  H    0.149204
     6  H    0.151618
     7  H    0.151641
     8  H    0.165272
     9  H    0.155698
    10  H    0.159262
    11  C   -0.298257
    12  C   -0.299652
    13  C   -0.475711
    14  H    0.149676
    15  H    0.149682
    16  H    0.151937
    17  H    0.151930
    18  H    0.155203
    19  H    0.155186
    20  H    0.160259
    21  C   -0.298254
    22  C   -0.299563
    23  C   -0.475682
    24  H    0.149594
    25  H    0.149257
    26  H    0.151866
    27  H    0.151875
    28  H    0.155065
    29  H    0.155109
    30  H    0.160135
    31  C   -0.297492
    32  C   -0.306170
    33  C   -0.479425
    34  H    0.149088
    35  H    0.148924
    36  H    0.162583
    37  H    0.151134
    38  H    0.156111
    39  H    0.155213
    40  H    0.159845
 Sum of Mulliken charges =  -0.00000

 Dipole moment (field-independent basis, Debye):
    X=             -0.0094    Y=             -0.0094    Z=              0.0135  Tot=              0.0189
 Quadrupole moment (field-independent basis, Debye-Ang):
   XX=            -86.5264   YY=            -84.6503   ZZ=            -83.8579
   XY=              0.4233   XZ=             -0.0919   YZ=             -0.1219

 Normal termination of Gaussian 16 at Wed May  5 19:58:43 2021.
