 Gaussian 16, Revision A.03,
 Gaussian 16:  EM64L-G16RevA.03 25-Dec-2016

 -------------
 #p 6-31g* mp2
 -------------

 ------------------------------------------------------
 Input file generated by CHIRIPA (05-May-2021 14:53:14)
 ------------------------------------------------------
 Symbolic Z-matrix:
 Charge =  0 Multiplicity = 1

                         Standard orientation:
 ---------------------------------------------------------------------
 Center     Atomic      Atomic             Coordinates (Angstroms)
 Number     Number       Type             X           Y           Z
 ---------------------------------------------------------------------
      1          6           0       -3.301197    0.495437   -0.411813
      2          6           0       -3.310032    1.969002   -0.003752
      3          6           0       -2.064799    2.720488   -0.475404
      4          1           0       -2.403089    0.013420   -0.001927
      5          1           0       -3.221912    0.425519   -1.505531
      6          1           0       -3.390671    2.036139    1.088771
      7          1           0       -4.208322    2.447521   -0.414496
      8          1           0       -1.982552    2.683223   -1.566480
      9          1           0       -1.160255    2.269503   -0.054672
     10          1           0       -2.091854    3.771983   -0.172936
     11          6           0       -4.539541   -0.269187    0.052496
     12          6           0       -4.530705   -1.742752   -0.355564
     13          6           0       -5.775939   -2.494238    0.116087
     14          1           0       -4.618826   -0.199269    1.146215
     15          1           0       -5.437649    0.212830   -0.357390
     16          1           0       -3.632416   -2.221272    0.055180
     17          1           0       -4.450066   -1.809889   -1.448087
     18          1           0       -6.680482   -2.043253   -0.304645
     19          1           0       -5.858186   -2.456973    1.207164
     20          1           0       -5.748883   -3.545733   -0.186380
     21          6           0        1.599400    1.888033    0.704463
     22          6           0        2.689796    2.047646   -0.156980
     23          6           0        3.507418    0.959561   -0.476527
     24          6           0        3.204263   -0.279451    0.085823
     25          6           0        2.125066   -0.470363    0.947319
     26          6           0        1.321007    0.631754    1.252897
     27          1           0        0.969519    2.738733    0.947269
     28          1           0        2.908384    3.022119   -0.584374
     29          1           0        4.357911    1.054993   -1.140585
     30          1           0        1.932295   -1.454095    1.357840
     31          1           0        0.474856    0.504847    1.922202
     32          7           0        4.062665   -1.438785   -0.245073
     33          8           0        3.774369   -2.519947    0.263466
     34          8           0        5.007522   -1.244357   -1.006703
 ---------------------------------------------------------------------

 SCF Done:  E(RHF) =  -669.535091335     A.U. after   15 cycles
 E2 =    -0.2091902842D+01 EUMP2 =    -0.67162699417768D+03

 The electronic state is 1-A.
 Alpha  occ. eigenvalues --  -20.60780 -20.60775 -15.85835 -11.31213 -11.27795
 Alpha  occ. eigenvalues --  -11.27785 -11.27502 -11.26814 -11.26781 -11.22329
 Alpha  occ. eigenvalues --  -11.21982 -11.21963 -11.21928 -11.21842 -11.21361
 Alpha  occ. eigenvalues --   -1.59856  -1.39409  -1.19393  -1.08985  -1.08784
 Alpha  occ. eigenvalues --   -1.04797  -1.04092  -0.96559  -0.95614  -0.87577
 Alpha  occ. eigenvalues --   -0.86193  -0.82448  -0.80164  -0.78765  -0.77490
 Alpha  occ. eigenvalues --   -0.72053  -0.71179  -0.70522  -0.65631  -0.65044
 Alpha  occ. eigenvalues --   -0.64796  -0.62146  -0.61497  -0.59928  -0.58150
 Alpha  occ. eigenvalues --   -0.55986  -0.55203  -0.53259  -0.53202  -0.52891
 Alpha  occ. eigenvalues --   -0.52859  -0.50479  -0.48812  -0.48807  -0.48463
 Alpha  occ. eigenvalues --   -0.47192  -0.46312  -0.46228  -0.44812  -0.44341
 Alpha  occ. eigenvalues --   -0.37322  -0.36398
 Alpha virt. eigenvalues --    0.05013   0.11149   0.16430   0.20363   0.22629
 Alpha virt. eigenvalues --    0.23934   0.25776   0.26666   0.26781   0.27888
 Alpha virt. eigenvalues --    0.29032   0.30451   0.31080   0.31320   0.31727

 Mulliken charges:
               1
     1  C   -0.298265
     2  C   -0.299531
     3  C   -0.482456
     4  H    0.146852
     5  H    0.152595
     6  H    0.149402
     7  H    0.155184
     8  H    0.160058
     9  H    0.151616
    10  H    0.158158
    11  C   -0.298723
    12  C   -0.299902
    13  C   -0.476039
    14  H    0.148419
    15  H    0.151069
    16  H    0.151787
    17  H    0.153688
    18  H    0.155738
    19  H    0.154934
    20  H    0.162267
    21  C   -0.169481
    22  C   -0.220184
    23  C   -0.170750
    24  C    0.158540
    25  C   -0.170680
    26  C   -0.219613
    27  H    0.228828
    28  H    0.224051
    29  H    0.275817
    30  H    0.275654
    31  H    0.223576
    32  N    0.488110
    33  O   -0.460417
    34  O   -0.460300
 Sum of Mulliken charges =  -0.00000

 Dipole moment (field-independent basis, Debye):
    X=             -3.0884    Y=              4.0498    Z=              1.0935  Tot=              5.2091
 Quadrupole moment (field-independent basis, Debye-Ang):
   XX=           -113.0587   YY=            -96.1918   ZZ=            -92.6936
   XY=             15.4702   XZ=              2.4282   YZ=             -2.0522

 Normal termination of Gaussian 16 at Thu May  6 04:12:08 2021.
