 Gaussian 16, Revision A.03,
 Gaussian 16:  EM64L-G16RevA.03 25-Dec-2016

 -------------
 #p 6-31g* mp2
 -------------

 ------------------------------------------------------
 Input file generated by CHIRIPA (05-May-2021 14:57:27)
 ------------------------------------------------------
 Symbolic Z-matrix:
 Charge =  0 Multiplicity = 1

                         Standard orientation:
 ---------------------------------------------------------------------
 Center     Atomic      Atomic             Coordinates (Angstroms)
 Number     Number       Type             X           Y           Z
 ---------------------------------------------------------------------
      1          6           0       -2.035170   -1.800354    0.422819
      2          6           0       -3.334885   -2.227613    0.131766
      3          6           0       -4.358678   -1.297930   -0.073379
      4          6           0       -4.046005    0.057324    0.020497
      5          6           0       -2.760980    0.514286    0.308918
      6          6           0       -1.752863   -0.433179    0.510311
      7          1           0       -1.245951   -2.529461    0.580723
      8          1           0       -3.557032   -3.288741    0.063198
      9          1           0       -5.373621   -1.601104   -0.300081
     10          1           0       -2.570138    1.578793    0.370736
     11          1           0       -0.744404   -0.098471    0.736202
     12          7           0       -5.121551    1.050950   -0.194696
     13          8           0       -4.820246    2.239256   -0.106475
     14          8           0       -6.245503    0.622635   -0.447509
     15          6           0        4.129304    2.611491    0.094824
     16          6           0        2.853345    2.038497    0.106058
     17          6           0        2.697043    0.651693    0.023035
     18          6           0        3.843551   -0.135742   -0.070541
     19          6           0        5.128237    0.405265   -0.084153
     20          6           0        5.260683    1.794487   -0.000077
     21          1           0        4.241457    3.689733    0.159727
     22          1           0        1.972917    2.670536    0.179669
     23          1           0        1.721076    0.181733    0.029596
     24          1           0        5.987094   -0.250674   -0.158486
     25          1           0        6.252851    2.236718   -0.009025
     26          7           0        3.690709   -1.605169   -0.158990
     27          8           0        4.716654   -2.277041   -0.240625
     28          8           0        2.547863   -2.057210   -0.145007
 ---------------------------------------------------------------------

 SCF Done:  E(RHF) =  -868.338262783     A.U. after   16 cycles
 E2 =    -0.2599125168D+01 EUMP2 =    -0.87093738795107D+03

 The electronic state is 1-A.
 Alpha  occ. eigenvalues --  -20.61610 -20.61564 -20.60780 -20.60766 -15.86641
 Alpha  occ. eigenvalues --  -15.85832 -11.31922 -11.31135 -11.28570 -11.28417
 Alpha  occ. eigenvalues --  -11.28137 -11.27791 -11.27692 -11.27481 -11.27403
 Alpha  occ. eigenvalues --  -11.27322 -11.26779 -11.26612  -1.60656  -1.59853
 Alpha  occ. eigenvalues --   -1.40218  -1.39409  -1.20069  -1.19306  -1.09465
 Alpha  occ. eigenvalues --   -1.08677  -1.05470  -1.04726  -0.96327  -0.95523
 Alpha  occ. eigenvalues --   -0.86867  -0.86107  -0.83172  -0.82383  -0.78249
 Alpha  occ. eigenvalues --   -0.77466  -0.72869  -0.72049  -0.71969  -0.71179
 Alpha  occ. eigenvalues --   -0.71176  -0.70325  -0.65725  -0.65489  -0.64951
 Alpha  occ. eigenvalues --   -0.64739  -0.62854  -0.62070  -0.55937  -0.55094
 Alpha  occ. eigenvalues --   -0.53781  -0.53585  -0.53024  -0.52798  -0.49634
 Alpha  occ. eigenvalues --   -0.49596  -0.48810  -0.48800  -0.45642  -0.44830
 Alpha  occ. eigenvalues --   -0.38011  -0.37219  -0.37062  -0.36342
 Alpha virt. eigenvalues --    0.04303   0.05109   0.10591   0.11287   0.15836
 Alpha virt. eigenvalues --    0.16604   0.18591   0.22074   0.24781   0.27155
 Alpha virt. eigenvalues --    0.28365   0.29226   0.30333   0.30953   0.32124

 Mulliken charges:
               1
     1  C   -0.171448
     2  C   -0.219350
     3  C   -0.170236
     4  C    0.158181
     5  C   -0.171969
     6  C   -0.221874
     7  H    0.239662
     8  H    0.225695
     9  H    0.275757
    10  H    0.271010
    11  H    0.219212
    12  N    0.488309
    13  O   -0.462855
    14  O   -0.459895
    15  C   -0.169930
    16  C   -0.219392
    17  C   -0.177330
    18  C    0.159715
    19  C   -0.169511
    20  C   -0.218205
    21  H    0.229025
    22  H    0.223512
    23  H    0.273933
    24  H    0.277442
    25  H    0.226387
    26  N    0.488279
    27  O   -0.455949
    28  O   -0.468175
 Sum of Mulliken charges =  -0.00000

 Dipole moment (field-independent basis, Debye):
    X=              4.5846    Y=              1.5766    Z=              1.0530  Tot=              4.9611
 Quadrupole moment (field-independent basis, Debye-Ang):
   XX=           -123.2914   YY=           -104.0481   ZZ=           -106.4880
   XY=             37.5293   XZ=             -1.5346   YZ=              0.2040

 Normal termination of Gaussian 16 at Thu May  6 14:50:10 2021.
