 Gaussian 16, Revision A.03,
 Gaussian 16:  EM64L-G16RevA.03 25-Dec-2016

 -------------
 #p 6-31g* mp2
 -------------

 ------------------------------------------------------
 Input file generated by CHIRIPA (05-May-2021 14:55:24)
 ------------------------------------------------------
 Symbolic Z-matrix:
 Charge =  0 Multiplicity = 1

                         Standard orientation:
 ---------------------------------------------------------------------
 Center     Atomic      Atomic             Coordinates (Angstroms)
 Number     Number       Type             X           Y           Z
 ---------------------------------------------------------------------
      1          6           0        4.990479    0.842439    0.397629
      2          6           0        4.969704   -0.295398   -0.415647
      3          6           0        3.778112   -0.995379   -0.627030
      4          6           0        2.620662   -0.527484   -0.006808
      5          6           0        2.609153    0.602845    0.808982
      6          6           0        3.812214    1.287144    1.006275
      7          1           0        5.920592    1.380110    0.556364
      8          1           0        5.883235   -0.643058   -0.889608
      9          1           0        3.733608   -1.879187   -1.251786
     10          1           0        1.682434    0.925218    1.267988
     11          1           0        3.825370    2.170495    1.638385
     12          7           0        1.353106   -1.260222   -0.223131
     13          8           0        0.346955   -0.827582    0.334651
     14          8           0        1.389747   -2.253307   -0.946371
     15          6           0       -4.124423   -0.020276   -0.232636
     16          6           0       -4.217917   -1.157860    0.784786
     17          6           0       -5.227470   -2.232167    0.379248
     18          1           0       -5.116603    0.434932   -0.356366
     19          1           0       -3.846557   -0.435056   -1.211483
     20          1           0       -4.494174   -0.740888    1.761737
     21          1           0       -3.225359   -1.610289    0.906252
     22          1           0       -4.952589   -2.675391   -0.583350
     23          1           0       -6.228611   -1.801050    0.276996
     24          1           0       -5.278214   -3.035711    1.120601
     25          6           0       -3.119279    1.061480    0.158793
     26          6           0       -3.025785    2.199064   -0.858629
     27          6           0       -2.016232    3.273371   -0.453090
     28          1           0       -3.397145    1.476260    1.137641
     29          1           0       -2.127099    0.606273    0.282524
     30          1           0       -4.018342    2.651492   -0.980094
     31          1           0       -2.749529    1.782092   -1.835579
     32          1           0       -1.015091    2.842254   -0.350838
     33          1           0       -2.291113    3.716594    0.509507
     34          1           0       -1.965488    4.076914   -1.194444
 ---------------------------------------------------------------------

 SCF Done:  E(RHF) =  -669.536475293     A.U. after   15 cycles
 E2 =    -0.2091185549D+01 EUMP2 =    -0.67162766084234D+03

 The electronic state is 1-A.
 Alpha  occ. eigenvalues --  -20.61028 -20.61017 -15.86059 -11.31336 -11.27894
 Alpha  occ. eigenvalues --  -11.27890 -11.27624 -11.26894 -11.26883 -11.20805
 Alpha  occ. eigenvalues --  -11.20573 -11.20424 -11.20283 -11.20156 -11.20098
 Alpha  occ. eigenvalues --   -1.60084  -1.39642  -1.19501  -1.08913  -1.07382
 Alpha  occ. eigenvalues --   -1.04891  -1.02615  -0.95762  -0.95080  -0.86293
 Alpha  occ. eigenvalues --   -0.86112  -0.82599  -0.78674  -0.77664  -0.77159
 Alpha  occ. eigenvalues --   -0.72286  -0.71396  -0.70609  -0.65160  -0.64893
 Alpha  occ. eigenvalues --   -0.63984  -0.62238  -0.60009  -0.58466  -0.56688
 Alpha  occ. eigenvalues --   -0.55397  -0.54364  -0.53224  -0.52981  -0.51829
 Alpha  occ. eigenvalues --   -0.51526  -0.49079  -0.49045  -0.48989  -0.47006
 Alpha  occ. eigenvalues --   -0.45691  -0.45106  -0.44736  -0.44481  -0.42822
 Alpha  occ. eigenvalues --   -0.37477  -0.36490
 Alpha virt. eigenvalues --    0.04849   0.11157   0.16342   0.21121   0.23804
 Alpha virt. eigenvalues --    0.24959   0.26734   0.27457   0.28032   0.28856
 Alpha virt. eigenvalues --    0.29055   0.30812   0.31692   0.32428   0.32786

 Mulliken charges:
               1
     1  C   -0.170481
     2  C   -0.218557
     3  C   -0.170613
     4  C    0.157555
     5  C   -0.171256
     6  C   -0.218441
     7  H    0.226227
     8  H    0.223968
     9  H    0.275873
    10  H    0.276321
    11  H    0.224336
    12  N    0.494156
    13  O   -0.466869
    14  O   -0.458555
    15  C   -0.296088
    16  C   -0.303089
    17  C   -0.475225
    18  H    0.143527
    19  H    0.151326
    20  H    0.146598
    21  H    0.166892
    22  H    0.156130
    23  H    0.150828
    24  H    0.157794
    25  C   -0.311461
    26  C   -0.297874
    27  C   -0.474826
    28  H    0.142507
    29  H    0.177375
    30  H    0.148322
    31  H    0.152458
    32  H    0.152323
    33  H    0.152139
    34  H    0.156680
 Sum of Mulliken charges =  -0.00000

 Dipole moment (field-independent basis, Debye):
    X=              4.7919    Y=              2.4076    Z=              0.7561  Tot=              5.4158
 Quadrupole moment (field-independent basis, Debye-Ang):
   XX=            -71.7144   YY=            -96.8418   ZZ=            -93.5088
   XY=              2.1281   XZ=             -0.0004   YZ=              2.1123

 Normal termination of Gaussian 16 at Wed May  5 22:25:03 2021.
