 Gaussian 16, Revision A.03,
 Gaussian 16:  EM64L-G16RevA.03 25-Dec-2016

 -------------
 #p 6-31g* mp2
 -------------

 ------------------------------------------------------
 Input file generated by CHIRIPA (05-May-2021 14:51:09)
 ------------------------------------------------------
 Symbolic Z-matrix:
 Charge =  0 Multiplicity = 1

                         Standard orientation:
 ---------------------------------------------------------------------
 Center     Atomic      Atomic             Coordinates (Angstroms)
 Number     Number       Type             X           Y           Z
 ---------------------------------------------------------------------
      1          6           0       -3.406858    0.316031    0.188199
      2          6           0       -2.082157   -0.337133    0.583836
      3          6           0       -0.933775    0.667540    0.682035
      4          1           0       -3.282373    0.828143   -0.775746
      5          1           0       -3.659244    1.092015    0.924096
      6          1           0       -1.833039   -1.112602   -0.151830
      7          1           0       -2.209863   -0.847912    1.546859
      8          1           0       -1.156607    1.435430    1.429894
      9          1           0       -0.777643    1.169235   -0.278446
     10          1           0        0.003645    0.179248    0.966071
     11          6           0       -4.564475   -0.675528    0.085908
     12          6           0       -5.889176   -0.022364   -0.309730
     13          6           0       -7.037559   -1.027037   -0.407929
     14          1           0       -4.312089   -1.451513   -0.649989
     15          1           0       -4.688960   -1.187640    1.049852
     16          1           0       -5.761471    0.488414   -1.272752
     17          1           0       -6.138294    0.753105    0.425936
     18          1           0       -7.193690   -1.528733    0.552553
     19          1           0       -6.814726   -1.794927   -1.155787
     20          1           0       -7.974978   -0.538745   -0.691964
     21          6           0        3.779340    0.869451    0.118233
     22          6           0        2.582983    1.459670   -0.628999
     23          6           0        2.182136    2.839696   -0.106842
     24          1           0        3.538669    0.802575    1.188069
     25          1           0        4.632116    1.557017    0.032079
     26          1           0        1.733125    0.770543   -0.542627
     27          1           0        2.826459    1.524971   -1.697208
     28          1           0        3.012484    3.546005   -0.208084
     29          1           0        1.912939    2.787290    0.953057
     30          1           0        1.324974    3.242943   -0.655044
     31          6           0        4.191993   -0.509954   -0.392339
     32          6           0        5.388351   -1.100173    0.354893
     33          6           0        5.789196   -2.480198   -0.167264
     34          1           0        3.339218   -1.197520   -0.306184
     35          1           0        4.432664   -0.443078   -1.462176
     36          1           0        5.144875   -1.165474    1.423103
     37          1           0        6.238209   -0.411045    0.268521
     38          1           0        6.058395   -2.427792   -1.227164
     39          1           0        4.958849   -3.186508   -0.066022
     40          1           0        6.646358   -2.883445    0.380937
 ---------------------------------------------------------------------

 SCF Done:  E(RHF) =  -470.732443538     A.U. after   11 cycles
 E2 =    -0.1583213118D+01 EUMP2 =    -0.47231565665598D+03

 The electronic state is 1-A.
 Alpha  occ. eigenvalues --  -11.21637 -11.21619 -11.21572 -11.21432 -11.21407
 Alpha  occ. eigenvalues --  -11.21372 -11.21350 -11.21278 -11.21103 -11.21085
 Alpha  occ. eigenvalues --  -11.21051 -11.20949  -1.08463  -1.08358  -1.03589
 Alpha  occ. eigenvalues --   -1.03430  -0.96052  -0.95877  -0.87043  -0.86923
 Alpha  occ. eigenvalues --   -0.79667  -0.79488  -0.78277  -0.78168  -0.65115
 Alpha  occ. eigenvalues --   -0.64992  -0.61075  -0.60819  -0.59379  -0.59252
 Alpha  occ. eigenvalues --   -0.57638  -0.57521  -0.55347  -0.55159  -0.52715
 Alpha  occ. eigenvalues --   -0.52616  -0.52434  -0.52305  -0.50011  -0.49804
 Alpha  occ. eigenvalues --   -0.47952  -0.47815  -0.46763  -0.46438  -0.45820
 Alpha  occ. eigenvalues --   -0.45756  -0.45707  -0.45584  -0.43780  -0.43688
 Alpha virt. eigenvalues --    0.21505   0.22981   0.23650   0.24851   0.26301
 Alpha virt. eigenvalues --    0.26545   0.26843   0.27482   0.27852   0.29246
 Alpha virt. eigenvalues --    0.30048   0.31449   0.31620   0.32021   0.32458

 Mulliken charges:
               1
     1  C   -0.298676
     2  C   -0.300638
     3  C   -0.477938
     4  H    0.149833
     5  H    0.149687
     6  H    0.151959
     7  H    0.151877
     8  H    0.155710
     9  H    0.158337
    10  H    0.161551
    11  C   -0.298304
    12  C   -0.299672
    13  C   -0.475722
    14  H    0.149582
    15  H    0.149680
    16  H    0.151991
    17  H    0.151975
    18  H    0.155190
    19  H    0.155214
    20  H    0.160325
    21  C   -0.298411
    22  C   -0.306580
    23  C   -0.474694
    24  H    0.148925
    25  H    0.149214
    26  H    0.160349
    27  H    0.150507
    28  H    0.154153
    29  H    0.155956
    30  H    0.159516
    31  C   -0.298010
    32  C   -0.299548
    33  C   -0.475663
    34  H    0.148681
    35  H    0.149612
    36  H    0.151764
    37  H    0.151959
    38  H    0.155123
    39  H    0.155035
    40  H    0.160148
 Sum of Mulliken charges =  -0.00000

 Dipole moment (field-independent basis, Debye):
    X=             -0.0595    Y=              0.0017    Z=              0.0100  Tot=              0.0603
 Quadrupole moment (field-independent basis, Debye-Ang):
   XX=            -85.5846   YY=            -86.0192   ZZ=            -83.4418
   XY=              0.0338   XZ=             -0.6178   YZ=             -0.4457

 Normal termination of Gaussian 16 at Wed May  5 15:09:13 2021.
