 Gaussian 16, Revision A.03,
 Gaussian 16:  EM64L-G16RevA.03 25-Dec-2016

 -------------
 #p 6-31g* mp2
 -------------

 ------------------------------------------------------
 Input file generated by CHIRIPA (05-May-2021 14:57:23)
 ------------------------------------------------------
 Symbolic Z-matrix:
 Charge =  0 Multiplicity = 1

                         Standard orientation:
 ---------------------------------------------------------------------
 Center     Atomic      Atomic             Coordinates (Angstroms)
 Number     Number       Type             X           Y           Z
 ---------------------------------------------------------------------
      1          6           0        3.887867    2.184372    1.107993
      2          6           0        4.803181    1.524905    0.281055
      3          6           0        4.460403    0.318962   -0.337615
      4          6           0        3.187998   -0.201402   -0.106320
      5          6           0        2.254020    0.431890    0.712164
      6          6           0        2.618446    1.636725    1.320534
      7          1           0        4.162554    3.120747    1.584590
      8          1           0        5.789737    1.947878    0.114187
      9          1           0        5.149570   -0.212532   -0.982581
     10          1           0        1.278026   -0.014378    0.859468
     11          1           0        1.905564    2.146678    1.962244
     12          7           0        2.813656   -1.477493   -0.755826
     13          8           0        1.686372   -1.915143   -0.535981
     14          8           0        3.654618   -2.015881   -1.472456
     15          6           0       -2.768982   -1.450393    2.013467
     16          6           0       -1.972209   -1.558702    0.868940
     17          6           0       -2.229348   -0.765037   -0.252899
     18          6           0       -3.296168    0.130444   -0.195451
     19          6           0       -4.108064    0.261500    0.930132
     20          6           0       -3.832492   -0.542238    2.040363
     21          1           0       -2.562070   -2.070845    2.880430
     22          1           0       -1.145606   -2.263124    0.845217
     23          1           0       -1.628442   -0.828464   -1.151957
     24          1           0       -4.925028    0.972802    0.923910
     25          1           0       -4.452946   -0.455983    2.927855
     26          7           0       -3.578147    0.975993   -1.376947
     27          8           0       -4.523957    1.757230   -1.301117
     28          8           0       -2.848013    0.841489   -2.356462
 ---------------------------------------------------------------------

 SCF Done:  E(RHF) =  -868.340132558     A.U. after   16 cycles
 E2 =    -0.2599164221D+01 EUMP2 =    -0.87093929677948D+03

 The electronic state is 1-A.
 Alpha  occ. eigenvalues --  -20.61416 -20.61338 -20.60568 -20.60552 -15.86423
 Alpha  occ. eigenvalues --  -15.85611 -11.31545 -11.30928 -11.28101 -11.28071
 Alpha  occ. eigenvalues --  -11.27782 -11.27545 -11.27374 -11.27228 -11.27053
 Alpha  occ. eigenvalues --  -11.27039 -11.26560 -11.26330  -1.60434  -1.59642
 Alpha  occ. eigenvalues --   -1.40003  -1.39194  -1.19694  -1.19100  -1.09131
 Alpha  occ. eigenvalues --   -1.08508  -1.05065  -1.04458  -0.96009  -0.95345
 Alpha  occ. eigenvalues --   -0.86477  -0.85860  -0.82863  -0.82146  -0.77942
 Alpha  occ. eigenvalues --   -0.77189  -0.72661  -0.71826  -0.71734  -0.70970
 Alpha  occ. eigenvalues --   -0.70807  -0.70192  -0.65359  -0.65070  -0.64727
 Alpha  occ. eigenvalues --   -0.64407  -0.62427  -0.61749  -0.55573  -0.54983
 Alpha  occ. eigenvalues --   -0.53401  -0.53176  -0.52828  -0.52494  -0.49413
 Alpha  occ. eigenvalues --   -0.49363  -0.48588  -0.48578  -0.45459  -0.44608
 Alpha  occ. eigenvalues --   -0.37657  -0.37117  -0.36655  -0.36085
 Alpha virt. eigenvalues --    0.04584   0.05262   0.10992   0.11547   0.16128
 Alpha virt. eigenvalues --    0.16653   0.20905   0.21919   0.26492   0.27351
 Alpha virt. eigenvalues --    0.28472   0.28808   0.30691   0.31402   0.32574

 Mulliken charges:
               1
     1  C   -0.169678
     2  C   -0.218369
     3  C   -0.170033
     4  C    0.158669
     5  C   -0.171325
     6  C   -0.218453
     7  H    0.227319
     8  H    0.225012
     9  H    0.276411
    10  H    0.271852
    11  H    0.225029
    12  N    0.492473
    13  O   -0.474968
    14  O   -0.454806
    15  C   -0.173352
    16  C   -0.230130
    17  C   -0.176989
    18  C    0.157663
    19  C   -0.172583
    20  C   -0.219437
    21  H    0.225102
    22  H    0.243427
    23  H    0.285079
    24  H    0.274046
    25  H    0.221595
    26  N    0.487710
    27  O   -0.462614
    28  O   -0.458649
 Sum of Mulliken charges =  -0.00000

 Dipole moment (field-independent basis, Debye):
    X=              2.6095    Y=              1.4914    Z=              6.3673  Tot=              7.0410
 Quadrupole moment (field-independent basis, Debye-Ang):
   XX=            -96.1296   YY=           -107.5165   ZZ=           -106.0574
   XY=             22.6300   XZ=            -11.0791   YZ=              1.6521

 Normal termination of Gaussian 16 at Fri May  7 11:02:22 2021.
