 Gaussian 16, Revision A.03,
 Gaussian 16:  EM64L-G16RevA.03 25-Dec-2016

 -------------
 #p 6-31g* mp2
 -------------

 ------------------------------------------------------
 Input file generated by CHIRIPA (05-May-2021 14:55:25)
 ------------------------------------------------------
 Symbolic Z-matrix:
 Charge =  0 Multiplicity = 1

                         Standard orientation:
 ---------------------------------------------------------------------
 Center     Atomic      Atomic             Coordinates (Angstroms)
 Number     Number       Type             X           Y           Z
 ---------------------------------------------------------------------
      1          6           0        3.131922    1.233509    0.633782
      2          6           0        2.594138    0.435119    1.648614
      3          6           0        1.849574   -0.705862    1.335034
      4          6           0        1.661490   -1.020310   -0.009971
      5          6           0        2.184442   -0.244909   -1.043685
      6          6           0        2.925721    0.891549   -0.706765
      7          1           0        3.709042    2.118094    0.886444
      8          1           0        2.752671    0.698261    2.690568
      9          1           0        1.421897   -1.341645    2.100730
     10          1           0        2.009491   -0.532810   -2.073211
     11          1           0        3.342182    1.509735   -1.496988
     12          7           0        0.874991   -2.225822   -0.354298
     13          8           0        0.723572   -2.481248   -1.546970
     14          8           0        0.424846   -2.892450    0.575010
     15          6           0       -1.812978    1.586128    0.200389
     16          6           0       -0.834959    2.091718   -0.860667
     17          6           0        0.118092    3.160521   -0.324806
     18          1           0       -2.392567    2.434381    0.589605
     19          1           0       -1.244967    1.180097    1.048858
     20          1           0       -1.404649    2.495412   -1.707485
     21          1           0       -0.257765    1.242134   -1.247539
     22          1           0        0.711583    2.765776    0.506186
     23          1           0       -0.441818    4.026175    0.043628
     24          1           0        0.808436    3.507831   -1.099829
     25          6           0       -2.772274    0.517238   -0.320143
     26          6           0       -3.750292    0.011647    0.740915
     27          6           0       -4.703344   -1.057155    0.205052
     28          1           0       -3.340284    0.923267   -1.168612
     29          1           0       -2.192685   -0.331016   -0.709359
     30          1           0       -4.327486    0.861231    1.127787
     31          1           0       -3.180603   -0.392048    1.587732
     32          1           0       -4.143434   -1.922811   -0.163380
     33          1           0       -5.296834   -0.662411   -0.625940
     34          1           0       -5.393689   -1.404466    0.980075
 ---------------------------------------------------------------------

 SCF Done:  E(RHF) =  -669.533924100     A.U. after   15 cycles
 E2 =    -0.2096089094D+01 EUMP2 =    -0.67163001319314D+03

 The electronic state is 1-A.
 Alpha  occ. eigenvalues --  -20.60926 -20.60914 -15.85977 -11.31337 -11.27936
 Alpha  occ. eigenvalues --  -11.27893 -11.27620 -11.26917 -11.26879 -11.21508
 Alpha  occ. eigenvalues --  -11.21238 -11.21200 -11.21151 -11.21025 -11.20525
 Alpha  occ. eigenvalues --   -1.60000  -1.39552  -1.19535  -1.08920  -1.08200
 Alpha  occ. eigenvalues --   -1.04933  -1.03297  -0.95799  -0.95718  -0.86792
 Alpha  occ. eigenvalues --   -0.86313  -0.82575  -0.79394  -0.77996  -0.77622
 Alpha  occ. eigenvalues --   -0.72188  -0.71335  -0.70624  -0.65171  -0.64916
 Alpha  occ. eigenvalues --   -0.64860  -0.62269  -0.60787  -0.59172  -0.57374
 Alpha  occ. eigenvalues --   -0.55414  -0.55217  -0.53057  -0.53008  -0.52451
 Alpha  occ. eigenvalues --   -0.52151  -0.49728  -0.48951  -0.48944  -0.47671
 Alpha  occ. eigenvalues --   -0.46489  -0.45522  -0.45481  -0.44933  -0.43567
 Alpha  occ. eigenvalues --   -0.37363  -0.36453
 Alpha virt. eigenvalues --    0.04881   0.11010   0.16337   0.21047   0.22910
 Alpha virt. eigenvalues --    0.24561   0.26545   0.26767   0.27514   0.28199
 Alpha virt. eigenvalues --    0.28645   0.30527   0.31472   0.31826   0.32372

 Mulliken charges:
               1
     1  C   -0.171781
     2  C   -0.219074
     3  C   -0.171335
     4  C    0.161924
     5  C   -0.176112
     6  C   -0.209710
     7  H    0.227248
     8  H    0.224554
     9  H    0.276263
    10  H    0.276569
    11  H    0.224555
    12  N    0.487906
    13  O   -0.460292
    14  O   -0.460332
    15  C   -0.299049
    16  C   -0.301697
    17  C   -0.476686
    18  H    0.148117
    19  H    0.147210
    20  H    0.151360
    21  H    0.153984
    22  H    0.157578
    23  H    0.153251
    24  H    0.150363
    25  C   -0.300398
    26  C   -0.298908
    27  C   -0.477169
    28  H    0.148989
    29  H    0.155478
    30  H    0.148766
    31  H    0.152830
    32  H    0.163675
    33  H    0.153153
    34  H    0.158770
 Sum of Mulliken charges =  -0.00000

 Dipole moment (field-independent basis, Debye):
    X=              2.8999    Y=              4.0656    Z=              1.2151  Tot=              5.1396
 Quadrupole moment (field-independent basis, Debye-Ang):
   XX=            -86.0586   YY=           -104.5681   ZZ=            -90.0938
   XY=              3.8056   XZ=              1.3631   YZ=             -2.6052

 Normal termination of Gaussian 16 at Thu May  6 01:39:07 2021.
