 Gaussian 16, Revision A.03,
 Gaussian 16:  EM64L-G16RevA.03 25-Dec-2016

 -------------
 #p 6-31g* mp2
 -------------

 ------------------------------------------------------
 Input file generated by CHIRIPA (05-May-2021 14:55:24)
 ------------------------------------------------------
 Symbolic Z-matrix:
 Charge =  0 Multiplicity = 1

                         Standard orientation:
 ---------------------------------------------------------------------
 Center     Atomic      Atomic             Coordinates (Angstroms)
 Number     Number       Type             X           Y           Z
 ---------------------------------------------------------------------
      1          6           0       -2.989277   -1.907212    0.991376
      2          6           0       -3.490877   -1.359106   -0.193739
      3          6           0       -3.109819   -0.076794   -0.599967
      4          6           0       -2.221419    0.632662    0.206697
      5          6           0       -1.704321    0.113947    1.392797
      6          6           0       -2.099170   -1.170236    1.779472
      7          1           0       -3.290648   -2.904069    1.299349
      8          1           0       -4.182291   -1.929156   -0.807770
      9          1           0       -3.482840    0.371688   -1.512731
     10          1           0       -1.016610    0.706381    1.983975
     11          1           0       -1.708017   -1.593371    2.700342
     12          7           0       -1.810711    1.991178   -0.213009
     13          8           0       -1.026742    2.595796    0.515323
     14          8           0       -2.280543    2.425642   -1.262360
     15          6           0        2.512811   -1.120554   -0.582291
     16          6           0        1.090132   -0.743232   -0.996535
     17          6           0        0.267791   -1.948892   -1.452532
     18          1           0        3.015891   -1.611072   -1.426830
     19          1           0        2.467031   -1.861795    0.227562
     20          1           0        1.138581   -0.001891   -1.804422
     21          1           0        0.590443   -0.253383   -0.150972
     22          1           0        0.189754   -2.688187   -0.648819
     23          1           0        0.741007   -2.435267   -2.311664
     24          1           0       -0.745786   -1.656431   -1.744061
     25          6           0        3.347308    0.074122   -0.123934
     26          6           0        4.769987   -0.303199    0.290309
     27          6           0        5.592328    0.902461    0.746307
     28          1           0        3.393087    0.815363   -0.933786
     29          1           0        2.844227    0.564641    0.720605
     30          1           0        5.269675   -0.793049   -0.555252
     31          1           0        4.721537   -1.044540    1.098198
     32          1           0        5.119112    1.388835    1.605440
     33          1           0        5.670364    1.641756   -0.057405
     34          1           0        6.605904    0.610001    1.037836
 ---------------------------------------------------------------------

 SCF Done:  E(RHF) =  -669.534012624     A.U. after   15 cycles
 E2 =    -0.2095360830D+01 EUMP2 =    -0.67162937345408D+03

 The electronic state is 1-A.
 Alpha  occ. eigenvalues --  -20.60832 -20.60820 -15.85872 -11.31241 -11.27836
 Alpha  occ. eigenvalues --  -11.27829 -11.27584 -11.26870 -11.26843 -11.21424
 Alpha  occ. eigenvalues --  -11.21361 -11.21240 -11.21114 -11.20948 -11.20852
 Alpha  occ. eigenvalues --   -1.59895  -1.39450  -1.19458  -1.08832  -1.08244
 Alpha  occ. eigenvalues --   -1.04871  -1.03360  -0.95818  -0.95661  -0.86832
 Alpha  occ. eigenvalues --   -0.86258  -0.82500  -0.79435  -0.78059  -0.77542
 Alpha  occ. eigenvalues --   -0.72096  -0.71220  -0.70559  -0.65106  -0.64914
 Alpha  occ. eigenvalues --   -0.64842  -0.62213  -0.60804  -0.59245  -0.57488
 Alpha  occ. eigenvalues --   -0.55353  -0.55178  -0.53220  -0.52949  -0.52339
 Alpha  occ. eigenvalues --   -0.52122  -0.49767  -0.48857  -0.48851  -0.47771
 Alpha  occ. eigenvalues --   -0.46499  -0.45624  -0.45536  -0.44801  -0.43624
 Alpha  occ. eigenvalues --   -0.37349  -0.36364
 Alpha virt. eigenvalues --    0.04958   0.11088   0.16458   0.21241   0.23043
 Alpha virt. eigenvalues --    0.24427   0.26469   0.27236   0.27502   0.27982
 Alpha virt. eigenvalues --    0.28635   0.30893   0.31511   0.31848   0.32029

 Mulliken charges:
               1
     1  C   -0.169012
     2  C   -0.216588
     3  C   -0.174491
     4  C    0.167431
     5  C   -0.177107
     6  C   -0.215878
     7  H    0.226177
     8  H    0.224150
     9  H    0.276050
    10  H    0.275493
    11  H    0.223785
    12  N    0.489331
    13  O   -0.460597
    14  O   -0.460324
    15  C   -0.297490
    16  C   -0.305667
    17  C   -0.476325
    18  H    0.149105
    19  H    0.144635
    20  H    0.156639
    21  H    0.153943
    22  H    0.149393
    23  H    0.153378
    24  H    0.160811
    25  C   -0.298283
    26  C   -0.299499
    27  C   -0.475543
    28  H    0.153710
    29  H    0.150727
    30  H    0.151328
    31  H    0.149010
    32  H    0.155746
    33  H    0.157084
    34  H    0.158880
 Sum of Mulliken charges =  -0.00000

 Dipole moment (field-independent basis, Debye):
    X=             -1.5694    Y=             -4.6814    Z=              1.4959  Tot=              5.1591
 Quadrupole moment (field-independent basis, Debye-Ang):
   XX=            -87.5531   YY=           -102.2556   ZZ=            -90.2972
   XY=             10.0155   XZ=             -1.5822   YZ=             -0.3058

 Normal termination of Gaussian 16 at Wed May  5 23:59:11 2021.
