 Gaussian 16, Revision A.03,
 Gaussian 16:  EM64L-G16RevA.03 25-Dec-2016

 -------------
 #p 6-31g* mp2
 -------------

 ------------------------------------------------------
 Input file generated by CHIRIPA (05-May-2021 14:57:25)
 ------------------------------------------------------
 Symbolic Z-matrix:
 Charge =  0 Multiplicity = 1

                         Standard orientation:
 ---------------------------------------------------------------------
 Center     Atomic      Atomic             Coordinates (Angstroms)
 Number     Number       Type             X           Y           Z
 ---------------------------------------------------------------------
      1          6           0       -4.553942   -2.325115    0.462780
      2          6           0       -3.214738   -1.982674    0.676761
      3          6           0       -2.764726   -0.683642    0.422686
      4          6           0       -3.685209    0.252073   -0.046824
      5          6           0       -5.025773   -0.058428   -0.269911
      6          6           0       -5.453599   -1.363594   -0.009041
      7          1           0       -4.894904   -3.336617    0.662791
      8          1           0       -2.513820   -2.727343    1.043130
      9          1           0       -1.733502   -0.391462    0.579613
     10          1           0       -5.700965    0.705602   -0.635689
     11          1           0       -6.494224   -1.626701   -0.176136
     12          7           0       -3.220546    1.630547   -0.319398
     13          8           0       -4.051348    2.436587   -0.732562
     14          8           0       -2.034339    1.878853   -0.114717
     15          6           0        3.132208    2.363351    0.517537
     16          6           0        2.134301    1.401854    0.327210
     17          6           0        2.471524    0.075607    0.041036
     18          6           0        3.822658   -0.255769   -0.047950
     19          6           0        4.839920    0.679346    0.136510
     20          6           0        4.479458    1.999670    0.421747
     21          1           0        2.861219    3.391312    0.739481
     22          1           0        1.087192    1.681430    0.401005
     23          1           0        1.719291   -0.688912   -0.110869
     24          1           0        5.875119    0.370471    0.056660
     25          1           0        5.256575    2.744269    0.569080
     26          7           0        4.191962   -1.656673   -0.350415
     27          8           0        5.389581   -1.923134   -0.423502
     28          8           0        3.276810   -2.461712   -0.508671
 ---------------------------------------------------------------------

 SCF Done:  E(RHF) =  -868.339814809     A.U. after   16 cycles
 E2 =    -0.2598574162D+01 EUMP2 =    -0.87093838897134D+03

 The electronic state is 1-A.
 Alpha  occ. eigenvalues --  -20.61531 -20.61476 -20.60622 -20.60606 -15.86551
 Alpha  occ. eigenvalues --  -15.85661 -11.31674 -11.30864 -11.28256 -11.28179
 Alpha  occ. eigenvalues --  -11.27862 -11.27392 -11.27388 -11.27148 -11.27138
 Alpha  occ. eigenvalues --  -11.27008 -11.26380 -11.26192  -1.60563  -1.59693
 Alpha  occ. eigenvalues --   -1.40131  -1.39253  -1.19810  -1.18985  -1.09239
 Alpha  occ. eigenvalues --   -1.08396  -1.05179  -1.04353  -0.96123  -0.95275
 Alpha  occ. eigenvalues --   -0.86587  -0.85745  -0.82972  -0.82106  -0.78057
 Alpha  occ. eigenvalues --   -0.77189  -0.72787  -0.71885  -0.71866  -0.71011
 Alpha  occ. eigenvalues --   -0.70917  -0.70082  -0.65469  -0.65171  -0.64625
 Alpha  occ. eigenvalues --   -0.64301  -0.62545  -0.61693  -0.55668  -0.54820
 Alpha  occ. eigenvalues --   -0.53513  -0.53267  -0.52701  -0.52407  -0.49547
 Alpha  occ. eigenvalues --   -0.49487  -0.48653  -0.48617  -0.45587  -0.44696
 Alpha  occ. eigenvalues --   -0.37758  -0.36936  -0.36768  -0.35956
 Alpha virt. eigenvalues --    0.04478   0.05317   0.10889   0.11705   0.16038
 Alpha virt. eigenvalues --    0.16878   0.19788   0.22061   0.25170   0.27337
 Alpha virt. eigenvalues --    0.28615   0.29230   0.30775   0.31398   0.32641

 Mulliken charges:
               1
     1  C   -0.169946
     2  C   -0.217844
     3  C   -0.169497
     4  C    0.158877
     5  C   -0.170628
     6  C   -0.218160
     7  H    0.228617
     8  H    0.228051
     9  H    0.267754
    10  H    0.276321
    11  H    0.225387
    12  N    0.494012
    13  O   -0.455754
    14  O   -0.475375
    15  C   -0.171902
    16  C   -0.226255
    17  C   -0.173730
    18  C    0.158944
    19  C   -0.172513
    20  C   -0.218223
    21  H    0.228950
    22  H    0.245667
    23  H    0.267838
    24  H    0.273919
    25  H    0.222478
    26  N    0.488378
    27  O   -0.460765
    28  O   -0.464601
 Sum of Mulliken charges =  -0.00000

 Dipole moment (field-independent basis, Debye):
    X=             -3.2985    Y=              0.1347    Z=              2.0412  Tot=              3.8813
 Quadrupole moment (field-independent basis, Debye-Ang):
   XX=            -93.1491   YY=           -109.8699   ZZ=           -106.2956
   XY=             37.7758   XZ=              2.4686   YZ=             -0.5025

 Normal termination of Gaussian 16 at Thu May  6 11:24:27 2021.
