 Gaussian 16, Revision A.03,
 Gaussian 16:  EM64L-G16RevA.03 25-Dec-2016

 -------------
 #p 6-31g* mp2
 -------------

 ------------------------------------------------------
 Input file generated by CHIRIPA (05-May-2021 14:57:22)
 ------------------------------------------------------
 Symbolic Z-matrix:
 Charge =  0 Multiplicity = 1

                         Standard orientation:
 ---------------------------------------------------------------------
 Center     Atomic      Atomic             Coordinates (Angstroms)
 Number     Number       Type             X           Y           Z
 ---------------------------------------------------------------------
      1          6           0        0.581598   -1.273386    1.204825
      2          6           0        1.222745   -2.003635    0.198749
      3          6           0        2.401732   -1.527604   -0.382569
      4          6           0        2.914114   -0.312105    0.068340
      5          6           0        2.298593    0.438560    1.068803
      6          6           0        1.120618   -0.056764    1.635880
      7          1           0       -0.333875   -1.650672    1.650875
      8          1           0        0.806415   -2.948790   -0.137997
      9          1           0        2.918619   -2.072556   -1.163128
     10          1           0        2.737641    1.377474    1.383597
     11          1           0        0.624847    0.512494    2.417035
     12          7           0        4.161719    0.202060   -0.539537
     13          8           0        4.592840    1.275670   -0.124648
     14          8           0        4.684847   -0.478283   -1.419371
     15          6           0       -1.641275    2.675781    0.014296
     16          6           0       -2.098412    2.214242   -1.224465
     17          6           0       -2.691338    0.953211   -1.337536
     18          6           0       -2.811668    0.176526   -0.186200
     19          6           0       -2.366047    0.608373    1.062087
     20          6           0       -1.776312    1.872788    1.151613
     21          1           0       -1.181915    3.656694    0.092988
     22          1           0       -1.994854    2.835696   -2.109403
     23          1           0       -3.053919    0.571200   -2.284121
     24          1           0       -2.483129   -0.033885    1.926501
     25          1           0       -1.422203    2.228637    2.114953
     26          7           0       -3.437682   -1.160262   -0.293441
     27          8           0       -3.532000   -1.825302    0.735861
     28          8           0       -3.822182   -1.517685   -1.404767
 ---------------------------------------------------------------------

 SCF Done:  E(RHF) =  -868.336041277     A.U. after   16 cycles
 E2 =    -0.2603738507D+01 EUMP2 =    -0.87093977978442D+03

 The electronic state is 1-A.
 Alpha  occ. eigenvalues --  -20.61725 -20.61681 -20.60931 -20.60917 -15.86736
 Alpha  occ. eigenvalues --  -15.85980 -11.31987 -11.31295 -11.28638 -11.28478
 Alpha  occ. eigenvalues --  -11.28216 -11.27902 -11.27809 -11.27596 -11.27511
 Alpha  occ. eigenvalues --  -11.27443 -11.26940 -11.26767  -1.60772  -1.60005
 Alpha  occ. eigenvalues --   -1.40332  -1.39560  -1.20156  -1.19458  -1.09553
 Alpha  occ. eigenvalues --   -1.08863  -1.05576  -1.04859  -0.96419  -0.95699
 Alpha  occ. eigenvalues --   -0.86972  -0.86276  -0.83267  -0.82543  -0.78360
 Alpha  occ. eigenvalues --   -0.77602  -0.72956  -0.72199  -0.72110  -0.71330
 Alpha  occ. eigenvalues --   -0.71297  -0.70505  -0.65823  -0.65609  -0.65113
 Alpha  occ. eigenvalues --   -0.64904  -0.62937  -0.62201  -0.56029  -0.55340
 Alpha  occ. eigenvalues --   -0.54146  -0.53666  -0.52987  -0.52860  -0.49731
 Alpha  occ. eigenvalues --   -0.49696  -0.48959  -0.48950  -0.45753  -0.44978
 Alpha  occ. eigenvalues --   -0.38198  -0.37962  -0.36810  -0.36045
 Alpha virt. eigenvalues --    0.04127   0.04916   0.10375   0.11215   0.15691
 Alpha virt. eigenvalues --    0.16571   0.18985   0.22239   0.25285   0.26042
 Alpha virt. eigenvalues --    0.27946   0.29039   0.30095   0.31369   0.32975

 Mulliken charges:
               1
     1  C   -0.175092
     2  C   -0.220911
     3  C   -0.171157
     4  C    0.158204
     5  C   -0.174265
     6  C   -0.209093
     7  H    0.233046
     8  H    0.230005
     9  H    0.276376
    10  H    0.271585
    11  H    0.211257
    12  N    0.487993
    13  O   -0.462752
    14  O   -0.459405
    15  C   -0.168832
    16  C   -0.216920
    17  C   -0.169422
    18  C    0.161424
    19  C   -0.175094
    20  C   -0.216529
    21  H    0.229487
    22  H    0.228078
    23  H    0.277953
    24  H    0.269298
    25  H    0.219354
    26  N    0.487646
    27  O   -0.466928
    28  O   -0.455306
 Sum of Mulliken charges =  -0.00000

 Dipole moment (field-independent basis, Debye):
    X=             -2.3394    Y=              2.9241    Z=              2.2192  Tot=              4.3529
 Quadrupole moment (field-independent basis, Debye-Ang):
   XX=           -144.5988   YY=            -98.9953   ZZ=            -98.7687
   XY=            -17.5427   XZ=              5.4915   YZ=              0.1569

 Normal termination of Gaussian 16 at Thu May  6 16:13:26 2021.
