 Gaussian 16, Revision A.03,
 Gaussian 16:  EM64L-G16RevA.03 25-Dec-2016

 -------------
 #p 6-31g* mp2
 -------------

 ------------------------------------------------------
 Input file generated by CHIRIPA (05-May-2021 14:55:21)
 ------------------------------------------------------
 Symbolic Z-matrix:
 Charge =  0 Multiplicity = 1

                         Standard orientation:
 ---------------------------------------------------------------------
 Center     Atomic      Atomic             Coordinates (Angstroms)
 Number     Number       Type             X           Y           Z
 ---------------------------------------------------------------------
      1          6           0       -0.967628   -1.608184    0.685282
      2          6           0       -1.263814   -1.359006   -0.658855
      3          6           0       -2.323855   -0.517028   -1.008046
      4          6           0       -3.070344    0.061705    0.017191
      5          6           0       -2.800052   -0.167047    1.365488
      6          6           0       -1.735339   -1.012459    1.691390
      7          1           0       -0.142348   -2.263586    0.947496
      8          1           0       -0.669302   -1.820284   -1.442323
      9          1           0       -2.575040   -0.306908   -2.040603
     10          1           0       -3.410624    0.307204    2.124241
     11          1           0       -1.507611   -1.204169    2.736106
     12          7           0       -4.195035    0.954887   -0.340154
     13          8           0       -4.837554    1.452572    0.581863
     14          8           0       -4.412753    1.140366   -1.535493
     15          6           0        3.575447   -0.580874    0.207778
     16          6           0        3.133825   -1.628672   -0.814510
     17          6           0        2.903073   -3.004551   -0.188807
     18          1           0        4.497766   -0.921799    0.697722
     19          1           0        2.813340   -0.503307    0.995542
     20          1           0        3.895883   -1.703247   -1.600845
     21          1           0        2.212555   -1.285126   -1.302213
     22          1           0        2.127612   -2.951961    0.582228
     23          1           0        3.820504   -3.372459    0.281899
     24          1           0        2.588036   -3.738258   -0.937329
     25          6           0        3.810106    0.799760   -0.402558
     26          6           0        4.251728    1.847558    0.619730
     27          6           0        4.482480    3.223437   -0.005972
     28          1           0        4.572213    0.722192   -1.190322
     29          1           0        2.887787    1.140684   -0.892502
     30          1           0        5.172998    1.504010    1.107433
     31          1           0        3.489670    1.922133    1.406065
     32          1           0        3.565049    3.591345   -0.476679
     33          1           0        5.257941    3.170846   -0.777008
     34          1           0        4.797518    3.957143    0.742550
 ---------------------------------------------------------------------

 SCF Done:  E(RHF) =  -669.535524826     A.U. after   15 cycles
 E2 =    -0.2091704490D+01 EUMP2 =    -0.67162722931593D+03

 The electronic state is 1-A.
 Alpha  occ. eigenvalues --  -20.60778 -20.60773 -15.85832 -11.31205 -11.27775
 Alpha  occ. eigenvalues --  -11.27771 -11.27494 -11.26787 -11.26777 -11.22597
 Alpha  occ. eigenvalues --  -11.22303 -11.22169 -11.22049 -11.21933 -11.21394
 Alpha  occ. eigenvalues --   -1.59853  -1.39407  -1.19377  -1.09149  -1.08767
 Alpha  occ. eigenvalues --   -1.04781  -1.04269  -0.96722  -0.95602  -0.87737
 Alpha  occ. eigenvalues --   -0.86175  -0.82437  -0.80347  -0.78908  -0.77482
 Alpha  occ. eigenvalues --   -0.72049  -0.71177  -0.70510  -0.65797  -0.65025
 Alpha  occ. eigenvalues --   -0.64774  -0.62143  -0.61653  -0.60118  -0.58313
 Alpha  occ. eigenvalues --   -0.56120  -0.55196  -0.53418  -0.53133  -0.53101
 Alpha  occ. eigenvalues --   -0.52870  -0.50661  -0.48810  -0.48804  -0.48649
 Alpha  occ. eigenvalues --   -0.47378  -0.46458  -0.46349  -0.44810  -0.44494
 Alpha  occ. eigenvalues --   -0.37349  -0.36385
 Alpha virt. eigenvalues --    0.05039   0.11188   0.16470   0.18883   0.22773
 Alpha virt. eigenvalues --    0.23993   0.24902   0.25698   0.26918   0.27847
 Alpha virt. eigenvalues --    0.28981   0.29707   0.30941   0.31556   0.31996

 Mulliken charges:
               1
     1  C   -0.175539
     2  C   -0.222879
     3  C   -0.171061
     4  C    0.158426
     5  C   -0.170667
     6  C   -0.220376
     7  H    0.234283
     8  H    0.225520
     9  H    0.275731
    10  H    0.275640
    11  H    0.223928
    12  N    0.488000
    13  O   -0.460365
    14  O   -0.460384
    15  C   -0.297830
    16  C   -0.302287
    17  C   -0.479715
    18  H    0.151743
    19  H    0.146921
    20  H    0.156930
    21  H    0.148541
    22  H    0.145607
    23  H    0.162186
    24  H    0.161704
    25  C   -0.299138
    26  C   -0.300156
    27  C   -0.476310
    28  H    0.150857
    29  H    0.151646
    30  H    0.152211
    31  H    0.152287
    32  H    0.157035
    33  H    0.155722
    34  H    0.161790
 Sum of Mulliken charges =  -0.00000

 Dipole moment (field-independent basis, Debye):
    X=              4.1330    Y=             -3.0824    Z=              1.2334  Tot=              5.3014
 Quadrupole moment (field-independent basis, Debye-Ang):
   XX=           -118.0300   YY=            -96.7379   ZZ=            -90.0760
   XY=              9.3341   XZ=             -5.1259   YZ=              1.2280

 Normal termination of Gaussian 16 at Wed May  5 17:26:47 2021.
