 Gaussian 16, Revision A.03,
 Gaussian 16:  EM64L-G16RevA.03 25-Dec-2016

 -------------
 #p 6-31g* mp2
 -------------

 ------------------------------------------------------
 Input file generated by CHIRIPA (05-May-2021 14:53:12)
 ------------------------------------------------------
 Symbolic Z-matrix:
 Charge =  0 Multiplicity = 1

                         Standard orientation:
 ---------------------------------------------------------------------
 Center     Atomic      Atomic             Coordinates (Angstroms)
 Number     Number       Type             X           Y           Z
 ---------------------------------------------------------------------
      1          6           0        4.782176    0.165934    0.209822
      2          6           0        5.663464    0.198504   -1.039280
      3          6           0        6.929175    1.034700   -0.848109
      4          1           0        4.506561    1.193660    0.483248
      5          1           0        5.364574   -0.235694    1.050597
      6          1           0        5.079157    0.598659   -1.877777
      7          1           0        5.936855   -0.829431   -1.309876
      8          1           0        7.535765    0.633813   -0.029610
      9          1           0        6.673194    2.070018   -0.600738
     10          1           0        7.544484    1.044332   -1.753184
     11          6           0        3.513056   -0.666085    0.034301
     12          6           0        2.631768   -0.698655    1.283403
     13          6           0        1.366057   -1.534851    1.092232
     14          1           0        2.930658   -0.264457   -0.806473
     15          1           0        3.788671   -1.693811   -0.239125
     16          1           0        2.358377    0.329280    1.553999
     17          1           0        3.216075   -1.098810    2.121900
     18          1           0        1.622038   -2.570168    0.844861
     19          1           0        0.759467   -1.133963    0.273733
     20          1           0        0.750748   -1.544483    1.997307
     21          6           0       -3.523155   -2.267185   -0.566258
     22          6           0       -4.523301   -1.363617   -0.940146
     23          6           0       -4.377278    0.003033   -0.684228
     24          6           0       -3.212982    0.433443   -0.049836
     25          6           0       -2.198672   -0.442053    0.334837
     26          6           0       -2.366072   -1.804336    0.068920
     27          1           0       -3.644892   -3.327136   -0.768945
     28          1           0       -5.422967   -1.720229   -1.433577
     29          1           0       -5.135817    0.724386   -0.962950
     30          1           0       -1.313014   -0.056607    0.825205
     31          1           0       -1.587695   -2.503769    0.360411
     32          7           0       -3.047078    1.877941    0.226386
     33          8           0       -2.011899    2.231841    0.786559
     34          8           0       -3.955365    2.628888   -0.122517
 ---------------------------------------------------------------------

 SCF Done:  E(RHF) =  -669.535256468     A.U. after   15 cycles
 E2 =    -0.2091817181D+01 EUMP2 =    -0.67162707364959D+03

 The electronic state is 1-A.
 Alpha  occ. eigenvalues --  -20.60726 -20.60721 -15.85777 -11.31102 -11.27687
 Alpha  occ. eigenvalues --  -11.27605 -11.27416 -11.26703 -11.26634 -11.22033
 Alpha  occ. eigenvalues --  -11.21933 -11.21684 -11.21657 -11.21496 -11.21098
 Alpha  occ. eigenvalues --   -1.59801  -1.39356  -1.19279  -1.08688  -1.08676
 Alpha  occ. eigenvalues --   -1.04683  -1.03851  -0.96353  -0.95520  -0.87388
 Alpha  occ. eigenvalues --   -0.86073  -0.82357  -0.79936  -0.78454  -0.77393
 Alpha  occ. eigenvalues --   -0.71998  -0.71124  -0.70401  -0.65319  -0.64927
 Alpha  occ. eigenvalues --   -0.64672  -0.62143  -0.61162  -0.59722  -0.57920
 Alpha  occ. eigenvalues --   -0.55665  -0.55151  -0.53055  -0.53041  -0.52801
 Alpha  occ. eigenvalues --   -0.52684  -0.50258  -0.48751  -0.48751  -0.48233
 Alpha  occ. eigenvalues --   -0.46913  -0.46009  -0.45895  -0.44769  -0.44088
 Alpha  occ. eigenvalues --   -0.37267  -0.36265
 Alpha virt. eigenvalues --    0.05089   0.11365   0.16537   0.20719   0.22676
 Alpha virt. eigenvalues --    0.23902   0.25982   0.26393   0.27312   0.28051
 Alpha virt. eigenvalues --    0.29584   0.30276   0.31109   0.31240   0.32156

 Mulliken charges:
               1
     1  C   -0.299273
     2  C   -0.299994
     3  C   -0.476029
     4  H    0.153276
     5  H    0.149591
     6  H    0.153062
     7  H    0.151018
     8  H    0.155040
     9  H    0.156849
    10  H    0.160557
    11  C   -0.299333
    12  C   -0.301182
    13  C   -0.487854
    14  H    0.151786
    15  H    0.148419
    16  H    0.160200
    17  H    0.154247
    18  H    0.155903
    19  H    0.154886
    20  H    0.159250
    21  C   -0.171110
    22  C   -0.218697
    23  C   -0.170963
    24  C    0.159001
    25  C   -0.177074
    26  C   -0.222686
    27  H    0.225355
    28  H    0.223080
    29  H    0.275199
    30  H    0.281311
    31  H    0.229764
    32  N    0.488122
    33  O   -0.461069
    34  O   -0.460655
 Sum of Mulliken charges =  -0.00000

 Dipole moment (field-independent basis, Debye):
    X=             -0.4108    Y=             -5.0444    Z=             -0.9599  Tot=              5.1513
 Quadrupole moment (field-independent basis, Debye-Ang):
   XX=            -87.4343   YY=            -99.3402   ZZ=            -94.4170
   XY=             14.6107   XZ=              5.6325   YZ=             -0.8064

 Normal termination of Gaussian 16 at Wed May  5 21:46:06 2021.
