 Gaussian 16, Revision A.03,
 Gaussian 16:  EM64L-G16RevA.03 25-Dec-2016

 -------------
 #p 6-31g* mp2
 -------------

 ------------------------------------------------------
 Input file generated by CHIRIPA (05-May-2021 14:57:27)
 ------------------------------------------------------
 Symbolic Z-matrix:
 Charge =  0 Multiplicity = 1

                         Standard orientation:
 ---------------------------------------------------------------------
 Center     Atomic      Atomic             Coordinates (Angstroms)
 Number     Number       Type             X           Y           Z
 ---------------------------------------------------------------------
      1          6           0        2.136796   -2.354592    0.438604
      2          6           0        2.835823   -1.604454    1.390011
      3          6           0        3.143379   -0.262033    1.149464
      4          6           0        2.734786    0.300866   -0.058628
      5          6           0        2.037031   -0.420297   -1.026280
      6          6           0        1.740330   -1.761165   -0.764384
      7          1           0        1.902095   -3.396813    0.633759
      8          1           0        3.144980   -2.062695    2.325148
      9          1           0        3.683398    0.341831    1.868592
     10          1           0        1.742086    0.064125   -1.949189
     11          1           0        1.197336   -2.341307   -1.505086
     12          7           0        3.054635    1.721205   -0.324585
     13          8           0        2.683487    2.193798   -1.396752
     14          8           0        3.670426    2.334980    0.544161
     15          6           0       -3.590268    2.184742    0.701647
     16          6           0       -3.263283    1.235192    1.675278
     17          6           0       -2.759322   -0.015561    1.306240
     18          6           0       -2.594269   -0.284446   -0.051607
     19          6           0       -2.910838    0.640660   -1.045213
     20          6           0       -3.413313    1.884973   -0.653104
     21          1           0       -3.981180    3.153855    0.997286
     22          1           0       -3.399668    1.465241    2.728141
     23          1           0       -2.498052   -0.769159    2.039210
     24          1           0       -2.763917    0.382311   -2.086890
     25          1           0       -3.666401    2.620468   -1.411417
     26          7           0       -2.061534   -1.605154   -0.454504
     27          8           0       -1.925381   -1.817538   -1.657414
     28          8           0       -1.790218   -2.402931    0.440244
 ---------------------------------------------------------------------

 SCF Done:  E(RHF) =  -868.340819871     A.U. after   16 cycles
 E2 =    -0.2599566205D+01 EUMP2 =    -0.87094038607605D+03

 The electronic state is 1-A.
 Alpha  occ. eigenvalues --  -20.61452 -20.61429 -20.60405 -20.60400 -15.86451
 Alpha  occ. eigenvalues --  -15.85448 -11.31483 -11.30569 -11.28020 -11.28006
 Alpha  occ. eigenvalues --  -11.27679 -11.27142 -11.27041 -11.26956 -11.26928
 Alpha  occ. eigenvalues --  -11.26670 -11.26080 -11.25832  -1.60501  -1.59487
 Alpha  occ. eigenvalues --   -1.40066  -1.39047  -1.19620  -1.18695  -1.09077
 Alpha  occ. eigenvalues --   -1.08103  -1.04975  -1.04048  -0.95971  -0.94991
 Alpha  occ. eigenvalues --   -0.86389  -0.85434  -0.82821  -0.81830  -0.77906
 Alpha  occ. eigenvalues --   -0.76933  -0.72700  -0.71801  -0.71669  -0.70810
 Alpha  occ. eigenvalues --   -0.70727  -0.69741  -0.65279  -0.64978  -0.64319
 Alpha  occ. eigenvalues --   -0.63986  -0.62333  -0.61384  -0.55484  -0.54473
 Alpha  occ. eigenvalues --   -0.53315  -0.53066  -0.52408  -0.52093  -0.49466
 Alpha  occ. eigenvalues --   -0.49427  -0.48441  -0.48399  -0.45547  -0.44509
 Alpha  occ. eigenvalues --   -0.37575  -0.36597  -0.36557  -0.35669
 Alpha virt. eigenvalues --    0.04574   0.05583   0.11100   0.12000   0.16151
 Alpha virt. eigenvalues --    0.17158   0.21255   0.22345   0.27177   0.27999
 Alpha virt. eigenvalues --    0.28380   0.29129   0.30866   0.31948   0.32320

 Mulliken charges:
               1
     1  C   -0.164926
     2  C   -0.220598
     3  C   -0.173663
     4  C    0.157557
     5  C   -0.177536
     6  C   -0.222971
     7  H    0.231433
     8  H    0.220694
     9  H    0.271812
    10  H    0.273636
    11  H    0.241178
    12  N    0.488193
    13  O   -0.463428
    14  O   -0.463489
    15  C   -0.168862
    16  C   -0.218165
    17  C   -0.169928
    18  C    0.158636
    19  C   -0.170387
    20  C   -0.217060
    21  H    0.228204
    22  H    0.224550
    23  H    0.274034
    24  H    0.274818
    25  H    0.226307
    26  N    0.490102
    27  O   -0.467090
    28  O   -0.463051
 Sum of Mulliken charges =  -0.00000

 Dipole moment (field-independent basis, Debye):
    X=             -3.2898    Y=             -0.4579    Z=              2.3441  Tot=              4.0653
 Quadrupole moment (field-independent basis, Debye-Ang):
   XX=           -102.0026   YY=           -110.7886   ZZ=            -96.7259
   XY=            -26.7620   XZ=              1.4256   YZ=             -1.1185

 Normal termination of Gaussian 16 at Thu May  6 08:25:44 2021.
