 Gaussian 16, Revision A.03,
 Gaussian 16:  EM64L-G16RevA.03 25-Dec-2016

 -------------
 #p 6-31g* mp2
 -------------

 ------------------------------------------------------
 Input file generated by CHIRIPA (05-May-2021 14:53:14)
 ------------------------------------------------------
 Symbolic Z-matrix:
 Charge =  0 Multiplicity = 1

                         Standard orientation:
 ---------------------------------------------------------------------
 Center     Atomic      Atomic             Coordinates (Angstroms)
 Number     Number       Type             X           Y           Z
 ---------------------------------------------------------------------
      1          6           0        3.012807    0.173935   -0.408654
      2          6           0        4.107263   -0.379621    0.504432
      3          6           0        4.675818   -1.708939    0.006986
      4          1           0        2.203841   -0.564883   -0.490311
      5          1           0        3.420467    0.304209   -1.420700
      6          1           0        3.698047   -0.507509    1.514780
      7          1           0        4.913629    0.360681    0.584078
      8          1           0        5.109841   -1.592804   -0.991382
      9          1           0        3.887351   -2.465926   -0.055392
     10          1           0        5.456619   -2.086556    0.674530
     11          6           0        2.434551    1.502482    0.075403
     12          6           0        1.340094    2.056038   -0.837683
     13          6           0        0.771539    3.385356   -0.340237
     14          1           0        2.026891    1.372208    1.087449
     15          1           0        3.243516    2.241300    0.157060
     16          1           0        0.533728    1.315736   -0.917329
     17          1           0        1.749310    2.183926   -1.848031
     18          1           0        1.560006    4.142343   -0.277859
     19          1           0        0.337517    3.269221    0.658131
     20          1           0       -0.009262    3.762973   -1.007781
     21          6           0       -0.377785   -2.468977    0.020387
     22          6           0       -0.153187   -1.325580    0.794157
     23          6           0       -1.115849   -0.314056    0.862355
     24          6           0       -2.297066   -0.479468    0.140790
     25          6           0       -2.550203   -1.606918   -0.638996
     26          6           0       -1.573466   -2.605756   -0.692463
     27          1           0        0.375501   -3.249826   -0.026869
     28          1           0        0.774464   -1.216660    1.348813
     29          1           0       -0.967884    0.581487    1.453563
     30          1           0       -3.484746   -1.687100   -1.180860
     31          1           0       -1.750608   -3.492647   -1.294202
     32          7           0       -3.323643    0.584672    0.205190
     33          8           0       -4.356010    0.414973   -0.439834
     34          8           0       -3.076468    1.568295    0.899473
 ---------------------------------------------------------------------

 SCF Done:  E(RHF) =  -669.533840714     A.U. after   15 cycles
 E2 =    -0.2095588027D+01 EUMP2 =    -0.67162942874097D+03

 The electronic state is 1-A.
 Alpha  occ. eigenvalues --  -20.60846 -20.60840 -15.85898 -11.31306 -11.27857
 Alpha  occ. eigenvalues --  -11.27853 -11.27604 -11.26879 -11.26858 -11.22363
 Alpha  occ. eigenvalues --  -11.21935 -11.21884 -11.21873 -11.21696 -11.20995
 Alpha  occ. eigenvalues --   -1.59918  -1.39470  -1.19486  -1.08994  -1.08838
 Alpha  occ. eigenvalues --   -1.04892  -1.03972  -0.96417  -0.95693  -0.87431
 Alpha  occ. eigenvalues --   -0.86285  -0.82524  -0.80051  -0.78740  -0.77573
 Alpha  occ. eigenvalues --   -0.72115  -0.71243  -0.70582  -0.65854  -0.65130
 Alpha  occ. eigenvalues --   -0.64782  -0.62170  -0.61381  -0.59805  -0.58003
 Alpha  occ. eigenvalues --   -0.55766  -0.55358  -0.53275  -0.53030  -0.52966
 Alpha  occ. eigenvalues --   -0.52797  -0.50393  -0.48876  -0.48867  -0.48348
 Alpha  occ. eigenvalues --   -0.47132  -0.46257  -0.46196  -0.44862  -0.44217
 Alpha  occ. eigenvalues --   -0.37423  -0.36378
 Alpha virt. eigenvalues --    0.04935   0.11007   0.16375   0.18634   0.22552
 Alpha virt. eigenvalues --    0.23461   0.25250   0.25995   0.27239   0.28560
 Alpha virt. eigenvalues --    0.29502   0.30667   0.31080   0.31837   0.32282

 Mulliken charges:
               1
     1  C   -0.306362
     2  C   -0.301477
     3  C   -0.473638
     4  H    0.150423
     5  H    0.153315
     6  H    0.145464
     7  H    0.156884
     8  H    0.159020
     9  H    0.146154
    10  H    0.162873
    11  C   -0.297633
    12  C   -0.306877
    13  C   -0.475871
    14  H    0.139115
    15  H    0.153483
    16  H    0.157221
    17  H    0.152736
    18  H    0.154054
    19  H    0.156574
    20  H    0.167018
    21  C   -0.172205
    22  C   -0.218643
    23  C   -0.174724
    24  C    0.159080
    25  C   -0.170781
    26  C   -0.217885
    27  H    0.226669
    28  H    0.229818
    29  H    0.277791
    30  H    0.276099
    31  H    0.224179
    32  N    0.488250
    33  O   -0.459981
    34  O   -0.460142
 Sum of Mulliken charges =  -0.00000

 Dipole moment (field-independent basis, Debye):
    X=              3.5503    Y=             -3.6814    Z=             -0.3154  Tot=              5.1241
 Quadrupole moment (field-independent basis, Debye-Ang):
   XX=           -109.6275   YY=            -90.6137   ZZ=            -93.2705
   XY=              9.6368   XZ=              2.6691   YZ=              0.9168

 Normal termination of Gaussian 16 at Wed May  5 21:50:51 2021.
