 Gaussian 16, Revision A.03,
 Gaussian 16:  EM64L-G16RevA.03 25-Dec-2016

 -------------
 #p 6-31g* mp2
 -------------

 ------------------------------------------------------
 Input file generated by CHIRIPA (05-May-2021 14:53:14)
 ------------------------------------------------------
 Symbolic Z-matrix:
 Charge =  0 Multiplicity = 1

                         Standard orientation:
 ---------------------------------------------------------------------
 Center     Atomic      Atomic             Coordinates (Angstroms)
 Number     Number       Type             X           Y           Z
 ---------------------------------------------------------------------
      1          6           0       -3.407835    0.258756    0.345897
      2          6           0       -3.703317   -1.018180   -0.441573
      3          6           0       -4.571613   -2.006004    0.338209
      4          1           0       -2.908527   -0.006248    1.287922
      5          1           0       -4.356834    0.740180    0.619808
      6          1           0       -2.754016   -1.496324   -0.715109
      7          1           0       -4.201808   -0.750092   -1.381919
      8          1           0       -5.533139   -1.551719    0.598390
      9          1           0       -4.077121   -2.302191    1.268989
     10          1           0       -4.770546   -2.911601   -0.243324
     11          6           0       -2.540815    1.256130   -0.420425
     12          6           0       -2.245333    2.533066    0.367045
     13          6           0       -1.377037    3.520890   -0.412736
     14          1           0       -1.591817    0.774705   -0.694336
     15          1           0       -3.040123    1.521133   -1.362449
     16          1           0       -1.746843    2.264977    1.307392
     17          1           0       -3.194635    3.011209    0.640581
     18          1           0       -1.871529    3.817076   -1.343517
     19          1           0       -0.415511    3.066605   -0.672917
     20          1           0       -1.178104    4.426487    0.168796
     21          6           0        0.220086   -1.978972   -0.098912
     22          6           0        0.651786   -1.474048    1.132026
     23          6           0        1.815857   -0.704221    1.214808
     24          6           0        2.527061   -0.457641    0.041489
     25          6           0        2.122713   -0.946710   -1.199722
     26          6           0        0.955630   -1.714157   -1.258812
     27          1           0       -0.685362   -2.576067   -0.154018
     28          1           0        0.082554   -1.678110    2.034456
     29          1           0        2.172798   -0.300975    2.154704
     30          1           0        2.711238   -0.726468   -2.082076
     31          1           0        0.622750   -2.104992   -2.216144
     32          7           0        3.761004    0.356082    0.116587
     33          8           0        4.369772    0.559117   -0.931657
     34          8           0        4.096036    0.775433    1.222269
 ---------------------------------------------------------------------

 SCF Done:  E(RHF) =  -669.535467133     A.U. after   15 cycles
 E2 =    -0.2092917563D+01 EUMP2 =    -0.67162838469585D+03

 The electronic state is 1-A.
 Alpha  occ. eigenvalues --  -20.60837 -20.60832 -15.85893 -11.31294 -11.27865
 Alpha  occ. eigenvalues --  -11.27862 -11.27608 -11.26896 -11.26886 -11.22465
 Alpha  occ. eigenvalues --  -11.22026 -11.21938 -11.21872 -11.21732 -11.21191
 Alpha  occ. eigenvalues --   -1.59913  -1.39465  -1.19475  -1.08996  -1.08845
 Alpha  occ. eigenvalues --   -1.04877  -1.04064  -0.96488  -0.95692  -0.87505
 Alpha  occ. eigenvalues --   -0.86272  -0.82521  -0.80162  -0.78748  -0.77556
 Alpha  occ. eigenvalues --   -0.72109  -0.71237  -0.70609  -0.65636  -0.65124
 Alpha  occ. eigenvalues --   -0.64860  -0.62218  -0.61477  -0.59893  -0.58093
 Alpha  occ. eigenvalues --   -0.55808  -0.55370  -0.53242  -0.53161  -0.52965
 Alpha  occ. eigenvalues --   -0.52896  -0.50434  -0.48874  -0.48862  -0.48453
 Alpha  occ. eigenvalues --   -0.47211  -0.46290  -0.46178  -0.44863  -0.44295
 Alpha  occ. eigenvalues --   -0.37411  -0.36478
 Alpha virt. eigenvalues --    0.04939   0.11121   0.16300   0.19707   0.22947
 Alpha virt. eigenvalues --    0.23836   0.25814   0.25980   0.27423   0.27867
 Alpha virt. eigenvalues --    0.28745   0.30477   0.31145   0.31164   0.32155

 Mulliken charges:
               1
     1  C   -0.296637
     2  C   -0.302619
     3  C   -0.476119
     4  H    0.144935
     5  H    0.152350
     6  H    0.142186
     7  H    0.155807
     8  H    0.160184
     9  H    0.150986
    10  H    0.160293
    11  C   -0.302563
    12  C   -0.299398
    13  C   -0.476181
    14  H    0.154270
    15  H    0.149517
    16  H    0.151058
    17  H    0.151886
    18  H    0.154910
    19  H    0.157555
    20  H    0.162552
    21  C   -0.170021
    22  C   -0.219876
    23  C   -0.171056
    24  C    0.158489
    25  C   -0.170887
    26  C   -0.220025
    27  H    0.229455
    28  H    0.224043
    29  H    0.276090
    30  H    0.276244
    31  H    0.224590
    32  N    0.488043
    33  O   -0.460011
    34  O   -0.460050
 Sum of Mulliken charges =  -0.00000

 Dipole moment (field-independent basis, Debye):
    X=             -4.3285    Y=             -2.7961    Z=             -0.2883  Tot=              5.1611
 Quadrupole moment (field-independent basis, Debye-Ang):
   XX=           -116.8530   YY=            -93.1986   ZZ=            -89.9573
   XY=             -6.3554   XZ=             -0.9446   YZ=              0.7798

 Normal termination of Gaussian 16 at Thu May  6 01:04:39 2021.
