 Gaussian 16, Revision A.03,
 Gaussian 16:  EM64L-G16RevA.03 25-Dec-2016

 -------------
 #p 6-31g* mp2
 -------------

 ------------------------------------------------------
 Input file generated by CHIRIPA (05-May-2021 14:55:20)
 ------------------------------------------------------
 Symbolic Z-matrix:
 Charge =  0 Multiplicity = 1

                         Standard orientation:
 ---------------------------------------------------------------------
 Center     Atomic      Atomic             Coordinates (Angstroms)
 Number     Number       Type             X           Y           Z
 ---------------------------------------------------------------------
      1          6           0        4.345090    1.333343   -0.848763
      2          6           0        3.275423    1.945123   -0.186902
      3          6           0        2.268030    1.172999    0.399213
      4          6           0        2.362341   -0.214567    0.304048
      5          6           0        3.415423   -0.853631   -0.348566
      6          6           0        4.411558   -0.061623   -0.927344
      7          1           0        5.123284    1.940871   -1.301222
      8          1           0        3.221205    3.028261   -0.124314
      9          1           0        1.428765    1.620560    0.917617
     10          1           0        3.442097   -1.935572   -0.394513
     11          1           0        5.241105   -0.539470   -1.440724
     12          7           0        1.301818   -1.042505    0.920658
     13          8           0        1.408016   -2.263082    0.822935
     14          8           0        0.384462   -0.455189    1.490005
     15          6           0       -3.540793   -0.588508   -0.412084
     16          6           0       -2.498035   -1.706811   -0.405713
     17          6           0       -3.100051   -3.078190   -0.713429
     18          1           0       -4.322740   -0.820763    0.323826
     19          1           0       -4.033560   -0.561734   -1.393848
     20          1           0       -2.006416   -1.730567    0.575288
     21          1           0       -1.718381   -1.471771   -1.141587
     22          1           0       -3.574263   -3.078110   -1.700204
     23          1           0       -3.863934   -3.338377    0.026426
     24          1           0       -2.337142   -3.862879   -0.703719
     25          6           0       -2.954254    0.788475   -0.106120
     26          6           0       -3.997012    1.906778   -0.112491
     27          6           0       -3.394997    3.278158    0.195225
     28          1           0       -2.461488    0.761702    0.875644
     29          1           0       -2.172308    1.020731   -0.842030
     30          1           0       -4.776667    1.671739    0.623384
     31          1           0       -4.488631    1.930535   -1.093492
     32          1           0       -2.631113    3.538345   -0.544630
     33          1           0       -2.920785    3.278077    1.182000
     34          1           0       -4.157905    4.062846    0.185515
 ---------------------------------------------------------------------

 SCF Done:  E(RHF) =  -669.536456743     A.U. after   15 cycles
 E2 =    -0.2092112699D+01 EUMP2 =    -0.67162856944244D+03

 The electronic state is 1-A.
 Alpha  occ. eigenvalues --  -20.60986 -20.60966 -15.85985 -11.31296 -11.27855
 Alpha  occ. eigenvalues --  -11.27847 -11.27591 -11.26858 -11.26847 -11.20961
 Alpha  occ. eigenvalues --  -11.20684 -11.20416 -11.20323 -11.20122 -11.19888
 Alpha  occ. eigenvalues --   -1.60018  -1.39577  -1.19460  -1.08868  -1.07449
 Alpha  occ. eigenvalues --   -1.04853  -1.02589  -0.95713  -0.95086  -0.86254
 Alpha  occ. eigenvalues --   -0.86116  -0.82550  -0.78667  -0.77608  -0.77192
 Alpha  occ. eigenvalues --   -0.72211  -0.71315  -0.70568  -0.65117  -0.64857
 Alpha  occ. eigenvalues --   -0.64085  -0.62199  -0.59995  -0.58479  -0.56657
 Alpha  occ. eigenvalues --   -0.55360  -0.54398  -0.53187  -0.52944  -0.51804
 Alpha  occ. eigenvalues --   -0.51515  -0.49137  -0.48980  -0.48953  -0.46956
 Alpha  occ. eigenvalues --   -0.45679  -0.45212  -0.44750  -0.44331  -0.42825
 Alpha  occ. eigenvalues --   -0.37436  -0.36453
 Alpha virt. eigenvalues --    0.04899   0.11199   0.16381   0.21286   0.23718
 Alpha virt. eigenvalues --    0.25169   0.27197   0.27587   0.27754   0.28709
 Alpha virt. eigenvalues --    0.29021   0.31043   0.32185   0.32421   0.32609

 Mulliken charges:
               1
     1  C   -0.170558
     2  C   -0.218694
     3  C   -0.170661
     4  C    0.158590
     5  C   -0.170845
     6  C   -0.218640
     7  H    0.226015
     8  H    0.224044
     9  H    0.276393
    10  H    0.275791
    11  H    0.223802
    12  N    0.490243
    13  O   -0.459438
    14  O   -0.460473
    15  C   -0.297942
    16  C   -0.304925
    17  C   -0.475885
    18  H    0.147392
    19  H    0.143289
    20  H    0.180198
    21  H    0.142495
    22  H    0.148008
    23  H    0.152252
    24  H    0.163118
    25  C   -0.300005
    26  C   -0.298733
    27  C   -0.474865
    28  H    0.164163
    29  H    0.142280
    30  H    0.151531
    31  H    0.149095
    32  H    0.150243
    33  H    0.154724
    34  H    0.157997
 Sum of Mulliken charges =  -0.00000

 Dipole moment (field-independent basis, Debye):
    X=              4.0212    Y=              2.8236    Z=             -1.9587  Tot=              5.2895
 Quadrupole moment (field-independent basis, Debye-Ang):
   XX=            -77.4257   YY=            -94.3245   ZZ=            -95.5933
   XY=              3.8530   XZ=             -5.8745   YZ=              2.2216

 Normal termination of Gaussian 16 at Wed May  5 23:47:23 2021.
