 Gaussian 16, Revision A.03,
 Gaussian 16:  EM64L-G16RevA.03 25-Dec-2016

 -------------
 #p 6-31g* mp2
 -------------

 ------------------------------------------------------
 Input file generated by CHIRIPA (05-May-2021 14:51:11)
 ------------------------------------------------------
 Symbolic Z-matrix:
 Charge =  0 Multiplicity = 1

                         Standard orientation:
 ---------------------------------------------------------------------
 Center     Atomic      Atomic             Coordinates (Angstroms)
 Number     Number       Type             X           Y           Z
 ---------------------------------------------------------------------
      1          6           0       -2.040968    1.204845   -0.099135
      2          6           0       -2.091597    2.431929    0.811738
      3          6           0       -0.802141    3.252526    0.770284
      4          1           0       -1.192443    0.572228    0.195390
      5          1           0       -1.845241    1.530113   -1.130293
      6          1           0       -2.288546    2.104553    1.840646
      7          1           0       -2.940215    3.061603    0.515133
      8          1           0       -0.603712    3.607162   -0.246308
      9          1           0        0.051660    2.644675    1.086735
     10          1           0       -0.860107    4.124904    1.428658
     11          6           0       -3.322804    0.374370   -0.068560
     12          6           0       -3.272176   -0.852714   -0.979432
     13          6           0       -4.561631   -1.673311   -0.937979
     14          1           0       -3.518531    0.049103    0.962598
     15          1           0       -4.171330    1.006987   -0.363084
     16          1           0       -2.423557   -1.482387   -0.682828
     17          1           0       -3.075227   -0.525338   -2.008341
     18          1           0       -5.415432   -1.065460   -1.254430
     19          1           0       -4.760060   -2.027947    0.078614
     20          1           0       -4.503665   -2.545689   -1.596353
     21          6           0        2.885988   -0.076721   -0.099365
     22          6           0        4.316969    0.027422   -0.627982
     23          6           0        4.710583    1.459784   -0.990198
     24          1           0        2.192847    0.315281   -0.856223
     25          1           0        2.781120    0.567938    0.784271
     26          1           0        4.419486   -0.618306   -1.509538
     27          1           0        5.006770   -0.365049    0.130146
     28          1           0        4.636503    2.112789   -0.114585
     29          1           0        4.045884    1.858094   -1.763584
     30          1           0        5.737272    1.511198   -1.365867
     31          6           0        2.477783   -1.502494    0.267059
     32          6           0        1.046804   -1.606638    0.795677
     33          6           0        0.653190   -3.039000    1.157893
     34          1           0        2.582651   -2.147153   -0.616577
     35          1           0        3.170926   -1.894495    1.023918
     36          1           0        0.357004   -1.214166    0.037549
     37          1           0        0.944286   -0.960908    1.677232
     38          1           0        1.317888   -3.437308    1.931279
     39          1           0        0.727269   -3.692005    0.282280
     40          1           0       -0.373499   -3.090412    1.533562
 ---------------------------------------------------------------------

 SCF Done:  E(RHF) =  -470.733231382     A.U. after   11 cycles
 E2 =    -0.1583666193D+01 EUMP2 =    -0.47231689757512D+03

 The electronic state is 1-A.
 Alpha  occ. eigenvalues --  -11.21666 -11.21618 -11.21599 -11.21551 -11.21445
 Alpha  occ. eigenvalues --  -11.21383 -11.21355 -11.21264 -11.21147 -11.21069
 Alpha  occ. eigenvalues --  -11.21068 -11.21020  -1.08483  -1.08384  -1.03575
 Alpha  occ. eigenvalues --   -1.03498  -0.96019  -0.95943  -0.87039  -0.86957
 Alpha  occ. eigenvalues --   -0.79665  -0.79558  -0.78401  -0.78094  -0.65165
 Alpha  occ. eigenvalues --   -0.64974  -0.60981  -0.60887  -0.59395  -0.59312
 Alpha  occ. eigenvalues --   -0.57652  -0.57538  -0.55303  -0.55233  -0.52720
 Alpha  occ. eigenvalues --   -0.52643  -0.52472  -0.52342  -0.49970  -0.49886
 Alpha  occ. eigenvalues --   -0.48028  -0.47872  -0.46778  -0.46614  -0.46166
 Alpha  occ. eigenvalues --   -0.45761  -0.45703  -0.45121  -0.43823  -0.43743
 Alpha virt. eigenvalues --    0.20761   0.22782   0.23490   0.24345   0.25538
 Alpha virt. eigenvalues --    0.26102   0.27060   0.27569   0.28260   0.29638
 Alpha virt. eigenvalues --    0.31262   0.31436   0.31775   0.31888   0.32142

 Mulliken charges:
               1
     1  C   -0.307717
     2  C   -0.298929
     3  C   -0.476492
     4  H    0.160361
     5  H    0.148194
     6  H    0.151485
     7  H    0.151580
     8  H    0.154955
     9  H    0.156255
    10  H    0.159833
    11  C   -0.297454
    12  C   -0.303085
    13  C   -0.475517
    14  H    0.149133
    15  H    0.149490
    16  H    0.154549
    17  H    0.151564
    18  H    0.155299
    19  H    0.155134
    20  H    0.160180
    21  C   -0.299634
    22  C   -0.299691
    23  C   -0.475723
    24  H    0.151005
    25  H    0.149479
    26  H    0.152019
    27  H    0.151953
    28  H    0.155420
    29  H    0.155468
    30  H    0.160228
    31  C   -0.297530
    32  C   -0.308392
    33  C   -0.475630
    34  H    0.149771
    35  H    0.149785
    36  H    0.159957
    37  H    0.151343
    38  H    0.155635
    39  H    0.155602
    40  H    0.160118
 Sum of Mulliken charges =  -0.00000

 Dipole moment (field-independent basis, Debye):
    X=              0.0429    Y=             -0.0253    Z=             -0.0058  Tot=              0.0502
 Quadrupole moment (field-independent basis, Debye-Ang):
   XX=            -85.5162   YY=            -85.9468   ZZ=            -83.3773
   XY=             -1.1573   XZ=              0.6662   YZ=             -0.0557

 Normal termination of Gaussian 16 at Thu May  6 03:50:46 2021.
