 Gaussian 16, Revision A.03,
 Gaussian 16:  EM64L-G16RevA.03 25-Dec-2016

 -------------
 #p 6-31g* mp2
 -------------

 ------------------------------------------------------
 Input file generated by CHIRIPA (05-May-2021 14:51:10)
 ------------------------------------------------------
 Symbolic Z-matrix:
 Charge =  0 Multiplicity = 1

                         Standard orientation:
 ---------------------------------------------------------------------
 Center     Atomic      Atomic             Coordinates (Angstroms)
 Number     Number       Type             X           Y           Z
 ---------------------------------------------------------------------
      1          6           0       -2.998220    0.646050    0.149071
      2          6           0       -4.298523    1.450092    0.175762
      3          6           0       -4.203065    2.699579    1.051813
      4          1           0       -2.732279    0.356836    1.175022
      5          1           0       -2.185061    1.289103   -0.215142
      6          1           0       -5.109261    0.805314    0.538505
      7          1           0       -4.561502    1.737261   -0.850392
      8          1           0       -3.413610    3.365422    0.688476
      9          1           0       -3.964481    2.428179    2.085264
     10          1           0       -5.143521    3.259383    1.056539
     11          6           0       -3.077950   -0.606031   -0.722517
     12          6           0       -1.777647   -1.410073   -0.749209
     13          6           0       -1.873105   -2.659560   -1.625260
     14          1           0       -3.891109   -1.249083   -0.358305
     15          1           0       -3.343892   -0.316817   -1.748468
     16          1           0       -1.514669   -1.697242    0.276945
     17          1           0       -0.966910   -0.765295   -1.111952
     18          1           0       -2.111689   -2.388160   -2.658711
     19          1           0       -2.662561   -3.325403   -1.261922
     20          1           0       -0.932649   -3.219363   -1.629986
     21          6           0        2.686132   -0.696364    0.240843
     22          6           0        2.223203   -1.232186    1.596046
     23          6           0        1.520883   -2.586009    1.487846
     24          1           0        1.818531   -0.608590   -0.427371
     25          1           0        3.364507   -1.426447   -0.221957
     26          1           0        1.546993   -0.500688    2.056769
     27          1           0        3.091978   -1.318515    2.261174
     28          1           0        2.190936   -3.333815    1.051478
     29          1           0        0.637172   -2.511342    0.845912
     30          1           0        1.198292   -2.950414    2.468155
     31          6           0        3.390039    0.656346    0.332604
     32          6           0        3.852967    1.192167   -1.022600
     33          6           0        4.555287    2.545989   -0.914400
     34          1           0        2.711665    1.386427    0.795403
     35          1           0        4.257639    0.568571    1.000818
     36          1           0        2.984193    1.278495   -1.687727
     37          1           0        4.529179    0.460669   -1.483323
     38          1           0        5.438999    2.471322   -0.272465
     39          1           0        3.885235    3.293795   -0.478031
     40          1           0        4.877879    2.910394   -1.894707
 ---------------------------------------------------------------------

 SCF Done:  E(RHF) =  -470.733131791     A.U. after   11 cycles
 E2 =    -0.1583301159D+01 EUMP2 =    -0.47231643295016D+03

 The electronic state is 1-A.
 Alpha  occ. eigenvalues --  -11.21676 -11.21644 -11.21596 -11.21555 -11.21462
 Alpha  occ. eigenvalues --  -11.21403 -11.21376 -11.21314 -11.21120 -11.21107
 Alpha  occ. eigenvalues --  -11.21068 -11.20979  -1.08494  -1.08398  -1.03603
 Alpha  occ. eigenvalues --   -1.03487  -0.96039  -0.95942  -0.87045  -0.86968
 Alpha  occ. eigenvalues --   -0.79705  -0.79528  -0.78341  -0.78181  -0.65126
 Alpha  occ. eigenvalues --   -0.65034  -0.61057  -0.60866  -0.59432  -0.59285
 Alpha  occ. eigenvalues --   -0.57716  -0.57495  -0.55364  -0.55182  -0.52727
 Alpha  occ. eigenvalues --   -0.52643  -0.52469  -0.52356  -0.50045  -0.49838
 Alpha  occ. eigenvalues --   -0.48068  -0.47818  -0.46732  -0.46539  -0.45969
 Alpha  occ. eigenvalues --   -0.45750  -0.45711  -0.45515  -0.43837  -0.43755
 Alpha virt. eigenvalues --    0.20810   0.23178   0.23442   0.24873   0.25423
 Alpha virt. eigenvalues --    0.26373   0.26927   0.27607   0.28316   0.29069
 Alpha virt. eigenvalues --    0.30728   0.30940   0.31589   0.31759   0.32158

 Mulliken charges:
               1
     1  C   -0.298434
     2  C   -0.299687
     3  C   -0.475755
     4  H    0.149764
     5  H    0.149039
     6  H    0.152145
     7  H    0.152072
     8  H    0.155100
     9  H    0.155251
    10  H    0.160462
    11  C   -0.297529
    12  C   -0.306374
    13  C   -0.477521
    14  H    0.149972
    15  H    0.149821
    16  H    0.155260
    17  H    0.153536
    18  H    0.155616
    19  H    0.155711
    20  H    0.162062
    21  C   -0.301576
    22  C   -0.298655
    23  C   -0.484805
    24  H    0.152719
    25  H    0.149253
    26  H    0.151843
    27  H    0.151689
    28  H    0.154589
    29  H    0.165480
    30  H    0.159320
    31  C   -0.298267
    32  C   -0.299512
    33  C   -0.475682
    34  H    0.149577
    35  H    0.149647
    36  H    0.151387
    37  H    0.151955
    38  H    0.155250
    39  H    0.155126
    40  H    0.160153
 Sum of Mulliken charges =  -0.00000

 Dipole moment (field-independent basis, Debye):
    X=             -0.0453    Y=             -0.0055    Z=             -0.0138  Tot=              0.0477
 Quadrupole moment (field-independent basis, Debye-Ang):
   XX=            -84.1534   YY=            -86.1140   ZZ=            -84.5085
   XY=             -0.6279   XZ=             -0.0810   YZ=             -0.9147

 Normal termination of Gaussian 16 at Wed May  5 23:03:24 2021.
