 Gaussian 16, Revision A.03,
 Gaussian 16:  EM64L-G16RevA.03 25-Dec-2016

 -------------
 #p 6-31g* mp2
 -------------

 ------------------------------------------------------
 Input file generated by CHIRIPA (05-May-2021 14:57:23)
 ------------------------------------------------------
 Symbolic Z-matrix:
 Charge =  0 Multiplicity = 1

                         Standard orientation:
 ---------------------------------------------------------------------
 Center     Atomic      Atomic             Coordinates (Angstroms)
 Number     Number       Type             X           Y           Z
 ---------------------------------------------------------------------
      1          6           0        1.624048    1.660686   -0.492908
      2          6           0        1.431838    0.303482   -0.771429
      3          6           0        2.449637   -0.622880   -0.525487
      4          6           0        3.652366   -0.155213    0.001790
      5          6           0        3.874289    1.190544    0.289853
      6          6           0        2.842511    2.099112    0.035911
      7          1           0        0.827968    2.373395   -0.687069
      8          1           0        0.486605   -0.039859   -1.182154
      9          1           0        2.327677   -1.679282   -0.731785
     10          1           0        4.827515    1.502735    0.698893
     11          1           0        2.994597    3.152537    0.253191
     12          7           0        4.737263   -1.126492    0.266392
     13          8           0        5.787607   -0.689092    0.731254
     14          8           0        4.516720   -2.306790    0.003915
     15          6           0       -4.381285   -2.358699    0.079672
     16          6           0       -4.517161   -1.537886    1.204095
     17          6           0       -4.018048   -0.232000    1.194367
     18          6           0       -3.385806    0.222694    0.038160
     19          6           0       -3.234936   -0.570861   -1.097974
     20          6           0       -3.741734   -1.873421   -1.065754
     21          1           0       -4.771994   -3.371850    0.095964
     22          1           0       -5.013388   -1.912095    2.095034
     23          1           0       -4.109566    0.424836    2.050877
     24          1           0       -2.735439   -0.169763   -1.971496
     25          1           0       -3.634778   -2.508633   -1.940460
     26          7           0       -2.853349    1.603417    0.015956
     27          8           0       -2.300426    1.980307   -1.014998
     28          8           0       -2.999015    2.282594    1.029927
 ---------------------------------------------------------------------

 SCF Done:  E(RHF) =  -868.340369022     A.U. after   16 cycles
 E2 =    -0.2598928582D+01 EUMP2 =    -0.87093929760457D+03

 The electronic state is 1-A.
 Alpha  occ. eigenvalues --  -20.61980 -20.61913 -20.60389 -20.60379 -15.86958
 Alpha  occ. eigenvalues --  -15.85438 -11.32072 -11.30630 -11.28636 -11.28553
 Alpha  occ. eigenvalues --  -11.28245 -11.27556 -11.27508 -11.27234 -11.27193
 Alpha  occ. eigenvalues --  -11.26679 -11.26119 -11.26075  -1.61002  -1.59468
 Alpha  occ. eigenvalues --   -1.40565  -1.39026  -1.20204  -1.18777  -1.09639
 Alpha  occ. eigenvalues --   -1.08155  -1.05565  -1.04174  -0.96520  -0.95023
 Alpha  occ. eigenvalues --   -0.86972  -0.85550  -0.83360  -0.81884  -0.78449
 Alpha  occ. eigenvalues --   -0.76998  -0.73184  -0.72311  -0.71656  -0.71293
 Alpha  occ. eigenvalues --   -0.70791  -0.69743  -0.65854  -0.65553  -0.64407
 Alpha  occ. eigenvalues --   -0.64157  -0.62917  -0.61541  -0.56048  -0.54494
 Alpha  occ. eigenvalues --   -0.53900  -0.53644  -0.52497  -0.52251  -0.49958
 Alpha  occ. eigenvalues --   -0.49913  -0.48424  -0.48396  -0.46014  -0.44472
 Alpha  occ. eigenvalues --   -0.38149  -0.37159  -0.36677  -0.35806
 Alpha virt. eigenvalues --    0.04019   0.05559   0.10424   0.11868   0.15578
 Alpha virt. eigenvalues --    0.17115   0.20450   0.22136   0.26021   0.27101
 Alpha virt. eigenvalues --    0.28248   0.29152   0.30512   0.31132   0.32370

 Mulliken charges:
               1
     1  C   -0.175519
     2  C   -0.221877
     3  C   -0.172048
     4  C    0.157212
     5  C   -0.171338
     6  C   -0.219662
     7  H    0.247062
     8  H    0.219664
     9  H    0.270912
    10  H    0.273709
    11  H    0.224231
    12  N    0.488357
    13  O   -0.461669
    14  O   -0.463699
    15  C   -0.169529
    16  C   -0.217749
    17  C   -0.169821
    18  C    0.158707
    19  C   -0.176164
    20  C   -0.218065
    21  H    0.229472
    22  H    0.227131
    23  H    0.277577
    24  H    0.272866
    25  H    0.226151
    26  N    0.488795
    27  O   -0.470465
    28  O   -0.454243
 Sum of Mulliken charges =  -0.00000

 Dipole moment (field-independent basis, Debye):
    X=             -6.1732    Y=             -1.3732    Z=             -0.7273  Tot=              6.3657
 Quadrupole moment (field-independent basis, Debye-Ang):
   XX=           -118.7115   YY=           -105.5677   ZZ=           -100.6476
   XY=             32.5054   XZ=             -4.8636   YZ=              2.1948

 Normal termination of Gaussian 16 at Thu May  6 14:37:56 2021.
