 Gaussian 16, Revision A.03,
 Gaussian 16:  EM64L-G16RevA.03 25-Dec-2016

 -------------
 #p 6-31g* mp2
 -------------

 ------------------------------------------------------
 Input file generated by CHIRIPA (05-May-2021 14:51:09)
 ------------------------------------------------------
 Symbolic Z-matrix:
 Charge =  0 Multiplicity = 1

                         Standard orientation:
 ---------------------------------------------------------------------
 Center     Atomic      Atomic             Coordinates (Angstroms)
 Number     Number       Type             X           Y           Z
 ---------------------------------------------------------------------
      1          6           0       -2.349286   -0.469027    0.830563
      2          6           0       -1.844651   -1.908577    0.725562
      3          6           0       -1.774791   -2.610923    2.081889
      4          1           0       -1.690064    0.095675    1.503975
      5          1           0       -3.344749   -0.469836    1.295802
      6          1           0       -0.851023   -1.905167    0.259397
      7          1           0       -2.505040   -2.469868    0.052171
      8          1           0       -2.763903   -2.643874    2.550047
      9          1           0       -1.100489   -2.075964    2.758451
     10          1           0       -1.411584   -3.638674    1.983552
     11          6           0       -2.424667    0.246327   -0.517143
     12          6           0       -2.929302    1.685877   -0.412142
     13          6           0       -2.999161    2.388223   -1.768469
     14          1           0       -1.429203    0.247135   -0.982382
     15          1           0       -3.083888   -0.318375   -1.190555
     16          1           0       -2.268912    2.247168    0.261249
     17          1           0       -3.922929    1.682466    0.054023
     18          1           0       -3.673464    1.853264   -2.445031
     19          1           0       -2.010049    2.421174   -2.236627
     20          1           0       -3.362368    3.415973   -1.670132
     21          6           0        2.816136    0.649497    0.174427
     22          6           0        1.996585    1.777310    0.802406
     23          6           0        2.869247    2.846239    1.460925
     24          1           0        3.444243    0.186724    0.947905
     25          1           0        3.501582    1.075205   -0.571449
     26          1           0        1.311914    1.349441    1.545889
     27          1           0        1.370214    2.237327    0.027384
     28          1           0        3.542358    3.300221    0.726470
     29          1           0        3.483726    2.407290    2.253604
     30          1           0        2.263009    3.642818    1.903417
     31          6           0        1.957816   -0.426796   -0.487847
     32          6           0        2.777367   -1.554611   -1.115826
     33          6           0        1.904705   -2.623540   -1.774345
     34          1           0        1.272370   -0.852504    0.258030
     35          1           0        1.329708    0.035977   -1.261324
     36          1           0        3.403738   -2.014626   -0.340804
     37          1           0        3.462039   -1.126741   -1.859309
     38          1           0        1.290227   -2.184589   -2.567024
     39          1           0        1.231594   -3.077521   -1.039891
     40          1           0        2.510943   -3.420117   -2.216837
 ---------------------------------------------------------------------

 SCF Done:  E(RHF) =  -470.733023095     A.U. after   11 cycles
 E2 =    -0.1584633116D+01 EUMP2 =    -0.47231765621165D+03

 The electronic state is 1-A.
 Alpha  occ. eigenvalues --  -11.21707 -11.21673 -11.21552 -11.21519 -11.21498
 Alpha  occ. eigenvalues --  -11.21439 -11.21344 -11.21276 -11.21143 -11.21117
 Alpha  occ. eigenvalues --  -11.21073 -11.21055  -1.08540  -1.08365  -1.03615
 Alpha  occ. eigenvalues --   -1.03492  -0.96058  -0.95947  -0.87073  -0.86965
 Alpha  occ. eigenvalues --   -0.79703  -0.79539  -0.78441  -0.78102  -0.65232
 Alpha  occ. eigenvalues --   -0.64954  -0.61064  -0.60853  -0.59441  -0.59296
 Alpha  occ. eigenvalues --   -0.57690  -0.57538  -0.55353  -0.55230  -0.52746
 Alpha  occ. eigenvalues --   -0.52648  -0.52482  -0.52375  -0.50014  -0.49894
 Alpha  occ. eigenvalues --   -0.48118  -0.47834  -0.46894  -0.46521  -0.46252
 Alpha  occ. eigenvalues --   -0.45746  -0.45648  -0.45142  -0.43867  -0.43738
 Alpha virt. eigenvalues --    0.19887   0.22355   0.23397   0.23774   0.25545
 Alpha virt. eigenvalues --    0.26603   0.26845   0.27821   0.28079   0.30531
 Alpha virt. eigenvalues --    0.31028   0.31161   0.31630   0.31835   0.32320

 Mulliken charges:
               1
     1  C   -0.298447
     2  C   -0.309604
     3  C   -0.475755
     4  H    0.149908
     5  H    0.149324
     6  H    0.161381
     7  H    0.152082
     8  H    0.155587
     9  H    0.154072
    10  H    0.159770
    11  C   -0.302146
    12  C   -0.300002
    13  C   -0.475469
    14  H    0.154259
    15  H    0.149125
    16  H    0.152579
    17  H    0.151651
    18  H    0.155152
    19  H    0.154226
    20  H    0.160135
    21  C   -0.297781
    22  C   -0.301114
    23  C   -0.475736
    24  H    0.150043
    25  H    0.149972
    26  H    0.152087
    27  H    0.152035
    28  H    0.155566
    29  H    0.155493
    30  H    0.160562
    31  C   -0.306369
    32  C   -0.299614
    33  C   -0.478678
    34  H    0.155571
    35  H    0.151443
    36  H    0.152127
    37  H    0.152210
    38  H    0.155610
    39  H    0.158044
    40  H    0.160699
 Sum of Mulliken charges =  -0.00000

 Dipole moment (field-independent basis, Debye):
    X=              0.0593    Y=             -0.0040    Z=             -0.0158  Tot=              0.0614
 Quadrupole moment (field-independent basis, Debye-Ang):
   XX=            -84.1000   YY=            -85.5532   ZZ=            -85.1067
   XY=             -0.0232   XZ=             -0.2501   YZ=             -0.2065

 Normal termination of Gaussian 16 at Wed May  5 16:37:02 2021.
