 Gaussian 16, Revision A.03,
 Gaussian 16:  EM64L-G16RevA.03 25-Dec-2016

 -------------
 #p 6-31g* mp2
 -------------

 ------------------------------------------------------
 Input file generated by CHIRIPA (05-May-2021 14:51:08)
 ------------------------------------------------------
 Symbolic Z-matrix:
 Charge =  0 Multiplicity = 1

                         Standard orientation:
 ---------------------------------------------------------------------
 Center     Atomic      Atomic             Coordinates (Angstroms)
 Number     Number       Type             X           Y           Z
 ---------------------------------------------------------------------
      1          6           0        3.512081    0.432199   -0.158016
      2          6           0        3.441278   -0.997084   -0.696648
      3          6           0        4.819993   -1.640160   -0.849590
      4          1           0        4.129552    1.041226   -0.832376
      5          1           0        4.024362    0.425325    0.814052
      6          1           0        2.928055   -0.987697   -1.666767
      7          1           0        2.823746   -1.602733   -0.021030
      8          1           0        5.336184   -1.678853    0.115113
      9          1           0        5.441086   -1.060322   -1.539975
     10          1           0        4.745978   -2.661481   -1.235964
     11          6           0        2.141708    1.088486    0.000392
     12          6           0        2.212512    2.517768    0.539023
     13          6           0        0.833796    3.160844    0.691965
     14          1           0        1.629427    1.095360   -0.971676
     15          1           0        1.524237    0.479458    0.674751
     16          1           0        2.830043    3.123417   -0.136595
     17          1           0        2.725734    2.508381    1.509142
     18          1           0        0.212703    2.581007    1.382351
     19          1           0        0.317605    3.199537   -0.272737
     20          1           0        0.907812    4.182165    1.078339
     21          6           0       -2.113745   -1.018957   -0.010456
     22          6           0       -1.665248   -1.959402    1.108650
     23          6           0       -0.236408   -2.468407    0.915976
     24          1           0       -2.036033   -1.541981   -0.973447
     25          1           0       -1.423317   -0.165676   -0.061589
     26          1           0       -2.357117   -2.809956    1.158564
     27          1           0       -1.744220   -1.434142    2.069109
     28          1           0        0.469878   -1.632360    0.887941
     29          1           0       -0.146503   -3.015991   -0.027778
     30          1           0        0.063700   -3.138996    1.727214
     31          6           0       -3.540044   -0.501728    0.168080
     32          6           0       -3.988540    0.438718   -0.951025
     33          6           0       -5.417381    0.947723   -0.758351
     34          1           0       -4.230472   -1.355009    0.219213
     35          1           0       -3.617756    0.021296    1.131072
     36          1           0       -3.909570   -0.086542   -1.911485
     37          1           0       -3.296671    1.289272   -1.000939
     38          1           0       -5.507287    1.495306    0.185402
     39          1           0       -6.123667    0.111675   -0.730316
     40          1           0       -5.717489    1.618311   -1.569590
 ---------------------------------------------------------------------

 SCF Done:  E(RHF) =  -470.732906170     A.U. after   11 cycles
 E2 =    -0.1583836748D+01 EUMP2 =    -0.47231674291796D+03

 The electronic state is 1-A.
 Alpha  occ. eigenvalues --  -11.21655 -11.21583 -11.21570 -11.21540 -11.21440
 Alpha  occ. eigenvalues --  -11.21368 -11.21364 -11.21302 -11.21148 -11.21045
 Alpha  occ. eigenvalues --  -11.21037 -11.21022  -1.08466  -1.08390  -1.03545
 Alpha  occ. eigenvalues --   -1.03503  -0.96007  -0.95951  -0.87020  -0.86973
 Alpha  occ. eigenvalues --   -0.79627  -0.79566  -0.78355  -0.78120  -0.65176
 Alpha  occ. eigenvalues --   -0.64962  -0.60944  -0.60907  -0.59372  -0.59321
 Alpha  occ. eigenvalues --   -0.57633  -0.57545  -0.55372  -0.55176  -0.52710
 Alpha  occ. eigenvalues --   -0.52651  -0.52427  -0.52377  -0.49981  -0.49892
 Alpha  occ. eigenvalues --   -0.47997  -0.47890  -0.46740  -0.46638  -0.46033
 Alpha  occ. eigenvalues --   -0.45728  -0.45708  -0.45172  -0.43800  -0.43755
 Alpha virt. eigenvalues --    0.20833   0.22913   0.23906   0.24064   0.25611
 Alpha virt. eigenvalues --    0.26531   0.26976   0.27368   0.28551   0.29690
 Alpha virt. eigenvalues --    0.30638   0.31536   0.31625   0.31939   0.32128

 Mulliken charges:
               1
     1  C   -0.298210
     2  C   -0.304840
     3  C   -0.475484
     4  H    0.149722
     5  H    0.149218
     6  H    0.151738
     7  H    0.158873
     8  H    0.154962
     9  H    0.154849
    10  H    0.160357
    11  C   -0.305584
    12  C   -0.299083
    13  C   -0.476397
    14  H    0.150366
    15  H    0.155285
    16  H    0.152425
    17  H    0.152081
    18  H    0.154718
    19  H    0.155286
    20  H    0.160814
    21  C   -0.300889
    22  C   -0.299322
    23  C   -0.484727
    24  H    0.149453
    25  H    0.152520
    26  H    0.151856
    27  H    0.151056
    28  H    0.163884
    29  H    0.155754
    30  H    0.159542
    31  C   -0.298094
    32  C   -0.299732
    33  C   -0.475671
    34  H    0.149352
    35  H    0.149472
    36  H    0.151705
    37  H    0.152314
    38  H    0.155250
    39  H    0.155053
    40  H    0.160127
 Sum of Mulliken charges =  -0.00000

 Dipole moment (field-independent basis, Debye):
    X=              0.0266    Y=              0.0130    Z=             -0.0091  Tot=              0.0310
 Quadrupole moment (field-independent basis, Debye-Ang):
   XX=            -86.6417   YY=            -84.5874   ZZ=            -83.6301
   XY=              1.3058   XZ=              0.3187   YZ=              0.0182

 Normal termination of Gaussian 16 at Wed May  5 16:36:28 2021.
