 Gaussian 16, Revision A.03,
 Gaussian 16:  EM64L-G16RevA.03 25-Dec-2016

 -------------
 #p 6-31g* mp2
 -------------

 ------------------------------------------------------
 Input file generated by CHIRIPA (05-May-2021 14:55:25)
 ------------------------------------------------------
 Symbolic Z-matrix:
 Charge =  0 Multiplicity = 1

                         Standard orientation:
 ---------------------------------------------------------------------
 Center     Atomic      Atomic             Coordinates (Angstroms)
 Number     Number       Type             X           Y           Z
 ---------------------------------------------------------------------
      1          6           0       -5.625619   -0.809397    0.477570
      2          6           0       -4.578291   -1.698147    0.741668
      3          6           0       -3.263803   -1.368700    0.397961
      4          6           0       -3.031582   -0.136568   -0.211313
      5          6           0       -4.053723    0.770213   -0.487473
      6          6           0       -5.360461    0.419780   -0.135078
      7          1           0       -6.643735   -1.073471    0.747945
      8          1           0       -4.781261   -2.653432    1.217355
      9          1           0       -2.434169   -2.037947    0.590917
     10          1           0       -3.820243    1.715207   -0.962754
     11          1           0       -6.171856    1.111964   -0.341385
     12          7           0       -1.644095    0.223312   -0.579779
     13          8           0       -1.465807    1.314970   -1.115626
     14          8           0       -0.761144   -0.593087   -0.325759
     15          6           0        4.525757   -0.246773   -0.267227
     16          6           0        5.790369   -0.848670    0.346336
     17          6           0        6.484621   -1.842046   -0.585873
     18          1           0        3.830087   -1.056750   -0.525928
     19          1           0        4.786565    0.254217   -1.209768
     20          1           0        5.527481   -1.347187    1.288137
     21          1           0        6.483031   -0.037156    0.603782
     22          1           0        6.775019   -1.353786   -1.521754
     23          1           0        5.814040   -2.671261   -0.833511
     24          1           0        7.386193   -2.260146   -0.127377
     25          6           0        3.820499    0.748227    0.652725
     26          6           0        2.555887    1.350124    0.039161
     27          6           0        1.861636    2.343500    0.971371
     28          1           0        3.559691    0.247237    1.595266
     29          1           0        4.516170    1.558203    0.911426
     30          1           0        1.863226    0.538608   -0.218285
     31          1           0        2.818775    1.848640   -0.902639
     32          1           0        2.532216    3.172715    1.219009
     33          1           0        1.571238    1.855239    1.907252
     34          1           0        0.960063    2.761599    0.512875
 ---------------------------------------------------------------------

 SCF Done:  E(RHF) =  -669.536887345     A.U. after   15 cycles
 E2 =    -0.2091680385D+01 EUMP2 =    -0.67162856773035D+03

 The electronic state is 1-A.
 Alpha  occ. eigenvalues --  -20.61108 -20.61096 -15.86103 -11.31378 -11.27930
 Alpha  occ. eigenvalues --  -11.27926 -11.27658 -11.26924 -11.26915 -11.20722
 Alpha  occ. eigenvalues --  -11.20344 -11.20239 -11.20024 -11.19672 -11.19447
 Alpha  occ. eigenvalues --   -1.60135  -1.39695  -1.19536  -1.08950  -1.07167
 Alpha  occ. eigenvalues --   -1.04924  -1.02229  -0.95800  -0.94742  -0.86327
 Alpha  occ. eigenvalues --   -0.85777  -0.82636  -0.78347  -0.77696  -0.76895
 Alpha  occ. eigenvalues --   -0.72317  -0.71438  -0.70645  -0.65193  -0.64928
 Alpha  occ. eigenvalues --   -0.63806  -0.62271  -0.59633  -0.58148  -0.56305
 Alpha  occ. eigenvalues --   -0.55425  -0.54067  -0.53257  -0.53015  -0.51450
 Alpha  occ. eigenvalues --   -0.51165  -0.49139  -0.49057  -0.48715  -0.46644
 Alpha  occ. eigenvalues --   -0.45383  -0.45113  -0.44468  -0.44229  -0.42490
 Alpha  occ. eigenvalues --   -0.37511  -0.36522
 Alpha virt. eigenvalues --    0.04817   0.11135   0.16321   0.21269   0.24041
 Alpha virt. eigenvalues --    0.25615   0.27195   0.27866   0.28158   0.28847
 Alpha virt. eigenvalues --    0.29167   0.30851   0.32334   0.32601   0.32971

 Mulliken charges:
               1
     1  C   -0.170371
     2  C   -0.218560
     3  C   -0.170587
     4  C    0.158345
     5  C   -0.170511
     6  C   -0.218592
     7  H    0.226315
     8  H    0.224095
     9  H    0.275785
    10  H    0.276052
    11  H    0.224150
    12  N    0.489531
    13  O   -0.458543
    14  O   -0.459103
    15  C   -0.297827
    16  C   -0.298494
    17  C   -0.474937
    18  H    0.152728
    19  H    0.147739
    20  H    0.149821
    21  H    0.149664
    22  H    0.154208
    23  H    0.154533
    24  H    0.156914
    25  C   -0.297070
    26  C   -0.308452
    27  C   -0.477553
    28  H    0.145607
    29  H    0.143431
    30  H    0.181416
    31  H    0.146824
    32  H    0.145642
    33  H    0.148001
    34  H    0.169802
 Sum of Mulliken charges =  -0.00000

 Dipole moment (field-independent basis, Debye):
    X=             -5.3801    Y=             -1.3585    Z=              1.1659  Tot=              5.6701
 Quadrupole moment (field-independent basis, Debye-Ang):
   XX=            -66.6690   YY=            -91.1395   ZZ=            -95.8459
   XY=              3.6345   XZ=             -2.5572   YZ=             -2.8100

 Normal termination of Gaussian 16 at Thu May  6 01:38:41 2021.
