 Gaussian 16, Revision A.03,
 Gaussian 16:  EM64L-G16RevA.03 25-Dec-2016

 -------------
 #p 6-31g* mp2
 -------------

 ------------------------------------------------------
 Input file generated by CHIRIPA (05-May-2021 14:57:26)
 ------------------------------------------------------
 Symbolic Z-matrix:
 Charge =  0 Multiplicity = 1

                         Standard orientation:
 ---------------------------------------------------------------------
 Center     Atomic      Atomic             Coordinates (Angstroms)
 Number     Number       Type             X           Y           Z
 ---------------------------------------------------------------------
      1          6           0        6.445603   -1.207728   -0.144092
      2          6           0        5.410474   -1.565165    0.726119
      3          6           0        4.229221   -0.818601    0.768905
      4          6           0        4.116346    0.284328   -0.076137
      5          6           0        5.129797    0.665764   -0.954040
      6          6           0        6.302214   -0.095365   -0.979921
      7          1           0        7.359797   -1.793334   -0.170764
      8          1           0        5.519059   -2.428547    1.376370
      9          1           0        3.412088   -1.072982    1.432985
     10          1           0        4.992330    1.531635   -1.590270
     11          1           0        7.104455    0.184567   -1.656746
     12          7           0        2.870484    1.082392   -0.039790
     13          8           0        2.795713    2.049676   -0.794382
     14          8           0        1.992338    0.725520    0.742603
     15          6           0       -2.000849   -0.045521    1.066079
     16          6           0       -2.384261   -1.148256    0.295695
     17          6           0       -3.667618   -1.218329   -0.254427
     18          6           0       -4.546048   -0.163169   -0.012997
     19          6           0       -4.193731    0.948880    0.750227
     20          6           0       -2.905213    0.997688    1.290491
     21          1           0       -1.001901    0.000653    1.489599
     22          1           0       -1.684012   -1.959885    0.119764
     23          1           0       -3.990639   -2.060234   -0.854652
     24          1           0       -4.913811    1.742571    0.908214
     25          1           0       -2.610195    1.855323    1.888381
     26          7           0       -5.907413   -0.226095   -0.590169
     27          8           0       -6.662708    0.716488   -0.362787
     28          8           0       -6.193378   -1.216811   -1.259007
 ---------------------------------------------------------------------

 SCF Done:  E(RHF) =  -868.339756303     A.U. after   16 cycles
 E2 =    -0.2598107674D+01 EUMP2 =    -0.87093786397774D+03

 The electronic state is 1-A.
 Alpha  occ. eigenvalues --  -20.61758 -20.61692 -20.60080 -20.60073 -15.86772
 Alpha  occ. eigenvalues --  -15.85129 -11.31919 -11.30302 -11.28490 -11.28432
 Alpha  occ. eigenvalues --  -11.28144 -11.27431 -11.27398 -11.26902 -11.26866
 Alpha  occ. eigenvalues --  -11.26390 -11.25810 -11.25744  -1.60787  -1.59160
 Alpha  occ. eigenvalues --   -1.40352  -1.38719  -1.20066  -1.18451  -1.09496
 Alpha  occ. eigenvalues --   -1.07840  -1.05438  -1.03845  -0.96371  -0.94711
 Alpha  occ. eigenvalues --   -0.86845  -0.85229  -0.83217  -0.81569  -0.78290
 Alpha  occ. eigenvalues --   -0.76679  -0.73013  -0.72093  -0.71351  -0.71169
 Alpha  occ. eigenvalues --   -0.70482  -0.69444  -0.65723  -0.65434  -0.64089
 Alpha  occ. eigenvalues --   -0.63838  -0.62791  -0.61215  -0.55935  -0.54190
 Alpha  occ. eigenvalues --   -0.53775  -0.53525  -0.52164  -0.51929  -0.49767
 Alpha  occ. eigenvalues --   -0.49715  -0.48117  -0.48089  -0.45804  -0.44169
 Alpha  occ. eigenvalues --   -0.38026  -0.37032  -0.36348  -0.35469
 Alpha virt. eigenvalues --    0.04233   0.05879   0.10627   0.12206   0.15770
 Alpha virt. eigenvalues --    0.17440   0.20765   0.22456   0.26707   0.27551
 Alpha virt. eigenvalues --    0.28193   0.29365   0.30426   0.31652   0.32302

 Mulliken charges:
               1
     1  C   -0.169958
     2  C   -0.218293
     3  C   -0.170907
     4  C    0.157982
     5  C   -0.170211
     6  C   -0.218357
     7  H    0.228050
     8  H    0.224831
     9  H    0.271827
    10  H    0.277212
    11  H    0.225971
    12  N    0.492347
    13  O   -0.454795
    14  O   -0.473987
    15  C   -0.170867
    16  C   -0.220431
    17  C   -0.171778
    18  C    0.156971
    19  C   -0.171550
    20  C   -0.219726
    21  H    0.243916
    22  H    0.219627
    23  H    0.271913
    24  H    0.273071
    25  H    0.224683
    26  N    0.488353
    27  O   -0.462480
    28  O   -0.463414
 Sum of Mulliken charges =  -0.00000

 Dipole moment (field-independent basis, Debye):
    X=              9.7492    Y=             -2.4994    Z=              1.9051  Tot=             10.2432
 Quadrupole moment (field-independent basis, Debye-Ang):
   XX=           -112.6927   YY=           -101.3209   ZZ=           -102.5884
   XY=            -12.4222   XZ=            -12.7280   YZ=             -0.6394

 Normal termination of Gaussian 16 at Fri May  7 09:41:49 2021.
