 Gaussian 16, Revision A.03,
 Gaussian 16:  EM64L-G16RevA.03 25-Dec-2016

 -------------
 #p 6-31g* mp2
 -------------

 ------------------------------------------------------
 Input file generated by CHIRIPA (05-May-2021 14:57:24)
 ------------------------------------------------------
 Symbolic Z-matrix:
 Charge =  0 Multiplicity = 1

                         Standard orientation:
 ---------------------------------------------------------------------
 Center     Atomic      Atomic             Coordinates (Angstroms)
 Number     Number       Type             X           Y           Z
 ---------------------------------------------------------------------
      1          6           0        1.210271   -1.684879   -0.266982
      2          6           0        1.153236   -0.290272   -0.358290
      3          6           0        2.320247    0.475033   -0.274969
      4          6           0        3.532726   -0.190081   -0.099447
      5          6           0        3.622167   -1.578014   -0.004938
      6          6           0        2.442382   -2.323174   -0.090908
      7          1           0        0.298747   -2.271562   -0.332737
      8          1           0        0.197759    0.208134   -0.495041
      9          1           0        2.304873    1.556059   -0.342536
     10          1           0        4.589354   -2.046426    0.131290
     11          1           0        2.489693   -3.406102   -0.019670
     12          7           0        4.774950    0.609450   -0.009837
     13          8           0        5.830718   -0.000513    0.144877
     14          8           0        4.669316    1.830946   -0.096010
     15          6           0       -4.461081   -1.925545   -0.062513
     16          6           0       -3.620392   -1.648708    1.020596
     17          6           0       -2.987348   -0.406894    1.128765
     18          6           0       -3.218450    0.539124    0.131302
     19          6           0       -4.050432    0.293335   -0.959882
     20          6           0       -4.673045   -0.955350   -1.047558
     21          1           0       -4.948792   -2.892886   -0.138582
     22          1           0       -3.453936   -2.400268    1.787078
     23          1           0       -2.331560   -0.166077    1.956634
     24          1           0       -4.196954    1.062614   -1.708320
     25          1           0       -5.325415   -1.167569   -1.889830
     26          7           0       -2.553797    1.857414    0.234968
     27          8           0       -2.773784    2.673897   -0.656995
     28          8           0       -1.825441    2.049245    1.206222
 ---------------------------------------------------------------------

 SCF Done:  E(RHF) =  -868.338101438     A.U. after   16 cycles
 E2 =    -0.2599974124D+01 EUMP2 =    -0.87093807556168D+03

 The electronic state is 1-A.
 Alpha  occ. eigenvalues --  -20.61762 -20.61756 -20.60428 -20.60408 -15.86799
 Alpha  occ. eigenvalues --  -15.85473 -11.32177 -11.30854 -11.28739 -11.28702
 Alpha  occ. eigenvalues --  -11.28438 -11.27731 -11.27685 -11.27470 -11.27347
 Alpha  occ. eigenvalues --  -11.27238 -11.26529 -11.26407  -1.60848  -1.59496
 Alpha  occ. eigenvalues --   -1.40391  -1.39048  -1.20344  -1.19039  -1.09732
 Alpha  occ. eigenvalues --   -1.08451  -1.05722  -1.04430  -0.96558  -0.95274
 Alpha  occ. eigenvalues --   -0.87114  -0.85845  -0.83370  -0.82092  -0.78429
 Alpha  occ. eigenvalues --   -0.77125  -0.72993  -0.72210  -0.71692  -0.71402
 Alpha  occ. eigenvalues --   -0.70819  -0.70175  -0.65971  -0.65692  -0.64694
 Alpha  occ. eigenvalues --   -0.64443  -0.63045  -0.61765  -0.56194  -0.54994
 Alpha  occ. eigenvalues --   -0.54081  -0.53784  -0.52781  -0.52526  -0.49770
 Alpha  occ. eigenvalues --   -0.49759  -0.48459  -0.48441  -0.45770  -0.44449
 Alpha  occ. eigenvalues --   -0.38327  -0.37351  -0.37052  -0.36023
 Alpha virt. eigenvalues --    0.04063   0.05395   0.10269   0.11622   0.15546
 Alpha virt. eigenvalues --    0.16872   0.20559   0.21495   0.26491   0.26948
 Alpha virt. eigenvalues --    0.27566   0.28526   0.30047   0.31016   0.31744

 Mulliken charges:
               1
     1  C   -0.173892
     2  C   -0.217094
     3  C   -0.169985
     4  C    0.158116
     5  C   -0.171648
     6  C   -0.218788
     7  H    0.220864
     8  H    0.224510
     9  H    0.282320
    10  H    0.274310
    11  H    0.220148
    12  N    0.487947
    13  O   -0.462453
    14  O   -0.457880
    15  C   -0.171074
    16  C   -0.221443
    17  C   -0.176409
    18  C    0.151874
    19  C   -0.171093
    20  C   -0.218600
    21  H    0.228574
    22  H    0.225872
    23  H    0.278830
    24  H    0.278567
    25  H    0.227010
    26  N    0.485819
    27  O   -0.455783
    28  O   -0.458618
 Sum of Mulliken charges =  -0.00000

 Dipole moment (field-independent basis, Debye):
    X=             -6.9776    Y=             -7.2982    Z=             -0.6937  Tot=             10.1208
 Quadrupole moment (field-independent basis, Debye-Ang):
   XX=           -118.6332   YY=           -105.5281   ZZ=           -102.0951
   XY=              1.9102   XZ=              2.8456   YZ=             -2.4776

 Normal termination of Gaussian 16 at Fri May  7 04:56:26 2021.
