 Gaussian 16, Revision A.03,
 Gaussian 16:  EM64L-G16RevA.03 25-Dec-2016

 -------------
 #p 6-31g* mp2
 -------------

 ------------------------------------------------------
 Input file generated by CHIRIPA (05-May-2021 14:51:10)
 ------------------------------------------------------
 Symbolic Z-matrix:
 Charge =  0 Multiplicity = 1

                         Standard orientation:
 ---------------------------------------------------------------------
 Center     Atomic      Atomic             Coordinates (Angstroms)
 Number     Number       Type             X           Y           Z
 ---------------------------------------------------------------------
      1          6           0       -3.047833    0.695242   -0.177134
      2          6           0       -2.893233    2.186267    0.124410
      3          6           0       -1.446820    2.666967    0.003530
      4          1           0       -2.410498    0.120869    0.509048
      5          1           0       -2.676817    0.493012   -1.191454
      6          1           0       -3.265708    2.385860    1.137346
      7          1           0       -3.531156    2.757147   -0.562443
      8          1           0       -1.067598    2.496553   -1.009264
      9          1           0       -0.800642    2.123157    0.700184
     10          1           0       -1.359210    3.735565    0.223263
     11          6           0       -4.488171    0.199725   -0.060439
     12          6           0       -4.642770   -1.291300   -0.361983
     13          6           0       -6.089183   -1.771999   -0.241103
     14          1           0       -4.859186    0.401955    0.953881
     15          1           0       -5.125505    0.774098   -0.746621
     16          1           0       -4.004847   -1.862180    0.324870
     17          1           0       -4.270295   -1.490893   -1.374919
     18          1           0       -6.735361   -1.228190   -0.937757
     19          1           0       -6.468405   -1.601586    0.771691
     20          1           0       -6.176794   -2.840597   -0.460836
     21          6           0        3.104868   -0.253986    0.444738
     22          6           0        2.006273   -1.299798    0.251474
     23          6           0        0.685656   -0.898382    0.909221
     24          1           0        3.263293   -0.092245    1.519766
     25          1           0        2.764894    0.705533    0.031052
     26          1           0        2.348764   -2.257402    0.664161
     27          1           0        1.850577   -1.459208   -0.823218
     28          1           0        0.317855    0.044187    0.491027
     29          1           0        0.818872   -0.758542    1.986857
     30          1           0       -0.085645   -1.660166    0.758756
     31          6           0        4.431135   -0.640981   -0.207165
     32          6           0        5.529730    0.404831   -0.013901
     33          6           0        6.850347    0.003415   -0.671648
     34          1           0        4.771110   -1.600501    0.206521
     35          1           0        4.272710   -0.802722   -1.282193
     36          1           0        5.685426    0.564241    1.060791
     37          1           0        5.187239    1.362435   -0.426588
     38          1           0        6.717132   -0.136425   -1.749284
     39          1           0        7.218148   -0.939153   -0.253454
     40          1           0        7.621649    0.765198   -0.521183
 ---------------------------------------------------------------------

 SCF Done:  E(RHF) =  -470.732916106     A.U. after   11 cycles
 E2 =    -0.1583091431D+01 EUMP2 =    -0.47231600753706D+03

 The electronic state is 1-A.
 Alpha  occ. eigenvalues --  -11.21585 -11.21580 -11.21579 -11.21577 -11.21385
 Alpha  occ. eigenvalues --  -11.21355 -11.21326 -11.21283 -11.21067 -11.21059
 Alpha  occ. eigenvalues --  -11.21054 -11.21013  -1.08419  -1.08389  -1.03540
 Alpha  occ. eigenvalues --   -1.03485  -0.95978  -0.95949  -0.86999  -0.86970
 Alpha  occ. eigenvalues --   -0.79666  -0.79501  -0.78264  -0.78159  -0.65077
 Alpha  occ. eigenvalues --   -0.64996  -0.61009  -0.60829  -0.59342  -0.59329
 Alpha  occ. eigenvalues --   -0.57687  -0.57471  -0.55323  -0.55185  -0.52700
 Alpha  occ. eigenvalues --   -0.52643  -0.52504  -0.52271  -0.50007  -0.49844
 Alpha  occ. eigenvalues --   -0.48060  -0.47736  -0.46732  -0.46496  -0.45861
 Alpha  occ. eigenvalues --   -0.45730  -0.45688  -0.45445  -0.43766  -0.43739
 Alpha virt. eigenvalues --    0.21972   0.22988   0.23558   0.24681   0.25840
 Alpha virt. eigenvalues --    0.26438   0.27112   0.27130   0.28022   0.29377
 Alpha virt. eigenvalues --    0.30836   0.31588   0.31764   0.31961   0.32124

 Mulliken charges:
               1
     1  C   -0.303173
     2  C   -0.299232
     3  C   -0.480616
     4  H    0.156865
     5  H    0.148661
     6  H    0.151871
     7  H    0.151691
     8  H    0.154200
     9  H    0.160078
    10  H    0.160494
    11  C   -0.298154
    12  C   -0.299583
    13  C   -0.475661
    14  H    0.149396
    15  H    0.149372
    16  H    0.151769
    17  H    0.151782
    18  H    0.155141
    19  H    0.155182
    20  H    0.160122
    21  C   -0.298718
    22  C   -0.299483
    23  C   -0.484035
    24  H    0.149403
    25  H    0.150081
    26  H    0.151599
    27  H    0.152011
    28  H    0.164664
    29  H    0.153948
    30  H    0.160400
    31  C   -0.298258
    32  C   -0.299660
    33  C   -0.475694
    34  H    0.149461
    35  H    0.149616
    36  H    0.151885
    37  H    0.152078
    38  H    0.155151
    39  H    0.155128
    40  H    0.160222
 Sum of Mulliken charges =  -0.00000

 Dipole moment (field-independent basis, Debye):
    X=              0.0018    Y=              0.0079    Z=              0.0066  Tot=              0.0105
 Quadrupole moment (field-independent basis, Debye-Ang):
   XX=            -86.8519   YY=            -84.8722   ZZ=            -83.2356
   XY=             -0.4802   XZ=              0.8303   YZ=             -0.6312

 Normal termination of Gaussian 16 at Wed May  5 19:46:58 2021.
