 Gaussian 16, Revision A.03,
 Gaussian 16:  EM64L-G16RevA.03 25-Dec-2016

 -------------
 #p 6-31g* mp2
 -------------

 ------------------------------------------------------
 Input file generated by CHIRIPA (05-May-2021 14:55:24)
 ------------------------------------------------------
 Symbolic Z-matrix:
 Charge =  0 Multiplicity = 1

                         Standard orientation:
 ---------------------------------------------------------------------
 Center     Atomic      Atomic             Coordinates (Angstroms)
 Number     Number       Type             X           Y           Z
 ---------------------------------------------------------------------
      1          6           0       -2.645671   -0.039031   -2.115775
      2          6           0       -2.228579    1.155375   -1.519159
      3          6           0       -1.753371    1.164172   -0.204379
      4          6           0       -1.708642   -0.045075    0.487728
      5          6           0       -2.117020   -1.251399   -0.079105
      6          6           0       -2.588661   -1.236494   -1.395115
      7          1           0       -3.013439   -0.036658   -3.137606
      8          1           0       -2.271738    2.086838   -2.076438
      9          1           0       -1.424136    2.074451    0.281846
     10          1           0       -2.062233   -2.164155    0.501664
     11          1           0       -2.911916   -2.165594   -1.855903
     12          7           0       -1.207449   -0.048308    1.880278
     13          8           0       -1.177977   -1.126972    2.468710
     14          8           0       -0.853576    1.027883    2.356957
     15          6           0        2.302958    0.717738    0.052588
     16          6           0        2.025608    1.934925   -0.830315
     17          6           0        2.049310    3.249302   -0.049518
     18          1           0        1.557866    0.680290    0.859051
     19          1           0        3.281734    0.840077    0.536762
     20          1           0        1.048259    1.809682   -1.313760
     21          1           0        2.771332    1.969372   -1.634881
     22          1           0        3.026694    3.400984    0.419858
     23          1           0        1.293831    3.240386    0.742804
     24          1           0        1.848658    4.106334   -0.699974
     25          6           0        2.282630   -0.603710   -0.713629
     26          6           0        2.559979   -1.820897    0.169275
     27          6           0        2.536279   -3.135274   -0.611523
     28          1           0        1.303854   -0.726050   -1.197803
     29          1           0        3.027722   -0.566262   -1.520091
     30          1           0        1.814255   -1.855346    0.973841
     31          1           0        3.537329   -1.695655    0.652719
     32          1           0        3.291757   -3.126359   -1.403845
     33          1           0        1.558894   -3.286957   -1.080898
     34          1           0        2.736929   -3.992307    0.038934
 ---------------------------------------------------------------------

 SCF Done:  E(RHF) =  -669.536371060     A.U. after   15 cycles
 E2 =    -0.2095452771D+01 EUMP2 =    -0.67163182383066D+03

 The electronic state is 1-A.
 Alpha  occ. eigenvalues --  -20.61103 -20.61090 -15.86089 -11.31378 -11.27952
 Alpha  occ. eigenvalues --  -11.27940 -11.27670 -11.26942 -11.26931 -11.21398
 Alpha  occ. eigenvalues --  -11.21212 -11.21075 -11.20928 -11.20879 -11.20857
 Alpha  occ. eigenvalues --   -1.60139  -1.39698  -1.19557  -1.08961  -1.08126
 Alpha  occ. eigenvalues --   -1.04947  -1.03272  -0.95810  -0.95727  -0.86744
 Alpha  occ. eigenvalues --   -0.86341  -0.82644  -0.79328  -0.77926  -0.77697
 Alpha  occ. eigenvalues --   -0.72321  -0.71478  -0.70656  -0.65209  -0.64970
 Alpha  occ. eigenvalues --   -0.64732  -0.62306  -0.60670  -0.59091  -0.57328
 Alpha  occ. eigenvalues --   -0.55444  -0.55031  -0.53274  -0.53021  -0.52438
 Alpha  occ. eigenvalues --   -0.52142  -0.49688  -0.49101  -0.49076  -0.47659
 Alpha  occ. eigenvalues --   -0.46427  -0.45549  -0.45416  -0.44814  -0.43506
 Alpha  occ. eigenvalues --   -0.37515  -0.36494
 Alpha virt. eigenvalues --    0.04773   0.11053   0.16205   0.20665   0.22871
 Alpha virt. eigenvalues --    0.23990   0.26501   0.27210   0.27307   0.27862
 Alpha virt. eigenvalues --    0.29071   0.30493   0.31189   0.31819   0.32215

 Mulliken charges:
               1
     1  C   -0.170182
     2  C   -0.219402
     3  C   -0.170630
     4  C    0.158005
     5  C   -0.171377
     6  C   -0.218799
     7  H    0.226804
     8  H    0.225180
     9  H    0.278893
    10  H    0.276454
    11  H    0.224541
    12  N    0.487740
    13  O   -0.457314
    14  O   -0.457907
    15  C   -0.306204
    16  C   -0.301970
    17  C   -0.481049
    18  H    0.161039
    19  H    0.150983
    20  H    0.145742
    21  H    0.150003
    22  H    0.158068
    23  H    0.163582
    24  H    0.154387
    25  C   -0.301058
    26  C   -0.303104
    27  C   -0.474461
    28  H    0.147527
    29  H    0.146924
    30  H    0.160249
    31  H    0.153027
    32  H    0.153451
    33  H    0.149437
    34  H    0.161418
 Sum of Mulliken charges =  -0.00000

 Dipole moment (field-independent basis, Debye):
    X=             -1.9313    Y=             -0.0203    Z=             -4.7217  Tot=              5.1015
 Quadrupole moment (field-independent basis, Debye-Ang):
   XX=            -88.2004   YY=            -91.2655   ZZ=           -100.2811
   XY=              1.0157   XZ=              7.8993   YZ=             -0.4479

 Normal termination of Gaussian 16 at Thu May  6 06:21:06 2021.
