 Gaussian 16, Revision A.03,
 Gaussian 16:  EM64L-G16RevA.03 25-Dec-2016

 -------------
 #p 6-31g* mp2
 -------------

 ------------------------------------------------------
 Input file generated by CHIRIPA (05-May-2021 14:55:19)
 ------------------------------------------------------
 Symbolic Z-matrix:
 Charge =  0 Multiplicity = 1

                         Standard orientation:
 ---------------------------------------------------------------------
 Center     Atomic      Atomic             Coordinates (Angstroms)
 Number     Number       Type             X           Y           Z
 ---------------------------------------------------------------------
      1          6           0        3.087353    2.577961   -0.002381
      2          6           0        2.111939    1.610432   -0.265010
      3          6           0        2.444999    0.252735   -0.281735
      4          6           0        3.769078   -0.103596   -0.030472
      5          6           0        4.763504    0.836756    0.234374
      6          6           0        4.407695    2.188722    0.246035
      7          1           0        2.819788    3.630427    0.008644
      8          1           0        1.085749    1.909809   -0.458281
      9          1           0        1.709805   -0.517137   -0.482245
     10          1           0        5.778090    0.507645    0.423372
     11          1           0        5.167305    2.937933    0.450290
     12          7           0        4.133716   -1.537895   -0.045498
     13          8           0        5.307298   -1.825925    0.178959
     14          8           0        3.239032   -2.346911   -0.281446
     15          6           0       -4.132296   -0.530221    0.310032
     16          6           0       -2.825725   -0.085559   -0.348095
     17          6           0       -1.603946   -0.815227    0.211044
     18          1           0       -4.066056   -0.360430    1.393420
     19          1           0       -4.255093   -1.613176    0.170303
     20          1           0       -2.706113    0.996469   -0.208363
     21          1           0       -2.895155   -0.256250   -1.430065
     22          1           0       -1.696822   -1.895291    0.057959
     23          1           0       -1.506706   -0.635454    1.286603
     24          1           0       -0.680837   -0.482047   -0.273435
     25          6           0       -5.362696    0.190270   -0.238363
     26          6           0       -6.669267   -0.254392    0.419765
     27          6           0       -7.891045    0.475276   -0.139374
     28          1           0       -5.239899    1.273225   -0.098633
     29          1           0       -5.428935    0.020478   -1.321750
     30          1           0       -6.599836   -0.083701    1.501735
     31          1           0       -6.788879   -1.336421    0.280033
     32          1           0       -7.988287    0.295503   -1.214933
     33          1           0       -7.798169    1.555340    0.013711
     34          1           0       -8.814155    0.142096    0.345105
 ---------------------------------------------------------------------

 SCF Done:  E(RHF) =  -669.535341621     A.U. after   15 cycles
 E2 =    -0.2091044096D+01 EUMP2 =    -0.67162638571710D+03

 The electronic state is 1-A.
 Alpha  occ. eigenvalues --  -20.60720 -20.60713 -15.85771 -11.31134 -11.27712
 Alpha  occ. eigenvalues --  -11.27684 -11.27461 -11.26731 -11.26715 -11.22140
 Alpha  occ. eigenvalues --  -11.21841 -11.21763 -11.21700 -11.21677 -11.21279
 Alpha  occ. eigenvalues --   -1.59793  -1.39347  -1.19312  -1.08799  -1.08709
 Alpha  occ. eigenvalues --   -1.04720  -1.03922  -0.96374  -0.95543  -0.87392
 Alpha  occ. eigenvalues --   -0.86115  -0.82377  -0.79986  -0.78592  -0.77423
 Alpha  occ. eigenvalues --   -0.71991  -0.71116  -0.70435  -0.65422  -0.64970
 Alpha  occ. eigenvalues --   -0.64726  -0.62140  -0.61305  -0.59742  -0.57979
 Alpha  occ. eigenvalues --   -0.55633  -0.55229  -0.53171  -0.53030  -0.52814
 Alpha  occ. eigenvalues --   -0.52714  -0.50287  -0.48749  -0.48744  -0.48301
 Alpha  occ. eigenvalues --   -0.47004  -0.46137  -0.46049  -0.44752  -0.44180
 Alpha  occ. eigenvalues --   -0.37298  -0.36316
 Alpha virt. eigenvalues --    0.05111   0.11333   0.16593   0.19895   0.22666
 Alpha virt. eigenvalues --    0.23784   0.25852   0.26285   0.27075   0.27927
 Alpha virt. eigenvalues --    0.28723   0.30198   0.31094   0.31532   0.31985

 Mulliken charges:
               1
     1  C   -0.170837
     2  C   -0.220499
     3  C   -0.178093
     4  C    0.160451
     5  C   -0.170648
     6  C   -0.218866
     7  H    0.225352
     8  H    0.223965
     9  H    0.282488
    10  H    0.275439
    11  H    0.223279
    12  N    0.487992
    13  O   -0.460733
    14  O   -0.460084
    15  C   -0.299218
    16  C   -0.299878
    17  C   -0.478093
    18  H    0.150595
    19  H    0.152514
    20  H    0.147410
    21  H    0.153820
    22  H    0.164474
    23  H    0.158696
    24  H    0.148741
    25  C   -0.298450
    26  C   -0.300026
    27  C   -0.475890
    28  H    0.148479
    29  H    0.150369
    30  H    0.152331
    31  H    0.153270
    32  H    0.155604
    33  H    0.154772
    34  H    0.161273
 Sum of Mulliken charges =  -0.00000

 Dipole moment (field-independent basis, Debye):
    X=             -1.4458    Y=              4.9779    Z=              0.0877  Tot=              5.1844
 Quadrupole moment (field-independent basis, Debye-Ang):
   XX=           -100.4261   YY=            -95.6666   ZZ=            -94.9938
   XY=             21.4168   XZ=              1.1653   YZ=              0.7897

 Normal termination of Gaussian 16 at Thu May  6 01:19:52 2021.
