 Gaussian 16, Revision A.03,
 Gaussian 16:  EM64L-G16RevA.03 25-Dec-2016

 -------------
 #p 6-31g* mp2
 -------------

 ------------------------------------------------------
 Input file generated by CHIRIPA (05-May-2021 14:55:22)
 ------------------------------------------------------
 Symbolic Z-matrix:
 Charge =  0 Multiplicity = 1

                         Standard orientation:
 ---------------------------------------------------------------------
 Center     Atomic      Atomic             Coordinates (Angstroms)
 Number     Number       Type             X           Y           Z
 ---------------------------------------------------------------------
      1          6           0       -0.977892    1.279597    2.025491
      2          6           0       -0.846755   -0.111597    2.087975
      3          6           0       -1.487693   -0.927953    1.151327
      4          6           0       -2.255383   -0.316816    0.161148
      5          6           0       -2.405334    1.066276    0.072484
      6          6           0       -1.755392    1.863064    1.019717
      7          1           0       -0.476499    1.906161    2.757213
      8          1           0       -0.243581   -0.567483    2.867971
      9          1           0       -1.403197   -2.007605    1.176398
     10          1           0       -3.013384    1.491670   -0.716650
     11          1           0       -1.859020    2.943207    0.968748
     12          7           0       -2.938681   -1.170698   -0.836042
     13          8           0       -3.609296   -0.607756   -1.698602
     14          8           0       -2.790697   -2.386744   -0.736199
     15          6           0        2.150940    0.644375   -0.656749
     16          6           0        2.438589    2.146018   -0.674346
     17          6           0        1.245117    2.970920   -1.156997
     18          1           0        1.863978    0.320606   -1.666587
     19          1           0        1.284721    0.451611   -0.008750
     20          1           0        3.304863    2.335740   -1.321023
     21          1           0        2.725086    2.466212    0.335610
     22          1           0        0.378400    2.811012   -0.507510
     23          1           0        0.961471    2.679799   -2.173557
     24          1           0        1.472628    4.041470   -1.161688
     25          6           0        3.334545   -0.193594   -0.176524
     26          6           0        3.046894   -1.695238   -0.158927
     27          6           0        4.240367   -2.520140    0.323724
     28          1           0        4.200762   -0.000830   -0.824523
     29          1           0        3.621506    0.130174    0.833314
     30          1           0        2.760397   -2.015433   -1.168883
     31          1           0        2.180620   -1.884960    0.487750
     32          1           0        4.524013   -2.229018    1.340284
     33          1           0        5.107084   -2.360232   -0.325763
     34          1           0        4.012856   -3.590689    0.328415
 ---------------------------------------------------------------------

 SCF Done:  E(RHF) =  -669.534652866     A.U. after   15 cycles
 E2 =    -0.2094835539D+01 EUMP2 =    -0.67162948840516D+03

 The electronic state is 1-A.
 Alpha  occ. eigenvalues --  -20.60857 -20.60852 -15.85913 -11.31340 -11.27925
 Alpha  occ. eigenvalues --  -11.27910 -11.27665 -11.26950 -11.26923 -11.21860
 Alpha  occ. eigenvalues --  -11.21816 -11.21594 -11.21416 -11.21284 -11.21279
 Alpha  occ. eigenvalues --   -1.59930  -1.39482  -1.19536  -1.08924  -1.08616
 Alpha  occ. eigenvalues --   -1.04950  -1.03754  -0.96197  -0.95731  -0.87226
 Alpha  occ. eigenvalues --   -0.86329  -0.82562  -0.79823  -0.78432  -0.77596
 Alpha  occ. eigenvalues --   -0.72130  -0.71252  -0.70619  -0.65304  -0.65179
 Alpha  occ. eigenvalues --   -0.64930  -0.62291  -0.61181  -0.59566  -0.57811
 Alpha  occ. eigenvalues --   -0.55523  -0.55419  -0.53372  -0.53036  -0.52889
 Alpha  occ. eigenvalues --   -0.52618  -0.50165  -0.48894  -0.48880  -0.48120
 Alpha  occ. eigenvalues --   -0.46857  -0.45958  -0.45812  -0.44873  -0.43988
 Alpha  occ. eigenvalues --   -0.37458  -0.36466
 Alpha virt. eigenvalues --    0.04917   0.11011   0.16316   0.20792   0.22909
 Alpha virt. eigenvalues --    0.23894   0.26258   0.26735   0.27257   0.28187
 Alpha virt. eigenvalues --    0.28296   0.30656   0.31360   0.31800   0.31968

 Mulliken charges:
               1
     1  C   -0.170350
     2  C   -0.219803
     3  C   -0.170009
     4  C    0.160125
     5  C   -0.168922
     6  C   -0.219695
     7  H    0.227032
     8  H    0.224625
     9  H    0.276736
    10  H    0.276962
    11  H    0.226106
    12  N    0.488087
    13  O   -0.459842
    14  O   -0.459836
    15  C   -0.307076
    16  C   -0.297517
    17  C   -0.482667
    18  H    0.151779
    19  H    0.158085
    20  H    0.153103
    21  H    0.145900
    22  H    0.155742
    23  H    0.157926
    24  H    0.157277
    25  C   -0.297584
    26  C   -0.298695
    27  C   -0.475868
    28  H    0.150528
    29  H    0.144929
    30  H    0.156384
    31  H    0.145709
    32  H    0.152558
    33  H    0.156667
    34  H    0.161604
 Sum of Mulliken charges =  -0.00000

 Dipole moment (field-independent basis, Debye):
    X=              2.2364    Y=              2.9247    Z=              3.5046  Tot=              5.0831
 Quadrupole moment (field-independent basis, Debye-Ang):
   XX=           -106.2152   YY=            -94.3785   ZZ=            -92.2645
   XY=             -9.1191   XZ=             -7.3996   YZ=             -2.1839

 Normal termination of Gaussian 16 at Thu May  6 01:27:30 2021.
