 Gaussian 16, Revision A.03,
 Gaussian 16:  EM64L-G16RevA.03 25-Dec-2016

 -------------
 #p 6-31g* mp2
 -------------

 ------------------------------------------------------
 Input file generated by CHIRIPA (05-May-2021 14:57:22)
 ------------------------------------------------------
 Symbolic Z-matrix:
 Charge =  0 Multiplicity = 1

                         Standard orientation:
 ---------------------------------------------------------------------
 Center     Atomic      Atomic             Coordinates (Angstroms)
 Number     Number       Type             X           Y           Z
 ---------------------------------------------------------------------
      1          6           0        4.899622    1.144625   -0.049248
      2          6           0        4.261175    0.990775    1.185756
      3          6           0        3.129108    0.178925    1.303540
      4          6           0        2.660383   -0.467212    0.160696
      5          6           0        3.274456   -0.333936   -1.083668
      6          6           0        4.405097    0.482946   -1.178029
      7          1           0        5.778485    1.777244   -0.131648
      8          1           0        4.643012    1.503431    2.064067
      9          1           0        2.615408    0.042164    2.247376
     10          1           0        2.870449   -0.857754   -1.941462
     11          1           0        4.898886    0.600578   -2.138435
     12          7           0        1.462669   -1.329344    0.272990
     13          8           0        1.069455   -1.887805   -0.748842
     14          8           0        0.939795   -1.430298    1.380712
     15          6           0       -3.159235   -2.179123   -0.080519
     16          6           0       -2.374067   -1.592957   -1.078739
     17          6           0       -2.200084   -0.206468   -1.122631
     18          6           0       -2.828637    0.567224   -0.148151
     19          6           0       -3.617053    0.012902    0.859033
     20          6           0       -3.777134   -1.375739    0.883481
     21          1           0       -3.288989   -3.257017   -0.053976
     22          1           0       -1.893004   -2.214402   -1.828691
     23          1           0       -1.597645    0.273520   -1.884271
     24          1           0       -4.084003    0.658450    1.592956
     25          1           0       -4.387473   -1.828218    1.659879
     26          7           0       -2.651809    2.036177   -0.184324
     27          8           0       -3.216201    2.695799    0.685732
     28          8           0       -1.952167    2.500105   -1.082048
 ---------------------------------------------------------------------

 SCF Done:  E(RHF) =  -868.339571664     A.U. after   16 cycles
 E2 =    -0.2599811316D+01 EUMP2 =    -0.87093938298042D+03

 The electronic state is 1-A.
 Alpha  occ. eigenvalues --  -20.61194 -20.61148 -20.59986 -20.59975 -15.86198
 Alpha  occ. eigenvalues --  -15.85020 -11.31325 -11.30032 -11.27890 -11.27849
 Alpha  occ. eigenvalues --  -11.27563 -11.26838 -11.26813 -11.26554 -11.26476
 Alpha  occ. eigenvalues --  -11.26160 -11.25551 -11.25370  -1.60228  -1.59065
 Alpha  occ. eigenvalues --   -1.39796  -1.38629  -1.19472  -1.18132  -1.08913
 Alpha  occ. eigenvalues --   -1.07598  -1.04844  -1.03477  -0.95793  -0.94506
 Alpha  occ. eigenvalues --   -0.86257  -0.84909  -0.82643  -0.81352  -0.77714
 Alpha  occ. eigenvalues --   -0.76449  -0.72448  -0.71537  -0.71253  -0.70589
 Alpha  occ. eigenvalues --   -0.70378  -0.69272  -0.65137  -0.64852  -0.63795
 Alpha  occ. eigenvalues --   -0.63491  -0.62203  -0.60857  -0.55358  -0.54014
 Alpha  occ. eigenvalues --   -0.53178  -0.52942  -0.51828  -0.51591  -0.49196
 Alpha  occ. eigenvalues --   -0.49139  -0.48025  -0.47972  -0.45260  -0.44114
 Alpha  occ. eigenvalues --   -0.37435  -0.36429  -0.36066  -0.34982
 Alpha virt. eigenvalues --    0.04787   0.06070   0.11227   0.12620   0.16336
 Alpha virt. eigenvalues --    0.17697   0.21354   0.22646   0.27271   0.28132
 Alpha virt. eigenvalues --    0.28628   0.29433   0.30947   0.32170   0.32429

 Mulliken charges:
               1
     1  C   -0.169386
     2  C   -0.217712
     3  C   -0.169285
     4  C    0.159045
     5  C   -0.170063
     6  C   -0.217631
     7  H    0.226965
     8  H    0.224946
     9  H    0.276025
    10  H    0.272487
    11  H    0.224049
    12  N    0.489898
    13  O   -0.470140
    14  O   -0.457270
    15  C   -0.168160
    16  C   -0.198058
    17  C   -0.174724
    18  C    0.158375
    19  C   -0.172419
    20  C   -0.216115
    21  H    0.223423
    22  H    0.228276
    23  H    0.269846
    24  H    0.270449
    25  H    0.219029
    26  N    0.488001
    27  O   -0.464000
    28  O   -0.465852
 Sum of Mulliken charges =  -0.00000

 Dipole moment (field-independent basis, Debye):
    X=              3.9084    Y=             -2.3337    Z=             -0.2344  Tot=              4.5581
 Quadrupole moment (field-independent basis, Debye-Ang):
   XX=            -78.5636   YY=           -114.7850   ZZ=            -97.2366
   XY=             21.2751   XZ=             -3.4813   YZ=              3.2649

 Normal termination of Gaussian 16 at Wed May  5 20:58:42 2021.
