 Gaussian 16, Revision A.03,
 Gaussian 16:  EM64L-G16RevA.03 25-Dec-2016

 -------------
 #p 6-31g* mp2
 -------------

 ------------------------------------------------------
 Input file generated by CHIRIPA (05-May-2021 14:57:21)
 ------------------------------------------------------
 Symbolic Z-matrix:
 Charge =  0 Multiplicity = 1

                         Standard orientation:
 ---------------------------------------------------------------------
 Center     Atomic      Atomic             Coordinates (Angstroms)
 Number     Number       Type             X           Y           Z
 ---------------------------------------------------------------------
      1          6           0        4.633895    2.002810    0.203963
      2          6           0        5.078027    0.859979   -0.469243
      3          6           0        4.256861   -0.266672   -0.573618
      4          6           0        2.991740   -0.215714    0.009616
      5          6           0        2.520694    0.908025    0.686828
      6          6           0        3.358894    2.023150    0.778836
      7          1           0        5.278413    2.873542    0.280241
      8          1           0        6.067729    0.841344   -0.916665
      9          1           0        4.575503   -1.164553   -1.089074
     10          1           0        1.529047    0.896689    1.122634
     11          1           0        3.011336    2.909310    1.302256
     12          7           0        2.113392   -1.402347   -0.094336
     13          8           0        1.003093   -1.332199    0.428112
     14          8           0        2.551874   -2.380109   -0.696293
     15          6           0       -2.280148   -2.281711    0.551223
     16          6           0       -2.363653   -1.881369   -0.786415
     17          6           0       -2.836618   -0.608307   -1.118326
     18          6           0       -3.219292    0.242677   -0.082625
     19          6           0       -3.147836   -0.127023    1.259578
     20          6           0       -2.671816   -1.404807    1.568157
     21          1           0       -1.911550   -3.272490    0.799997
     22          1           0       -2.060177   -2.560286   -1.578261
     23          1           0       -2.911625   -0.272636   -2.145514
     24          1           0       -3.457719    0.571876    2.026997
     25          1           0       -2.608051   -1.713019    2.607861
     26          7           0       -3.721617    1.592910   -0.421653
     27          8           0       -4.052536    2.323952    0.509318
     28          8           0       -3.774909    1.894613   -1.611936
 ---------------------------------------------------------------------

 SCF Done:  E(RHF) =  -868.339135979     A.U. after   16 cycles
 E2 =    -0.2599470025D+01 EUMP2 =    -0.87093860600387D+03

 The electronic state is 1-A.
 Alpha  occ. eigenvalues --  -20.61283 -20.61266 -20.60130 -20.60119 -15.86300
 Alpha  occ. eigenvalues --  -15.85171 -11.31467 -11.30187 -11.28022 -11.27995
 Alpha  occ. eigenvalues --  -11.27712 -11.26989 -11.26956 -11.26787 -11.26721
 Alpha  occ. eigenvalues --  -11.26315 -11.25659 -11.25566  -1.60355  -1.59214
 Alpha  occ. eigenvalues --   -1.39910  -1.38777  -1.19621  -1.18317  -1.09057
 Alpha  occ. eigenvalues --   -1.07743  -1.04990  -1.03694  -0.95927  -0.94651
 Alpha  occ. eigenvalues --   -0.86398  -0.85098  -0.82761  -0.81521  -0.77832
 Alpha  occ. eigenvalues --   -0.76635  -0.72548  -0.71662  -0.71399  -0.70725
 Alpha  occ. eigenvalues --   -0.70540  -0.69400  -0.65275  -0.64990  -0.63975
 Alpha  occ. eigenvalues --   -0.63703  -0.62339  -0.61084  -0.55500  -0.54134
 Alpha  occ. eigenvalues --   -0.53334  -0.53078  -0.51997  -0.51800  -0.49309
 Alpha  occ. eigenvalues --   -0.49279  -0.48171  -0.48121  -0.45356  -0.44263
 Alpha  occ. eigenvalues --   -0.37592  -0.36585  -0.36120  -0.35282
 Alpha virt. eigenvalues --    0.04678   0.05916   0.11072   0.12395   0.16228
 Alpha virt. eigenvalues --    0.17539   0.21245   0.22489   0.27168   0.28114
 Alpha virt. eigenvalues --    0.28307   0.29390   0.30821   0.32061   0.32316

 Mulliken charges:
               1
     1  C   -0.170040
     2  C   -0.218563
     3  C   -0.170917
     4  C    0.157363
     5  C   -0.170568
     6  C   -0.218292
     7  H    0.227247
     8  H    0.224202
     9  H    0.274976
    10  H    0.276461
    11  H    0.226254
    12  N    0.490202
    13  O   -0.464436
    14  O   -0.463220
    15  C   -0.149247
    16  C   -0.211282
    17  C   -0.173621
    18  C    0.155791
    19  C   -0.174636
    20  C   -0.218512
    21  H    0.228401
    22  H    0.223819
    23  H    0.271151
    24  H    0.269677
    25  H    0.219241
    26  N    0.487870
    27  O   -0.465584
    28  O   -0.463734
 Sum of Mulliken charges =  -0.00000

 Dipole moment (field-independent basis, Debye):
    X=              5.2024    Y=             -0.7992    Z=              1.5798  Tot=              5.4954
 Quadrupole moment (field-independent basis, Debye-Ang):
   XX=            -97.1268   YY=           -108.3020   ZZ=            -99.8498
   XY=             26.8480   XZ=             -5.6631   YZ=              3.2126

 Normal termination of Gaussian 16 at Thu May  6 19:29:37 2021.
