 Gaussian 16, Revision A.03,
 Gaussian 16:  EM64L-G16RevA.03 25-Dec-2016

 -------------
 #p 6-31g* mp2
 -------------

 ------------------------------------------------------
 Input file generated by CHIRIPA (05-May-2021 14:55:22)
 ------------------------------------------------------
 Symbolic Z-matrix:
 Charge =  0 Multiplicity = 1

                         Standard orientation:
 ---------------------------------------------------------------------
 Center     Atomic      Atomic             Coordinates (Angstroms)
 Number     Number       Type             X           Y           Z
 ---------------------------------------------------------------------
      1          6           0       -0.808061   -2.556641   -0.185783
      2          6           0       -2.025494   -2.504599   -0.872565
      3          6           0       -2.883285   -1.411898   -0.715256
      4          6           0       -2.490319   -0.384147    0.140662
      5          6           0       -1.283887   -0.406919    0.838726
      6          6           0       -0.441789   -1.509481    0.666169
      7          1           0       -0.147804   -3.409308   -0.313906
      8          1           0       -2.312539   -3.316398   -1.534858
      9          1           0       -3.831539   -1.345951   -1.234759
     10          1           0       -1.025073    0.417488    1.492015
     11          1           0        0.503082   -1.547208    1.200810
     12          7           0       -3.390117    0.777867    0.315269
     13          8           0       -3.020843    1.670514    1.075174
     14          8           0       -4.447616    0.774003   -0.311085
     15          6           0        3.118953   -0.008581   -0.028800
     16          6           0        4.598580   -0.367951    0.110994
     17          6           0        4.824840   -1.862748    0.339430
     18          1           0        2.583569   -0.327880    0.875832
     19          1           0        2.687972   -0.577490   -0.864259
     20          1           0        5.026975    0.202503    0.945065
     21          1           0        5.130537   -0.047587   -0.793996
     22          1           0        4.423825   -2.445219   -0.496343
     23          1           0        4.319675   -2.193708    1.252598
     24          1           0        5.889432   -2.097408    0.436573
     25          6           0        2.876622    1.482272   -0.257625
     26          6           0        1.396994    1.841642   -0.397418
     27          6           0        1.170735    3.336439   -0.625855
     28          1           0        3.307603    2.051181    0.577834
     29          1           0        3.412005    1.801571   -1.162257
     30          1           0        0.865038    1.521278    0.507571
     31          1           0        0.968599    1.271188   -1.231489
     32          1           0        1.675900    3.667398   -1.539023
     33          1           0        1.571750    3.918909    0.209919
     34          1           0        0.106143    3.571098   -0.722997
 ---------------------------------------------------------------------

 SCF Done:  E(RHF) =  -669.534080649     A.U. after   15 cycles
 E2 =    -0.2093773008D+01 EUMP2 =    -0.67162785365704D+03

 The electronic state is 1-A.
 Alpha  occ. eigenvalues --  -20.60746 -20.60741 -15.85797 -11.31127 -11.27699
 Alpha  occ. eigenvalues --  -11.27684 -11.27430 -11.26708 -11.26651 -11.22232
 Alpha  occ. eigenvalues --  -11.22119 -11.21873 -11.21798 -11.21795 -11.21040
 Alpha  occ. eigenvalues --   -1.59821  -1.39375  -1.19304  -1.08968  -1.08698
 Alpha  occ. eigenvalues --   -1.04710  -1.03961  -0.96418  -0.95544  -0.87430
 Alpha  occ. eigenvalues --   -0.86103  -0.82389  -0.80064  -0.78837  -0.77396
 Alpha  occ. eigenvalues --   -0.72017  -0.71143  -0.70426  -0.65622  -0.64951
 Alpha  occ. eigenvalues --   -0.64732  -0.62091  -0.61332  -0.59797  -0.58024
 Alpha  occ. eigenvalues --   -0.55728  -0.55210  -0.53171  -0.52992  -0.52927
 Alpha  occ. eigenvalues --   -0.52671  -0.50356  -0.48780  -0.48775  -0.48335
 Alpha  occ. eigenvalues --   -0.47099  -0.46310  -0.46213  -0.44784  -0.44230
 Alpha  occ. eigenvalues --   -0.37282  -0.36215
 Alpha virt. eigenvalues --    0.05085   0.11270   0.16527   0.19938   0.22879
 Alpha virt. eigenvalues --    0.23528   0.24799   0.26546   0.27332   0.27914
 Alpha virt. eigenvalues --    0.29192   0.30704   0.31280   0.31500   0.31990

 Mulliken charges:
               1
     1  C   -0.173122
     2  C   -0.218721
     3  C   -0.171584
     4  C    0.156967
     5  C   -0.169471
     6  C   -0.216397
     7  H    0.225787
     8  H    0.222977
     9  H    0.275208
    10  H    0.275372
    11  H    0.227442
    12  N    0.488156
    13  O   -0.461143
    14  O   -0.460562
    15  C   -0.299716
    16  C   -0.299483
    17  C   -0.476094
    18  H    0.139834
    19  H    0.150057
    20  H    0.154281
    21  H    0.155093
    22  H    0.153290
    23  H    0.151038
    24  H    0.163910
    25  C   -0.298453
    26  C   -0.299868
    27  C   -0.477303
    28  H    0.150949
    29  H    0.152131
    30  H    0.144972
    31  H    0.154359
    32  H    0.154534
    33  H    0.155604
    34  H    0.169956
 Sum of Mulliken charges =  -0.00000

 Dipole moment (field-independent basis, Debye):
    X=              3.2436    Y=             -3.9715    Z=             -0.6988  Tot=              5.1751
 Quadrupole moment (field-independent basis, Debye-Ang):
   XX=           -108.7353   YY=            -92.1401   ZZ=            -92.4742
   XY=             10.9794   XZ=              4.1413   YZ=              1.4677

 Normal termination of Gaussian 16 at Thu May  6 14:12:46 2021.
