 Gaussian 16, Revision A.03,
 Gaussian 16:  EM64L-G16RevA.03 25-Dec-2016

 -------------
 #p 6-31g* mp2
 -------------

 ------------------------------------------------------
 Input file generated by CHIRIPA (05-May-2021 14:57:25)
 ------------------------------------------------------
 Symbolic Z-matrix:
 Charge =  0 Multiplicity = 1

                         Standard orientation:
 ---------------------------------------------------------------------
 Center     Atomic      Atomic             Coordinates (Angstroms)
 Number     Number       Type             X           Y           Z
 ---------------------------------------------------------------------
      1          6           0       -4.470565    1.534046    1.560204
      2          6           0       -3.912123    1.925981    0.339118
      3          6           0       -3.306314    0.985263   -0.499090
      4          6           0       -3.276543   -0.344886   -0.083029
      5          6           0       -3.824148   -0.766466    1.127628
      6          6           0       -4.424876    0.191440    1.949874
      7          1           0       -4.939198    2.271495    2.205144
      8          1           0       -3.946149    2.967971    0.033922
      9          1           0       -2.866236    1.261258   -1.449656
     10          1           0       -3.774880   -1.812504    1.404747
     11          1           0       -4.857757   -0.115817    2.897636
     12          7           0       -2.637890   -1.349881   -0.961953
     13          8           0       -2.624620   -2.515555   -0.572511
     14          8           0       -2.162676   -0.952892   -2.023654
     15          6           0        1.829653    1.259556   -1.732069
     16          6           0        2.782919    2.032274   -1.060719
     17          6           0        3.648119    1.444320   -0.133202
     18          6           0        3.531856    0.074811    0.099644
     19          6           0        2.592482   -0.721808   -0.553246
     20          6           0        1.737640   -0.112600   -1.476641
     21          1           0        1.161567    1.724547   -2.450986
     22          1           0        2.856651    3.098130   -1.257086
     23          1           0        4.395271    2.018939    0.400647
     24          1           0        2.542944   -1.781970   -0.336404
     25          1           0        0.998282   -0.715177   -1.996541
     26          7           0        4.442323   -0.558879    1.079382
     27          8           0        4.319664   -1.767390    1.266712
     28          8           0        5.261365    0.164944    1.641420
 ---------------------------------------------------------------------

 SCF Done:  E(RHF) =  -868.339717583     A.U. after   16 cycles
 E2 =    -0.2598664322D+01 EUMP2 =    -0.87093838190508D+03

 The electronic state is 1-A.
 Alpha  occ. eigenvalues --  -20.61659 -20.61598 -20.60374 -20.60360 -15.86656
 Alpha  occ. eigenvalues --  -15.85415 -11.31794 -11.30689 -11.28379 -11.28302
 Alpha  occ. eigenvalues --  -11.28024 -11.27319 -11.27277 -11.27265 -11.27139
 Alpha  occ. eigenvalues --  -11.26935 -11.26311 -11.26020  -1.60691  -1.59447
 Alpha  occ. eigenvalues --   -1.40253  -1.39002  -1.19942  -1.18834  -1.09377
 Alpha  occ. eigenvalues --   -1.08248  -1.05315  -1.04200  -0.96252  -0.95104
 Alpha  occ. eigenvalues --   -0.86723  -0.85597  -0.83096  -0.81923  -0.78174
 Alpha  occ. eigenvalues --   -0.76981  -0.72884  -0.71995  -0.71635  -0.71050
 Alpha  occ. eigenvalues --   -0.70770  -0.69948  -0.65601  -0.65316  -0.64473
 Alpha  occ. eigenvalues --   -0.64154  -0.62672  -0.61521  -0.55816  -0.54717
 Alpha  occ. eigenvalues --   -0.53648  -0.53407  -0.52571  -0.52254  -0.49655
 Alpha  occ. eigenvalues --   -0.49613  -0.48397  -0.48383  -0.45699  -0.44428
 Alpha  occ. eigenvalues --   -0.37899  -0.36907  -0.36830  -0.35809
 Alpha virt. eigenvalues --    0.04324   0.05510   0.10752   0.11837   0.15851
 Alpha virt. eigenvalues --    0.17033   0.20835   0.22097   0.26745   0.27533
 Alpha virt. eigenvalues --    0.28235   0.28859   0.30592   0.31575   0.32159

 Mulliken charges:
               1
     1  C   -0.169684
     2  C   -0.218108
     3  C   -0.170248
     4  C    0.158772
     5  C   -0.169822
     6  C   -0.218129
     7  H    0.227878
     8  H    0.223734
     9  H    0.270853
    10  H    0.277541
    11  H    0.226264
    12  N    0.488752
    13  O   -0.455302
    14  O   -0.469834
    15  C   -0.173809
    16  C   -0.219007
    17  C   -0.173008
    18  C    0.158344
    19  C   -0.173312
    20  C   -0.226267
    21  H    0.224193
    22  H    0.219556
    23  H    0.272983
    24  H    0.277926
    25  H    0.244781
    26  N    0.487926
    27  O   -0.460023
    28  O   -0.462952
 Sum of Mulliken charges =  -0.00000

 Dipole moment (field-independent basis, Debye):
    X=             -5.8124    Y=              5.6276    Z=             -0.2771  Tot=              8.0951
 Quadrupole moment (field-independent basis, Debye-Ang):
   XX=           -113.0230   YY=           -100.8071   ZZ=           -104.6786
   XY=             -0.5561   XZ=            -23.7446   YZ=             -3.1226

 Normal termination of Gaussian 16 at Thu May  6 22:52:21 2021.
