 Gaussian 16, Revision A.03,
 Gaussian 16:  EM64L-G16RevA.03 25-Dec-2016

 -------------
 #p 6-31g* mp2
 -------------

 ------------------------------------------------------
 Input file generated by CHIRIPA (05-May-2021 14:51:11)
 ------------------------------------------------------
 Symbolic Z-matrix:
 Charge =  0 Multiplicity = 1

                         Standard orientation:
 ---------------------------------------------------------------------
 Center     Atomic      Atomic             Coordinates (Angstroms)
 Number     Number       Type             X           Y           Z
 ---------------------------------------------------------------------
      1          6           0       -2.923973   -0.352245    0.302849
      2          6           0       -4.388624   -0.385933   -0.134926
      3          6           0       -5.230806    0.700605    0.534371
      4          1           0       -2.871417   -0.465856    1.394304
      5          1           0       -2.501759    0.635295    0.070695
      6          1           0       -4.807561   -1.373580    0.096724
      7          1           0       -4.437689   -0.272421   -1.225487
      8          1           0       -4.839660    1.694347    0.293367
      9          1           0       -5.211635    0.586932    1.623091
     10          1           0       -6.274359    0.658240    0.207167
     11          6           0       -2.069251   -1.432468   -0.357680
     12          6           0       -0.604600   -1.398780    0.080094
     13          6           0        0.237582   -2.485318   -0.589202
     14          1           0       -2.491465   -2.420008   -0.125527
     15          1           0       -2.121807   -1.318857   -1.449136
     16          1           0       -0.555536   -1.512292    1.170656
     17          1           0       -0.185663   -0.411133   -0.151556
     18          1           0        0.218411   -2.371644   -1.677922
     19          1           0       -0.153564   -3.479060   -0.348198
     20          1           0        1.281135   -2.442953   -0.261998
     21          6           0        2.945278    0.345741   -0.261273
     22          6           0        3.712343   -0.435631    0.805993
     23          6           0        4.605571   -1.525666    0.212901
     24          1           0        2.333358   -0.352343   -0.848792
     25          1           0        3.662015    0.797994   -0.960665
     26          1           0        2.994426   -0.885132    1.503963
     27          1           0        4.322361    0.264418    1.391164
     28          1           0        5.343850   -1.090390   -0.468334
     29          1           0        4.008370   -2.246472   -0.354893
     30          1           0        5.144591   -2.071747    0.993358
     31          6           0        2.047946    1.438973    0.316104
     32          6           0        1.280882    2.220343   -0.751162
     33          6           0        0.387652    3.310379   -0.158070
     34          1           0        1.331210    0.986717    1.015496
     35          1           0        2.659866    2.137056    0.903624
     36          1           0        0.670863    1.520294   -1.336332
     37          1           0        1.998798    2.669845   -1.449131
     38          1           0        0.984854    4.031185    0.409725
     39          1           0       -0.350626    2.875103    0.523165
     40          1           0       -0.151368    3.856460   -0.938526
 ---------------------------------------------------------------------

 SCF Done:  E(RHF) =  -470.731479265     A.U. after   11 cycles
 E2 =    -0.1586210697D+01 EUMP2 =    -0.47231768996213D+03

 The electronic state is 1-A.
 Alpha  occ. eigenvalues --  -11.21637 -11.21635 -11.21631 -11.21595 -11.21459
 Alpha  occ. eigenvalues --  -11.21400 -11.21343 -11.21278 -11.21145 -11.21110
 Alpha  occ. eigenvalues --  -11.21090 -11.21080  -1.08560  -1.08370  -1.03592
 Alpha  occ. eigenvalues --   -1.03553  -0.96074  -0.95958  -0.87106  -0.86964
 Alpha  occ. eigenvalues --   -0.79673  -0.79607  -0.78327  -0.78225  -0.65572
 Alpha  occ. eigenvalues --   -0.64807  -0.61144  -0.60837  -0.59417  -0.59286
 Alpha  occ. eigenvalues --   -0.57629  -0.57597  -0.55487  -0.55099  -0.52739
 Alpha  occ. eigenvalues --   -0.52685  -0.52477  -0.52409  -0.50167  -0.49797
 Alpha  occ. eigenvalues --   -0.48078  -0.47811  -0.46739  -0.46578  -0.46037
 Alpha  occ. eigenvalues --   -0.45858  -0.45606  -0.45431  -0.43819  -0.43778
 Alpha virt. eigenvalues --    0.19848   0.21599   0.23635   0.24710   0.25866
 Alpha virt. eigenvalues --    0.26281   0.27135   0.27719   0.28457   0.29944
 Alpha virt. eigenvalues --    0.30547   0.31290   0.31528   0.31736   0.32357

 Mulliken charges:
               1
     1  C   -0.300517
     2  C   -0.299576
     3  C   -0.475875
     4  H    0.149632
     5  H    0.150925
     6  H    0.152125
     7  H    0.152090
     8  H    0.155537
     9  H    0.155186
    10  H    0.160395
    11  C   -0.297238
    12  C   -0.311197
    13  C   -0.482605
    14  H    0.149788
    15  H    0.149460
    16  H    0.151320
    17  H    0.165089
    18  H    0.154904
    19  H    0.156422
    20  H    0.165813
    21  C   -0.303751
    22  C   -0.301149
    23  C   -0.478208
    24  H    0.156948
    25  H    0.149390
    26  H    0.152316
    27  H    0.152529
    28  H    0.155593
    29  H    0.156550
    30  H    0.160425
    31  C   -0.303777
    32  C   -0.302613
    33  C   -0.477461
    34  H    0.153253
    35  H    0.150950
    36  H    0.151852
    37  H    0.152979
    38  H    0.155867
    39  H    0.156601
    40  H    0.160028
 Sum of Mulliken charges =  -0.00000

 Dipole moment (field-independent basis, Debye):
    X=             -0.0081    Y=             -0.0002    Z=              0.0014  Tot=              0.0082
 Quadrupole moment (field-independent basis, Debye-Ang):
   XX=            -85.1776   YY=            -85.1797   ZZ=            -84.4324
   XY=              1.7458   XZ=              0.2631   YZ=             -1.0400

 Normal termination of Gaussian 16 at Wed May  5 19:51:37 2021.
