 Gaussian 16, Revision A.03,
 Gaussian 16:  EM64L-G16RevA.03 25-Dec-2016

 -------------
 #p 6-31g* mp2
 -------------

 ------------------------------------------------------
 Input file generated by CHIRIPA (05-May-2021 14:51:09)
 ------------------------------------------------------
 Symbolic Z-matrix:
 Charge =  0 Multiplicity = 1

                         Standard orientation:
 ---------------------------------------------------------------------
 Center     Atomic      Atomic             Coordinates (Angstroms)
 Number     Number       Type             X           Y           Z
 ---------------------------------------------------------------------
      1          6           0        3.500802    0.329478   -0.097345
      2          6           0        3.324807    1.704661   -0.742235
      3          6           0        1.909634    2.259006   -0.575555
      4          1           0        2.777187   -0.370203   -0.537540
      5          1           0        3.257075    0.399688    0.971796
      6          1           0        3.570128    1.632181   -1.809559
      7          1           0        4.049054    2.401103   -0.300589
      8          1           0        1.657895    2.359975    0.485121
      9          1           0        1.176247    1.586684   -1.032422
     10          1           0        1.806056    3.242739   -1.043959
     11          6           0        4.910320   -0.237929   -0.255574
     12          6           0        5.086315   -1.613111    0.389316
     13          6           0        6.501488   -2.167456    0.222636
     14          1           0        5.154046   -0.308138   -1.324716
     15          1           0        5.633935    0.461753    0.184621
     16          1           0        4.362068   -2.309553   -0.052330
     17          1           0        4.840994   -1.540631    1.456640
     18          1           0        7.234875   -1.495134    0.679503
     19          1           0        6.753227   -2.268425   -0.838040
     20          1           0        6.605065   -3.151189    0.691039
     21          6           0       -4.961825   -0.067032    0.071365
     22          6           0       -5.474155   -1.437881   -0.371666
     23          6           0       -6.988947   -1.464509   -0.577798
     24          1           0       -5.465369    0.221615    1.004140
     25          1           0       -5.243668    0.682658   -0.680914
     26          1           0       -5.190229   -2.184993    0.380548
     27          1           0       -4.969193   -1.723384   -1.303394
     28          1           0       -7.286341   -0.740580   -1.343361
     29          1           0       -7.508632   -1.204811    0.350149
     30          1           0       -7.333718   -2.453873   -0.894261
     31          6           0       -3.449297   -0.024518    0.281555
     32          6           0       -2.936967    1.346331    0.724585
     33          6           0       -1.422175    1.372959    0.930718
     34          1           0       -3.167454   -0.774208    1.033834
     35          1           0       -2.945753   -0.313165   -0.651222
     36          1           0       -3.441929    1.631835    1.656313
     37          1           0       -3.220894    2.093442   -0.027629
     38          1           0       -0.902489    1.113262    0.002771
     39          1           0       -1.124781    0.649031    1.696281
     40          1           0       -1.077403    2.362324    1.247181
 ---------------------------------------------------------------------

 SCF Done:  E(RHF) =  -470.732559227     A.U. after   11 cycles
 E2 =    -0.1582650691D+01 EUMP2 =    -0.47231520991804D+03

 The electronic state is 1-A.
 Alpha  occ. eigenvalues --  -11.21583 -11.21579 -11.21542 -11.21521 -11.21371
 Alpha  occ. eigenvalues --  -11.21369 -11.21311 -11.21309 -11.21057 -11.21054
 Alpha  occ. eigenvalues --  -11.20968 -11.20923  -1.08399  -1.08382  -1.03519
 Alpha  occ. eigenvalues --   -1.03450  -0.96011  -0.95858  -0.87081  -0.86826
 Alpha  occ. eigenvalues --   -0.79677  -0.79427  -0.78234  -0.78170  -0.65041
 Alpha  occ. eigenvalues --   -0.65006  -0.60957  -0.60828  -0.59309  -0.59301
 Alpha  occ. eigenvalues --   -0.57623  -0.57492  -0.55350  -0.55116  -0.52806
 Alpha  occ. eigenvalues --   -0.52616  -0.52438  -0.52128  -0.50011  -0.49737
 Alpha  occ. eigenvalues --   -0.48006  -0.47705  -0.46660  -0.46474  -0.45821
 Alpha  occ. eigenvalues --   -0.45693  -0.45675  -0.45581  -0.43758  -0.43705
 Alpha virt. eigenvalues --    0.22501   0.22995   0.23642   0.24735   0.26031
 Alpha virt. eigenvalues --    0.26600   0.26894   0.27556   0.27707   0.29227
 Alpha virt. eigenvalues --    0.29340   0.31253   0.31784   0.31992   0.32434

 Mulliken charges:
               1
     1  C   -0.298012
     2  C   -0.300194
     3  C   -0.476910
     4  H    0.149312
     5  H    0.149741
     6  H    0.151311
     7  H    0.151510
     8  H    0.158587
     9  H    0.156368
    10  H    0.159213
    11  C   -0.298211
    12  C   -0.299604
    13  C   -0.475679
    14  H    0.149366
    15  H    0.149571
    16  H    0.151896
    17  H    0.151907
    18  H    0.155139
    19  H    0.155121
    20  H    0.160164
    21  C   -0.298188
    22  C   -0.299590
    23  C   -0.475675
    24  H    0.149624
    25  H    0.149455
    26  H    0.151868
    27  H    0.151777
    28  H    0.155148
    29  H    0.155165
    30  H    0.160153
    31  C   -0.298266
    32  C   -0.300323
    33  C   -0.477075
    34  H    0.149392
    35  H    0.149095
    36  H    0.151259
    37  H    0.151666
    38  H    0.159662
    39  H    0.153948
    40  H    0.160310
 Sum of Mulliken charges =  -0.00000

 Dipole moment (field-independent basis, Debye):
    X=              0.0120    Y=              0.0143    Z=              0.0046  Tot=              0.0192
 Quadrupole moment (field-independent basis, Debye-Ang):
   XX=            -87.0880   YY=            -84.8544   ZZ=            -83.0977
   XY=              0.4938   XZ=              0.0148   YZ=              0.1015

 Normal termination of Gaussian 16 at Wed May  5 19:45:47 2021.
