 Gaussian 16, Revision A.03,
 Gaussian 16:  EM64L-G16RevA.03 25-Dec-2016

 -------------
 #p 6-31g* mp2
 -------------

 ------------------------------------------------------
 Input file generated by CHIRIPA (05-May-2021 14:51:07)
 ------------------------------------------------------
 Symbolic Z-matrix:
 Charge =  0 Multiplicity = 1

                         Standard orientation:
 ---------------------------------------------------------------------
 Center     Atomic      Atomic             Coordinates (Angstroms)
 Number     Number       Type             X           Y           Z
 ---------------------------------------------------------------------
      1          6           0       -3.913898    0.591736    0.236135
      2          6           0       -4.911450    0.527172   -0.920889
      3          6           0       -5.765501    1.790138   -1.036255
      4          1           0       -4.461032    0.753135    1.175039
      5          1           0       -3.261564    1.465473    0.100342
      6          1           0       -5.560811   -0.346969   -0.783682
      7          1           0       -4.361893    0.365717   -1.857123
      8          1           0       -5.133299    2.669299   -1.197490
      9          1           0       -6.339029    1.952564   -0.117950
     10          1           0       -6.471593    1.722549   -1.869757
     11          6           0       -3.052835   -0.663591    0.364405
     12          6           0       -2.055283   -0.599026    1.521429
     13          6           0       -1.201232   -1.861992    1.636795
     14          1           0       -3.705169   -1.537328    0.500198
     15          1           0       -2.505701   -0.824989   -0.574499
     16          1           0       -2.604840   -0.437571    2.457663
     17          1           0       -1.405922    0.275114    1.384222
     18          1           0       -0.627704   -2.024419    0.718490
     19          1           0       -1.833434   -2.741153    1.798030
     20          1           0       -0.495140   -1.794403    2.470297
     21          6           0        3.126052   -0.614555   -0.119630
     22          6           0        2.992841   -1.580482   -1.297436
     23          6           0        2.275863   -2.877217   -0.920326
     24          1           0        3.669822   -1.112350    0.694900
     25          1           0        2.125195   -0.381461    0.269403
     26          1           0        3.993565   -1.810602   -1.685009
     27          1           0        2.449492   -1.080265   -2.109329
     28          1           0        1.266027   -2.666478   -0.553690
     29          1           0        2.818873   -3.400965   -0.126960
     30          1           0        2.191584   -3.553124   -1.777010
     31          6           0        3.840681    0.686409   -0.480910
     32          6           0        3.973892    1.652336    0.696895
     33          6           0        4.690870    2.949072    0.319786
     34          1           0        4.841538    0.453316   -0.869943
     35          1           0        3.296910    1.184205   -1.295440
     36          1           0        4.517241    1.152119    1.508788
     37          1           0        2.973168    1.882456    1.084470
     38          1           0        4.147860    3.472819   -0.473580
     39          1           0        5.700706    2.738333   -0.046850
     40          1           0        4.775149    3.624979    1.176470
 ---------------------------------------------------------------------

 SCF Done:  E(RHF) =  -470.733292503     A.U. after   11 cycles
 E2 =    -0.1582620135D+01 EUMP2 =    -0.47231591263797D+03

 The electronic state is 1-A.
 Alpha  occ. eigenvalues --  -11.21641 -11.21624 -11.21609 -11.21602 -11.21437
 Alpha  occ. eigenvalues --  -11.21406 -11.21377 -11.21346 -11.21091 -11.21090
 Alpha  occ. eigenvalues --  -11.21079 -11.21042  -1.08463  -1.08431  -1.03567
 Alpha  occ. eigenvalues --   -1.03523  -0.96021  -0.95966  -0.87048  -0.86973
 Alpha  occ. eigenvalues --   -0.79656  -0.79559  -0.78279  -0.78237  -0.65135
 Alpha  occ. eigenvalues --   -0.65029  -0.61071  -0.60836  -0.59373  -0.59345
 Alpha  occ. eigenvalues --   -0.57674  -0.57544  -0.55431  -0.55155  -0.52702
 Alpha  occ. eigenvalues --   -0.52671  -0.52529  -0.52311  -0.50111  -0.49782
 Alpha  occ. eigenvalues --   -0.48023  -0.47824  -0.46766  -0.46499  -0.45857
 Alpha  occ. eigenvalues --   -0.45767  -0.45741  -0.45626  -0.43812  -0.43785
 Alpha virt. eigenvalues --    0.20925   0.23194   0.23510   0.24767   0.25958
 Alpha virt. eigenvalues --    0.26829   0.27005   0.27344   0.28053   0.28999
 Alpha virt. eigenvalues --    0.30209   0.31657   0.31764   0.31882   0.31976

 Mulliken charges:
               1
     1  C   -0.298292
     2  C   -0.299687
     3  C   -0.475722
     4  H    0.149807
     5  H    0.149358
     6  H    0.152053
     7  H    0.151925
     8  H    0.155149
     9  H    0.155244
    10  H    0.160346
    11  C   -0.298346
    12  C   -0.299586
    13  C   -0.482607
    14  H    0.149850
    15  H    0.149286
    16  H    0.152297
    17  H    0.151316
    18  H    0.161034
    19  H    0.155710
    20  H    0.161169
    21  C   -0.299316
    22  C   -0.299365
    23  C   -0.482373
    24  H    0.149850
    25  H    0.150463
    26  H    0.152009
    27  H    0.151295
    28  H    0.161500
    29  H    0.155622
    30  H    0.160203
    31  C   -0.298291
    32  C   -0.299587
    33  C   -0.475696
    34  H    0.149633
    35  H    0.149364
    36  H    0.152049
    37  H    0.151739
    38  H    0.155075
    39  H    0.155234
    40  H    0.160286
 Sum of Mulliken charges =  -0.00000

 Dipole moment (field-independent basis, Debye):
    X=             -0.0113    Y=             -0.0131    Z=              0.0161  Tot=              0.0236
 Quadrupole moment (field-independent basis, Debye-Ang):
   XX=            -84.1604   YY=            -86.1212   ZZ=            -84.3971
   XY=              0.0036   XZ=             -0.2884   YZ=             -0.1128

 Normal termination of Gaussian 16 at Thu May  6 08:25:15 2021.
