 Gaussian 16, Revision A.03,
 Gaussian 16:  EM64L-G16RevA.03 25-Dec-2016

 -------------
 #p 6-31g* mp2
 -------------

 ------------------------------------------------------
 Input file generated by CHIRIPA (05-May-2021 14:57:26)
 ------------------------------------------------------
 Symbolic Z-matrix:
 Charge =  0 Multiplicity = 1

                         Standard orientation:
 ---------------------------------------------------------------------
 Center     Atomic      Atomic             Coordinates (Angstroms)
 Number     Number       Type             X           Y           Z
 ---------------------------------------------------------------------
      1          6           0       -1.542483   -1.591456    0.411985
      2          6           0       -2.690374   -2.100850   -0.203957
      3          6           0       -3.825264   -1.300152   -0.363506
      4          6           0       -3.777295    0.011273    0.106763
      5          6           0       -2.648669    0.547689    0.724623
      6          6           0       -1.525324   -0.271140    0.873495
      7          1           0       -0.665357   -2.220500    0.531779
      8          1           0       -2.706555   -3.125851   -0.563339
      9          1           0       -4.727199   -1.669013   -0.836656
     10          1           0       -2.662627    1.573397    1.072685
     11          1           0       -0.635248    0.127135    1.352230
     12          7           0       -4.972641    0.868534   -0.056493
     13          8           0       -4.904979    2.020579    0.366416
     14          8           0       -5.954582    0.372177   -0.604270
     15          6           0        3.394423   -2.384640   -0.044818
     16          6           0        4.546465   -1.750600    0.431953
     17          6           0        4.660354   -0.357899    0.387692
     18          6           0        3.598256    0.373121   -0.142259
     19          6           0        2.437592   -0.229393   -0.625092
     20          6           0        2.345512   -1.623355   -0.570893
     21          1           0        3.314421   -3.467014   -0.006575
     22          1           0        5.362639   -2.339284    0.841047
     23          1           0        5.540885    0.158717    0.749899
     24          1           0        1.640600    0.384206   -1.027233
     25          1           0        1.449632   -2.113059   -0.941883
     26          7           0        3.707283    1.848179   -0.194378
     27          8           0        2.757549    2.469607   -0.666045
     28          8           0        4.740405    2.354971    0.237427
 ---------------------------------------------------------------------

 SCF Done:  E(RHF) =  -868.337193409     A.U. after   16 cycles
 E2 =    -0.2600436032D+01 EUMP2 =    -0.87093762944083D+03

 The electronic state is 1-A.
 Alpha  occ. eigenvalues --  -20.61428 -20.61417 -20.60970 -20.60958 -15.86486
 Alpha  occ. eigenvalues --  -15.86023 -11.32003 -11.31535 -11.28623 -11.28567
 Alpha  occ. eigenvalues --  -11.28384 -11.28124 -11.28067 -11.27966 -11.27706
 Alpha  occ. eigenvalues --  -11.27588 -11.27226 -11.27150  -1.60501  -1.60039
 Alpha  occ. eigenvalues --   -1.40049  -1.39587  -1.20204  -1.19728  -1.09570
 Alpha  occ. eigenvalues --   -1.09123  -1.05630  -1.05135  -0.96371  -0.95928
 Alpha  occ. eigenvalues --   -0.87021  -0.86540  -0.83204  -0.82737  -0.78226
 Alpha  occ. eigenvalues --   -0.77739  -0.72695  -0.72239  -0.71833  -0.71362
 Alpha  occ. eigenvalues --   -0.71294  -0.70906  -0.65851  -0.65635  -0.65382
 Alpha  occ. eigenvalues --   -0.65143  -0.62962  -0.62456  -0.56138  -0.55728
 Alpha  occ. eigenvalues --   -0.53953  -0.53685  -0.53465  -0.53217  -0.49468
 Alpha  occ. eigenvalues --   -0.49444  -0.49012  -0.48984  -0.45421  -0.44959
 Alpha  occ. eigenvalues --   -0.38196  -0.37804  -0.37222  -0.36720
 Alpha virt. eigenvalues --    0.04291   0.04746   0.10273   0.10872   0.15654
 Alpha virt. eigenvalues --    0.16113   0.19597   0.21781   0.25649   0.26605
 Alpha virt. eigenvalues --    0.27667   0.28707   0.29780   0.31113   0.32117

 Mulliken charges:
               1
     1  C   -0.177861
     2  C   -0.218436
     3  C   -0.170373
     4  C    0.159439
     5  C   -0.169438
     6  C   -0.222503
     7  H    0.220133
     8  H    0.222007
     9  H    0.276798
    10  H    0.280322
    11  H    0.228438
    12  N    0.487906
    13  O   -0.457344
    14  O   -0.459902
    15  C   -0.171075
    16  C   -0.218151
    17  C   -0.169459
    18  C    0.158758
    19  C   -0.175880
    20  C   -0.225432
    21  H    0.226390
    22  H    0.226450
    23  H    0.278532
    24  H    0.279012
    25  H    0.220570
    26  N    0.487782
    27  O   -0.459107
    28  O   -0.457577
 Sum of Mulliken charges =  -0.00000

 Dipole moment (field-independent basis, Debye):
    X=              3.9063    Y=             -8.0199    Z=              0.7982  Tot=              8.9562
 Quadrupole moment (field-independent basis, Debye-Ang):
   XX=           -133.1192   YY=           -106.8465   ZZ=           -104.2683
   XY=             -5.8952   XZ=              2.4151   YZ=              2.3431

 Normal termination of Gaussian 16 at Wed May  5 19:34:06 2021.
