 Gaussian 16, Revision A.03,
 Gaussian 16:  EM64L-G16RevA.03 25-Dec-2016

 -------------
 #p 6-31g* mp2
 -------------

 ------------------------------------------------------
 Input file generated by CHIRIPA (05-May-2021 14:51:12)
 ------------------------------------------------------
 Symbolic Z-matrix:
 Charge =  0 Multiplicity = 1

                         Standard orientation:
 ---------------------------------------------------------------------
 Center     Atomic      Atomic             Coordinates (Angstroms)
 Number     Number       Type             X           Y           Z
 ---------------------------------------------------------------------
      1          6           0        3.837706    0.878504    0.103322
      2          6           0        3.093300    2.201143   -0.082342
      3          6           0        3.941728    3.415292    0.296875
      4          1           0        4.159745    0.790112    1.149946
      5          1           0        4.752585    0.892146   -0.505122
      6          1           0        2.179389    2.184461    0.525198
      7          1           0        2.772829    2.286310   -1.128603
      8          1           0        4.846856    3.459799   -0.317424
      9          1           0        4.250045    3.357371    1.345773
     10          1           0        3.390150    4.350131    0.156522
     11          6           0        3.002608   -0.344496   -0.271658
     12          6           0        3.747014   -1.667135   -0.085994
     13          6           0        2.898586   -2.881284   -0.465211
     14          1           0        2.087728   -0.358137    0.336786
     15          1           0        2.680569   -0.256103   -1.318282
     16          1           0        4.067485   -1.752301    0.960267
     17          1           0        4.660924   -1.650453   -0.693534
     18          1           0        2.590269   -2.823363   -1.514109
     19          1           0        1.993458   -2.925790    0.149088
     20          1           0        3.450164   -3.816122   -0.324858
     21          6           0       -4.170661   -0.136456    0.140132
     22          6           0       -4.584460    1.247455   -0.361412
     23          6           0       -6.088829    1.493710   -0.242974
     24          1           0       -4.715012   -0.903214   -0.427943
     25          1           0       -4.479667   -0.246224    1.188874
     26          1           0       -4.273535    1.355098   -1.408482
     27          1           0       -4.038919    2.011004    0.207793
     28          1           0       -6.411394    1.413380    0.800147
     29          1           0       -6.647342    0.753747   -0.825311
     30          1           0       -6.362630    2.488861   -0.607075
     31          6           0       -2.669652   -0.397553    0.028204
     32          6           0       -2.255854   -1.781464    0.529748
     33          6           0       -0.751485   -2.027719    0.411310
     34          1           0       -2.360646   -0.287785   -1.020538
     35          1           0       -2.125302    0.369206    0.596279
     36          1           0       -2.801395   -2.545013   -0.039457
     37          1           0       -2.566779   -1.889106    1.576817
     38          1           0       -0.192971   -1.287755    0.993647
     39          1           0       -0.428919   -1.947388   -0.631811
     40          1           0       -0.477684   -3.022869    0.775411
 ---------------------------------------------------------------------

 SCF Done:  E(RHF) =  -470.732570817     A.U. after   11 cycles
 E2 =    -0.1583415592D+01 EUMP2 =    -0.47231598640910D+03

 The electronic state is 1-A.
 Alpha  occ. eigenvalues --  -11.21609 -11.21608 -11.21566 -11.21495 -11.21416
 Alpha  occ. eigenvalues --  -11.21357 -11.21328 -11.21249 -11.21096 -11.21076
 Alpha  occ. eigenvalues --  -11.21046 -11.20876  -1.08446  -1.08351  -1.03563
 Alpha  occ. eigenvalues --   -1.03436  -0.96024  -0.95879  -0.87065  -0.86884
 Alpha  occ. eigenvalues --   -0.79716  -0.79436  -0.78290  -0.78115  -0.65084
 Alpha  occ. eigenvalues --   -0.64982  -0.60955  -0.60852  -0.59394  -0.59268
 Alpha  occ. eigenvalues --   -0.57620  -0.57505  -0.55320  -0.55169  -0.52818
 Alpha  occ. eigenvalues --   -0.52605  -0.52431  -0.52221  -0.49977  -0.49784
 Alpha  occ. eigenvalues --   -0.48062  -0.47733  -0.46663  -0.46536  -0.45936
 Alpha  occ. eigenvalues --   -0.45738  -0.45652  -0.45413  -0.43765  -0.43701
 Alpha virt. eigenvalues --    0.21870   0.23028   0.23691   0.24679   0.25510
 Alpha virt. eigenvalues --    0.26688   0.27040   0.27287   0.27949   0.29526
 Alpha virt. eigenvalues --    0.29924   0.31081   0.31591   0.31846   0.32214

 Mulliken charges:
               1
     1  C   -0.298050
     2  C   -0.299308
     3  C   -0.475643
     4  H    0.149185
     5  H    0.149327
     6  H    0.151238
     7  H    0.151946
     8  H    0.155186
     9  H    0.155015
    10  H    0.160056
    11  C   -0.302789
    12  C   -0.299038
    13  C   -0.482877
    14  H    0.155152
    15  H    0.148787
    16  H    0.151020
    17  H    0.151162
    18  H    0.153477
    19  H    0.167295
    20  H    0.158688
    21  C   -0.298328
    22  C   -0.299606
    23  C   -0.475711
    24  H    0.149714
    25  H    0.149472
    26  H    0.152000
    27  H    0.151937
    28  H    0.155162
    29  H    0.155197
    30  H    0.160288
    31  C   -0.298323
    32  C   -0.300816
    33  C   -0.479281
    34  H    0.149832
    35  H    0.149300
    36  H    0.152177
    37  H    0.151640
    38  H    0.156619
    39  H    0.158922
    40  H    0.159976
 Sum of Mulliken charges =  -0.00000

 Dipole moment (field-independent basis, Debye):
    X=             -0.0554    Y=             -0.0162    Z=              0.0031  Tot=              0.0578
 Quadrupole moment (field-independent basis, Debye-Ang):
   XX=            -86.3307   YY=            -85.7587   ZZ=            -83.0199
   XY=              0.0160   XZ=             -0.2328   YZ=              0.0410

 Normal termination of Gaussian 16 at Wed May  5 15:18:21 2021.
