 Gaussian 16, Revision A.03,
 Gaussian 16:  EM64L-G16RevA.03 25-Dec-2016

 -------------
 #p 6-31g* mp2
 -------------

 ------------------------------------------------------
 Input file generated by CHIRIPA (05-May-2021 14:57:25)
 ------------------------------------------------------
 Symbolic Z-matrix:
 Charge =  0 Multiplicity = 1

                         Standard orientation:
 ---------------------------------------------------------------------
 Center     Atomic      Atomic             Coordinates (Angstroms)
 Number     Number       Type             X           Y           Z
 ---------------------------------------------------------------------
      1          6           0        1.661465    2.285501   -0.524702
      2          6           0        1.363415    1.439514    0.548608
      3          6           0        2.097179    0.267310    0.753730
      4          6           0        3.126887   -0.029486   -0.137843
      5          6           0        3.447981    0.793145   -1.216484
      6          6           0        2.700964    1.960190   -1.402275
      7          1           0        1.086312    3.194094   -0.676537
      8          1           0        0.556679    1.689629    1.231736
      9          1           0        1.887739   -0.405491    1.576466
     10          1           0        4.257995    0.517193   -1.880673
     11          1           0        2.934666    2.615322   -2.236679
     12          7           0        3.910705   -1.267716    0.069078
     13          8           0        4.812967   -1.506714   -0.730572
     14          8           0        3.607959   -1.975795    1.026995
     15          6           0       -1.845392    0.692957    2.242083
     16          6           0       -2.443304    1.586472    1.347292
     17          6           0       -3.084540    1.117018    0.197084
     18          6           0       -3.109106   -0.258460   -0.028188
     19          6           0       -2.522595   -1.173874    0.844344
     20          6           0       -1.886873   -0.681942    1.988201
     21          1           0       -1.349406    1.066371    3.133124
     22          1           0       -2.412641    2.654758    1.541899
     23          1           0       -3.555545    1.786528   -0.512372
     24          1           0       -2.569498   -2.233304    0.623377
     25          1           0       -1.423378   -1.378187    2.681353
     26          7           0       -3.785034   -0.767349   -1.242498
     27          8           0       -3.792886   -1.983782   -1.418190
     28          8           0       -4.294179    0.059851   -1.995591
 ---------------------------------------------------------------------

 SCF Done:  E(RHF) =  -868.336303107     A.U. after   16 cycles
 E2 =    -0.2602065781D+01 EUMP2 =    -0.87093836888862D+03

 The electronic state is 1-A.
 Alpha  occ. eigenvalues --  -20.61322 -20.61306 -20.61014 -20.60994 -15.86376
 Alpha  occ. eigenvalues --  -15.86059 -11.31954 -11.31428 -11.28579 -11.28498
 Alpha  occ. eigenvalues --  -11.28383 -11.28015 -11.27950 -11.27722 -11.27681
 Alpha  occ. eigenvalues --  -11.27575 -11.26986 -11.26945  -1.60386  -1.60080
 Alpha  occ. eigenvalues --   -1.39934  -1.39635  -1.20166  -1.19585  -1.09556
 Alpha  occ. eigenvalues --   -1.08982  -1.05583  -1.04991  -0.96338  -0.95825
 Alpha  occ. eigenvalues --   -0.86993  -0.86392  -0.83151  -0.82657  -0.78136
 Alpha  occ. eigenvalues --   -0.77715  -0.72592  -0.72279  -0.71709  -0.71400
 Alpha  occ. eigenvalues --   -0.71311  -0.70720  -0.65827  -0.65591  -0.65242
 Alpha  occ. eigenvalues --   -0.65026  -0.62903  -0.62387  -0.56140  -0.55530
 Alpha  occ. eigenvalues --   -0.54075  -0.53669  -0.53287  -0.52917  -0.49369
 Alpha  occ. eigenvalues --   -0.49332  -0.49041  -0.49029  -0.45292  -0.45041
 Alpha  occ. eigenvalues --   -0.38214  -0.37585  -0.37148  -0.36534
 Alpha virt. eigenvalues --    0.04340   0.04829   0.10276   0.11110   0.15698
 Alpha virt. eigenvalues --    0.16326   0.19747   0.21932   0.25983   0.26381
 Alpha virt. eigenvalues --    0.28254   0.28567   0.29921   0.31334   0.31657

 Mulliken charges:
               1
     1  C   -0.172864
     2  C   -0.213450
     3  C   -0.173303
     4  C    0.159511
     5  C   -0.170930
     6  C   -0.217442
     7  H    0.223283
     8  H    0.220914
     9  H    0.268917
    10  H    0.276650
    11  H    0.224659
    12  N    0.488374
    13  O   -0.458496
    14  O   -0.462782
    15  C   -0.183961
    16  C   -0.222204
    17  C   -0.169249
    18  C    0.160656
    19  C   -0.167911
    20  C   -0.218513
    21  H    0.226363
    22  H    0.222579
    23  H    0.277012
    24  H    0.281045
    25  H    0.229090
    26  N    0.487906
    27  O   -0.456246
    28  O   -0.459610
 Sum of Mulliken charges =  -0.00000

 Dipole moment (field-independent basis, Debye):
    X=             -0.5881    Y=              5.9667    Z=              3.3904  Tot=              6.8878
 Quadrupole moment (field-independent basis, Debye-Ang):
   XX=           -135.7886   YY=           -102.0839   ZZ=           -102.1962
   XY=              7.3783   XZ=            -17.7021   YZ=             -4.4368

 Normal termination of Gaussian 16 at Fri May  7 11:11:33 2021.
