 Gaussian 16, Revision A.03,
 Gaussian 16:  EM64L-G16RevA.03 25-Dec-2016

 -------------
 #p 6-31g* mp2
 -------------

 ------------------------------------------------------
 Input file generated by CHIRIPA (05-May-2021 14:53:15)
 ------------------------------------------------------
 Symbolic Z-matrix:
 Charge =  0 Multiplicity = 1

                         Standard orientation:
 ---------------------------------------------------------------------
 Center     Atomic      Atomic             Coordinates (Angstroms)
 Number     Number       Type             X           Y           Z
 ---------------------------------------------------------------------
      1          6           0        3.882889    0.210884   -0.475115
      2          6           0        5.108999    0.933874    0.083387
      3          6           0        5.635285    2.018260   -0.857317
      4          1           0        4.139114   -0.236175   -1.445390
      5          1           0        3.089421    0.945784   -0.669348
      6          1           0        5.899433    0.197646    0.277806
      7          1           0        4.849881    1.379101    1.052534
      8          1           0        4.865427    2.774276   -1.042680
      9          1           0        5.920943    1.586109   -1.821809
     10          1           0        6.511846    2.522283   -0.438436
     11          6           0        3.345132   -0.876048    0.453930
     12          6           0        2.119022   -1.599038   -0.104573
     13          6           0        1.592737   -2.683424    0.836131
     14          1           0        4.138600   -1.610948    0.648162
     15          1           0        3.088908   -0.428989    1.424204
     16          1           0        2.378141   -2.044265   -1.073720
     17          1           0        1.328588   -0.862810   -0.298992
     18          1           0        1.307079   -2.251273    1.800623
     19          1           0        2.362595   -3.439440    1.021494
     20          1           0        0.716175   -3.187447    0.417251
     21          6           0       -2.903466    2.721081    0.557606
     22          6           0       -3.801509    2.181092   -0.368921
     23          6           0       -3.766291    0.818765   -0.680967
     24          6           0       -2.815710    0.021885   -0.044831
     25          6           0       -1.907564    0.530217    0.882616
     26          6           0       -1.961021    1.895375    1.179321
     27          1           0       -2.937908    3.780469    0.794052
     28          1           0       -4.534497    2.819961   -0.853298
     29          1           0       -4.449700    0.374543   -1.394435
     30          1           0       -1.188190   -0.131772    1.349187
     31          1           0       -1.262348    2.311993    1.899273
     32          7           0       -2.768771   -1.421848   -0.367061
     33          8           0       -1.921765   -2.102680    0.207121
     34          8           0       -3.579876   -1.845276   -1.187703
 ---------------------------------------------------------------------

 SCF Done:  E(RHF) =  -669.535996916     A.U. after   15 cycles
 E2 =    -0.2091563713D+01 EUMP2 =    -0.67162756062880D+03

 The electronic state is 1-A.
 Alpha  occ. eigenvalues --  -20.60897 -20.60891 -15.85933 -11.31272 -11.27834
 Alpha  occ. eigenvalues --  -11.27830 -11.27576 -11.26851 -11.26841 -11.21583
 Alpha  occ. eigenvalues --  -11.21282 -11.21157 -11.21098 -11.21091 -11.20175
 Alpha  occ. eigenvalues --   -1.59960  -1.39515  -1.19441  -1.08843  -1.08221
 Alpha  occ. eigenvalues --   -1.04840  -1.03224  -0.95718  -0.95615  -0.86668
 Alpha  occ. eigenvalues --   -0.86239  -0.82515  -0.79310  -0.78019  -0.77565
 Alpha  occ. eigenvalues --   -0.72166  -0.71275  -0.70548  -0.65100  -0.64906
 Alpha  occ. eigenvalues --   -0.64811  -0.62192  -0.60638  -0.59029  -0.57223
 Alpha  occ. eigenvalues --   -0.55345  -0.54970  -0.53171  -0.52929  -0.52274
 Alpha  occ. eigenvalues --   -0.52069  -0.49642  -0.48915  -0.48898  -0.47599
 Alpha  occ. eigenvalues --   -0.46386  -0.45552  -0.45509  -0.44905  -0.43452
 Alpha  occ. eigenvalues --   -0.37420  -0.36440
 Alpha virt. eigenvalues --    0.04936   0.11160   0.16435   0.20668   0.22860
 Alpha virt. eigenvalues --    0.24007   0.26526   0.27471   0.27628   0.27717
 Alpha virt. eigenvalues --    0.29121   0.30815   0.31481   0.31951   0.32691

 Mulliken charges:
               1
     1  C   -0.297434
     2  C   -0.299060
     3  C   -0.475325
     4  H    0.150933
     5  H    0.146155
     6  H    0.152797
     7  H    0.149391
     8  H    0.153288
     9  H    0.156049
    10  H    0.159662
    11  C   -0.297149
    12  C   -0.300014
    13  C   -0.479084
    14  H    0.150188
    15  H    0.143761
    16  H    0.153039
    17  H    0.147280
    18  H    0.145613
    19  H    0.149782
    20  H    0.186968
    21  C   -0.170562
    22  C   -0.218515
    23  C   -0.170617
    24  C    0.157735
    25  C   -0.172806
    26  C   -0.218979
    27  H    0.225931
    28  H    0.223785
    29  H    0.275814
    30  H    0.278704
    31  H    0.223790
    32  N    0.491828
    33  O   -0.463590
    34  O   -0.459355
 Sum of Mulliken charges =  -0.00000

 Dipole moment (field-independent basis, Debye):
    X=             -0.3545    Y=              4.9674    Z=              1.0612  Tot=              5.0918
 Quadrupole moment (field-independent basis, Debye-Ang):
   XX=            -91.5204   YY=            -94.8603   ZZ=            -93.6033
   XY=            -15.9553   XZ=             -0.5437   YZ=              0.3305

 Normal termination of Gaussian 16 at Thu May  6 04:17:14 2021.
