 Gaussian 16, Revision A.03,
 Gaussian 16:  EM64L-G16RevA.03 25-Dec-2016

 -------------
 #p 6-31g* mp2
 -------------

 ------------------------------------------------------
 Input file generated by CHIRIPA (05-May-2021 14:55:23)
 ------------------------------------------------------
 Symbolic Z-matrix:
 Charge =  0 Multiplicity = 1

                         Standard orientation:
 ---------------------------------------------------------------------
 Center     Atomic      Atomic             Coordinates (Angstroms)
 Number     Number       Type             X           Y           Z
 ---------------------------------------------------------------------
      1          6           0        2.495433    2.492995    0.211730
      2          6           0        1.320401    1.832756   -0.162309
      3          6           0        1.304522    0.443120   -0.314651
      4          6           0        2.487009   -0.258151   -0.083925
      5          6           0        3.673569    0.370912    0.289766
      6          6           0        3.666203    1.761256    0.436178
      7          1           0        2.498739    3.572773    0.327769
      8          1           0        0.409684    2.398465   -0.337275
      9          1           0        0.408835   -0.093384   -0.603313
     10          1           0        4.565804   -0.220088    0.457260
     11          1           0        4.580213    2.271347    0.726756
     12          7           0        2.482503   -1.729671   -0.242064
     13          8           0        3.537456   -2.324636   -0.032950
     14          8           0        1.424104   -2.260221   -0.572132
     15          6           0       -2.833706    0.688975    0.187981
     16          6           0       -3.623347    1.885667   -0.343413
     17          6           0       -2.908988    3.216870   -0.108082
     18          1           0       -2.653438    0.824948    1.263137
     19          1           0       -1.846541    0.666662   -0.294100
     20          1           0       -4.609249    1.904917    0.138503
     21          1           0       -3.801923    1.746736   -1.417389
     22          1           0       -1.932507    3.222847   -0.603106
     23          1           0       -2.744420    3.381926    0.961626
     24          1           0       -3.491002    4.058826   -0.495676
     25          6           0       -3.534938   -0.648970   -0.039854
     26          6           0       -2.745296   -1.845662    0.491540
     27          6           0       -3.459656   -3.176865    0.256209
     28          1           0       -4.522102   -0.626657    0.442227
     29          1           0       -3.715206   -0.784943   -1.115009
     30          1           0       -2.566721   -1.706732    1.565517
     31          1           0       -1.759394   -1.864912    0.009623
     32          1           0       -3.624223   -3.341921   -0.813500
     33          1           0       -4.436137   -3.182842    0.751234
     34          1           0       -2.877642   -4.018821    0.643804
 ---------------------------------------------------------------------

 SCF Done:  E(RHF) =  -669.535265830     A.U. after   15 cycles
 E2 =    -0.2093119582D+01 EUMP2 =    -0.67162838541254D+03

 The electronic state is 1-A.
 Alpha  occ. eigenvalues --  -20.60797 -20.60791 -15.85836 -11.31145 -11.27715
 Alpha  occ. eigenvalues --  -11.27685 -11.27445 -11.26725 -11.26678 -11.22226
 Alpha  occ. eigenvalues --  -11.22001 -11.21972 -11.21549 -11.21378 -11.20741
 Alpha  occ. eigenvalues --   -1.59861  -1.39417  -1.19315  -1.08785  -1.08719
 Alpha  occ. eigenvalues --   -1.04714  -1.03782  -0.96282  -0.95565  -0.87299
 Alpha  occ. eigenvalues --   -0.86114  -0.82408  -0.79916  -0.78551  -0.77427
 Alpha  occ. eigenvalues --   -0.72058  -0.71177  -0.70439  -0.65451  -0.64966
 Alpha  occ. eigenvalues --   -0.64743  -0.62073  -0.61157  -0.59692  -0.57850
 Alpha  occ. eigenvalues --   -0.55617  -0.55223  -0.53050  -0.52977  -0.52874
 Alpha  occ. eigenvalues --   -0.52581  -0.50238  -0.48830  -0.48807  -0.48184
 Alpha  occ. eigenvalues --   -0.46962  -0.46045  -0.45907  -0.44820  -0.44049
 Alpha  occ. eigenvalues --   -0.37296  -0.36304
 Alpha virt. eigenvalues --    0.05062   0.11331   0.16555   0.19014   0.22741
 Alpha virt. eigenvalues --    0.23229   0.24719   0.26180   0.26821   0.28640
 Alpha virt. eigenvalues --    0.29321   0.31059   0.31391   0.31934   0.32702

 Mulliken charges:
               1
     1  C   -0.172510
     2  C   -0.226519
     3  C   -0.179860
     4  C    0.159319
     5  C   -0.170651
     6  C   -0.218857
     7  H    0.226154
     8  H    0.233504
     9  H    0.283674
    10  H    0.275267
    11  H    0.223251
    12  N    0.489287
    13  O   -0.459942
    14  O   -0.463079
    15  C   -0.301565
    16  C   -0.299700
    17  C   -0.479447
    18  H    0.152422
    19  H    0.139258
    20  H    0.156365
    21  H    0.154425
    22  H    0.146231
    23  H    0.157214
    24  H    0.164860
    25  C   -0.298753
    26  C   -0.308123
    27  C   -0.475486
    28  H    0.150603
    29  H    0.150795
    30  H    0.151074
    31  H    0.166319
    32  H    0.155806
    33  H    0.152159
    34  H    0.166507
 Sum of Mulliken charges =  -0.00000

 Dipole moment (field-independent basis, Debye):
    X=             -0.1116    Y=              5.0685    Z=              0.5964  Tot=              5.1047
 Quadrupole moment (field-independent basis, Debye-Ang):
   XX=            -89.4148   YY=            -98.7856   ZZ=            -94.5935
   XY=             12.4086   XZ=              2.3433   YZ=             -0.5565

 Normal termination of Gaussian 16 at Wed May  5 19:06:33 2021.
