 Gaussian 16, Revision A.03,
 Gaussian 16:  EM64L-G16RevA.03 25-Dec-2016

 -------------
 #p 6-31g* mp2
 -------------

 ------------------------------------------------------
 Input file generated by CHIRIPA (05-May-2021 14:57:26)
 ------------------------------------------------------
 Symbolic Z-matrix:
 Charge =  0 Multiplicity = 1

                         Standard orientation:
 ---------------------------------------------------------------------
 Center     Atomic      Atomic             Coordinates (Angstroms)
 Number     Number       Type             X           Y           Z
 ---------------------------------------------------------------------
      1          6           0        2.040150    2.216041    0.551074
      2          6           0        1.920975    1.148390    1.446865
      3          6           0        2.511076   -0.086614    1.162093
      4          6           0        3.216283   -0.219493   -0.033028
      5          6           0        3.352764    0.825345   -0.945704
      6          6           0        2.754404    2.051401   -0.640251
      7          1           0        1.578538    3.171946    0.780324
      8          1           0        1.366870    1.273370    2.372819
      9          1           0        2.434472   -0.929819    1.837781
     10          1           0        3.911382    0.670396   -1.860774
     11          1           0        2.848598    2.878805   -1.337800
     12          7           0        3.845368   -1.522200   -0.345450
     13          8           0        4.461371   -1.613632   -1.405081
     14          8           0        3.710528   -2.427162    0.475219
     15          6           0       -4.271208   -2.236431   -0.040282
     16          6           0       -4.692970   -1.221941   -0.905988
     17          6           0       -4.058368    0.023778   -0.902537
     18          6           0       -3.000593    0.221464   -0.016353
     19          6           0       -2.557232   -0.769380    0.858260
     20          6           0       -3.206563   -2.007317    0.837531
     21          1           0       -4.769904   -3.201113   -0.049673
     22          1           0       -5.519515   -1.397045   -1.588782
     23          1           0       -4.364455    0.826737   -1.562071
     24          1           0       -1.730407   -0.565020    1.527600
     25          1           0       -2.876875   -2.793342    1.510968
     26          7           0       -2.320972    1.536132   -0.003554
     27          8           0       -1.391503    1.685127    0.786716
     28          8           0       -2.730620    2.392680   -0.784035
 ---------------------------------------------------------------------

 SCF Done:  E(RHF) =  -868.339714092     A.U. after   16 cycles
 E2 =    -0.2599719748D+01 EUMP2 =    -0.87093943384040D+03

 The electronic state is 1-A.
 Alpha  occ. eigenvalues --  -20.61471 -20.61466 -20.60273 -20.60263 -15.86493
 Alpha  occ. eigenvalues --  -15.85317 -11.31608 -11.30399 -11.28163 -11.28134
 Alpha  occ. eigenvalues --  -11.27821 -11.27095 -11.27085 -11.26956 -11.26951
 Alpha  occ. eigenvalues --  -11.26448 -11.25832 -11.25789  -1.60530  -1.59355
 Alpha  occ. eigenvalues --   -1.40095  -1.38917  -1.19751  -1.18526  -1.09191
 Alpha  occ. eigenvalues --   -1.07921  -1.05118  -1.03905  -0.96077  -0.94818
 Alpha  occ. eigenvalues --   -0.86527  -0.85286  -0.82922  -0.81686  -0.78002
 Alpha  occ. eigenvalues --   -0.76807  -0.72765  -0.71826  -0.71539  -0.70859
 Alpha  occ. eigenvalues --   -0.70679  -0.69539  -0.65413  -0.65118  -0.64158
 Alpha  occ. eigenvalues --   -0.63871  -0.62476  -0.61278  -0.55621  -0.54270
 Alpha  occ. eigenvalues --   -0.53454  -0.53209  -0.52221  -0.51983  -0.49512
 Alpha  occ. eigenvalues --   -0.49460  -0.48314  -0.48266  -0.45555  -0.44389
 Alpha  occ. eigenvalues --   -0.37710  -0.36707  -0.36336  -0.35506
 Alpha virt. eigenvalues --    0.04509   0.05744   0.10953   0.12171   0.16087
 Alpha virt. eigenvalues --    0.17326   0.20970   0.22352   0.26730   0.27498
 Alpha virt. eigenvalues --    0.28636   0.29303   0.30695   0.31676   0.32659

 Mulliken charges:
               1
     1  C   -0.157619
     2  C   -0.209124
     3  C   -0.178659
     4  C    0.156875
     5  C   -0.172733
     6  C   -0.221631
     7  H    0.234491
     8  H    0.224233
     9  H    0.268196
    10  H    0.272203
    11  H    0.222431
    12  N    0.488310
    13  O   -0.462627
    14  O   -0.465490
    15  C   -0.169677
    16  C   -0.218317
    17  C   -0.170565
    18  C    0.158430
    19  C   -0.168603
    20  C   -0.217743
    21  H    0.228015
    22  H    0.225019
    23  H    0.275719
    24  H    0.270883
    25  H    0.225947
    26  N    0.491805
    27  O   -0.470348
    28  O   -0.459421
 Sum of Mulliken charges =  -0.00000

 Dipole moment (field-independent basis, Debye):
    X=             -5.0070    Y=              0.1601    Z=              1.0580  Tot=              5.1201
 Quadrupole moment (field-independent basis, Debye-Ang):
   XX=           -103.9167   YY=           -108.2650   ZZ=            -99.2931
   XY=             29.4751   XZ=              4.9242   YZ=             -3.3855

 Normal termination of Gaussian 16 at Thu May  6 06:47:38 2021.
