 Gaussian 16, Revision A.03,
 Gaussian 16:  EM64L-G16RevA.03 25-Dec-2016

 -------------
 #p 6-31g* mp2
 -------------

 ------------------------------------------------------
 Input file generated by CHIRIPA (05-May-2021 14:55:22)
 ------------------------------------------------------
 Symbolic Z-matrix:
 Charge =  0 Multiplicity = 1

                         Standard orientation:
 ---------------------------------------------------------------------
 Center     Atomic      Atomic             Coordinates (Angstroms)
 Number     Number       Type             X           Y           Z
 ---------------------------------------------------------------------
      1          6           0        5.173443    0.853198    0.046685
      2          6           0        5.048578   -0.417489    0.617898
      3          6           0        3.844908   -1.122541    0.525001
      4          6           0        2.781655   -0.524192   -0.149359
      5          6           0        2.874965    0.740201   -0.728920
      6          6           0        4.088151    1.426976   -0.623719
      7          1           0        6.112179    1.393800    0.123629
      8          1           0        5.889760   -0.865560    1.139136
      9          1           0        3.720804   -2.107696    0.957996
     10          1           0        2.018842    1.160861   -1.242260
     11          1           0        4.182247    2.413658   -1.068297
     12          7           0        1.502346   -1.260924   -0.254218
     13          8           0        0.580469   -0.711828   -0.853611
     14          8           0        1.445725   -2.373522    0.264972
     15          6           0       -3.227736    0.699495    0.600787
     16          6           0       -2.265139    1.670423   -0.083824
     17          6           0       -1.064523    2.028920    0.792415
     18          1           0       -3.578735    1.143841    1.542222
     19          1           0       -2.683493   -0.216010    0.871055
     20          1           0       -2.811359    2.583269   -0.353962
     21          1           0       -1.916538    1.223794   -1.023832
     22          1           0       -0.494683    1.130677    1.051337
     23          1           0       -1.394587    2.497875    1.725014
     24          1           0       -0.389426    2.724017    0.283549
     25          6           0       -4.433065    0.331596   -0.262670
     26          6           0       -5.395661   -0.639332    0.421941
     27          6           0       -6.596277   -0.997829   -0.454299
     28          1           0       -4.977307    1.247101   -0.532939
     29          1           0       -4.082065   -0.112750   -1.204106
     30          1           0       -5.744262   -0.192704    1.361950
     31          1           0       -4.849442   -1.552177    0.692079
     32          1           0       -6.266213   -1.466784   -1.386898
     33          1           0       -7.166117   -0.099585   -0.713220
     34          1           0       -7.271374   -1.692925    0.054568
 ---------------------------------------------------------------------

 SCF Done:  E(RHF) =  -669.536301741     A.U. after   15 cycles
 E2 =    -0.2091750875D+01 EUMP2 =    -0.67162805261636D+03

 The electronic state is 1-A.
 Alpha  occ. eigenvalues --  -20.60999 -20.60986 -15.86011 -11.31282 -11.27847
 Alpha  occ. eigenvalues --  -11.27834 -11.27579 -11.26844 -11.26832 -11.20812
 Alpha  occ. eigenvalues --  -11.20597 -11.20491 -11.20405 -11.20344 -11.20280
 Alpha  occ. eigenvalues --   -1.60051  -1.39608  -1.19450  -1.08866  -1.07506
 Alpha  occ. eigenvalues --   -1.04839  -1.02675  -0.95718  -0.95154  -0.86249
 Alpha  occ. eigenvalues --   -0.86177  -0.82551  -0.78754  -0.77609  -0.77317
 Alpha  occ. eigenvalues --   -0.72247  -0.71369  -0.70561  -0.65113  -0.64845
 Alpha  occ. eigenvalues --   -0.64097  -0.62189  -0.60033  -0.58546  -0.56782
 Alpha  occ. eigenvalues --   -0.55350  -0.54425  -0.53173  -0.52933  -0.51902
 Alpha  occ. eigenvalues --   -0.51599  -0.49168  -0.48989  -0.48926  -0.47094
 Alpha  occ. eigenvalues --   -0.45783  -0.45038  -0.44825  -0.44675  -0.42939
 Alpha  occ. eigenvalues --   -0.37428  -0.36434
 Alpha virt. eigenvalues --    0.04896   0.11197   0.16367   0.21112   0.23725
 Alpha virt. eigenvalues --    0.24671   0.27108   0.27493   0.28028   0.28418
 Alpha virt. eigenvalues --    0.29038   0.31056   0.31808   0.32144   0.32590

 Mulliken charges:
               1
     1  C   -0.170348
     2  C   -0.218652
     3  C   -0.170729
     4  C    0.157478
     5  C   -0.170153
     6  C   -0.218756
     7  H    0.226002
     8  H    0.223752
     9  H    0.275658
    10  H    0.277272
    11  H    0.223912
    12  N    0.488978
    13  O   -0.460641
    14  O   -0.458834
    15  C   -0.299939
    16  C   -0.298521
    17  C   -0.474308
    18  H    0.143945
    19  H    0.160540
    20  H    0.144435
    21  H    0.163993
    22  H    0.162096
    23  H    0.149342
    24  H    0.147217
    25  C   -0.298451
    26  C   -0.299682
    27  C   -0.475350
    28  H    0.145197
    29  H    0.153437
    30  H    0.149204
    31  H    0.155058
    32  H    0.155751
    33  H    0.152887
    34  H    0.158209
 Sum of Mulliken charges =  -0.00000

 Dipole moment (field-independent basis, Debye):
    X=              4.7282    Y=              2.3882    Z=              0.2956  Tot=              5.3053
 Quadrupole moment (field-independent basis, Debye-Ang):
   XX=            -70.7012   YY=            -94.9563   ZZ=            -94.4178
   XY=              2.9395   XZ=              1.0723   YZ=             -2.9407

 Normal termination of Gaussian 16 at Thu May  6 10:58:04 2021.
