 Gaussian 16, Revision A.03,
 Gaussian 16:  EM64L-G16RevA.03 25-Dec-2016

 -------------
 #p 6-31g* mp2
 -------------

 ------------------------------------------------------
 Input file generated by CHIRIPA (05-May-2021 14:55:19)
 ------------------------------------------------------
 Symbolic Z-matrix:
 Charge =  0 Multiplicity = 1

                         Standard orientation:
 ---------------------------------------------------------------------
 Center     Atomic      Atomic             Coordinates (Angstroms)
 Number     Number       Type             X           Y           Z
 ---------------------------------------------------------------------
      1          6           0        2.062680    1.846574    1.529839
      2          6           0        1.048311    0.894114    1.672650
      3          6           0        1.079468   -0.292512    0.934074
      4          6           0        2.144651   -0.495001    0.057903
      5          6           0        3.170196    0.434794   -0.106504
      6          6           0        3.118524    1.614284    0.642282
      7          1           0        2.030508    2.765602    2.107549
      8          1           0        0.227106    1.071836    2.361187
      9          1           0        0.307328   -1.046786    1.025115
     10          1           0        3.975930    0.229419   -0.800789
     11          1           0        3.907675    2.352204    0.529328
     12          7           0        2.188495   -1.747452   -0.729399
     13          8           0        3.137798   -1.902026   -1.494623
     14          8           0        1.272726   -2.550833   -0.566356
     15          6           0       -2.379736    1.037794   -0.141178
     16          6           0       -2.271630    1.863137   -1.423795
     17          6           0       -1.556662    3.197575   -1.209574
     18          1           0       -2.913289    1.623203    0.620112
     19          1           0       -1.371276    0.855050    0.255064
     20          1           0       -3.279914    2.043093   -1.818250
     21          1           0       -1.738441    1.275621   -2.182182
     22          1           0       -0.539726    3.034514   -0.838287
     23          1           0       -2.089959    3.806347   -0.472287
     24          1           0       -1.490476    3.771349   -2.139232
     25          6           0       -3.092071   -0.299024   -0.339231
     26          6           0       -3.200177   -1.124367    0.943386
     27          6           0       -3.915145   -2.458806    0.729165
     28          1           0       -4.100531   -0.116280   -0.735473
     29          1           0       -2.558518   -0.884433   -1.100521
     30          1           0       -3.733367   -0.536851    1.701773
     31          1           0       -2.191893   -1.304323    1.337841
     32          1           0       -3.381849   -3.067577   -0.008123
     33          1           0       -4.932081   -2.295745    0.357878
     34          1           0       -3.981331   -3.032579    1.658823
 ---------------------------------------------------------------------

 SCF Done:  E(RHF) =  -669.534357605     A.U. after   15 cycles
 E2 =    -0.2094610351D+01 EUMP2 =    -0.67162896795629D+03

 The electronic state is 1-A.
 Alpha  occ. eigenvalues --  -20.60866 -20.60858 -15.85917 -11.31290 -11.27846
 Alpha  occ. eigenvalues --  -11.27840 -11.27593 -11.26875 -11.26853 -11.21931
 Alpha  occ. eigenvalues --  -11.21763 -11.21559 -11.21482 -11.21306 -11.21088
 Alpha  occ. eigenvalues --   -1.59939  -1.39492  -1.19475  -1.08860  -1.08635
 Alpha  occ. eigenvalues --   -1.04884  -1.03713  -0.96143  -0.95691  -0.87161
 Alpha  occ. eigenvalues --   -0.86263  -0.82537  -0.79799  -0.78518  -0.77540
 Alpha  occ. eigenvalues --   -0.72135  -0.71263  -0.70576  -0.65366  -0.65077
 Alpha  occ. eigenvalues --   -0.64848  -0.62204  -0.61109  -0.59516  -0.57770
 Alpha  occ. eigenvalues --   -0.55438  -0.55353  -0.53258  -0.52977  -0.52832
 Alpha  occ. eigenvalues --   -0.52548  -0.50078  -0.48893  -0.48890  -0.48106
 Alpha  occ. eigenvalues --   -0.46835  -0.46008  -0.45911  -0.44891  -0.43960
 Alpha  occ. eigenvalues --   -0.37444  -0.36339
 Alpha virt. eigenvalues --    0.04924   0.11120   0.16313   0.19897   0.22995
 Alpha virt. eigenvalues --    0.23745   0.25497   0.26642   0.27716   0.27980
 Alpha virt. eigenvalues --    0.29832   0.30512   0.31308   0.31602   0.31900

 Mulliken charges:
               1
     1  C   -0.171954
     2  C   -0.219413
     3  C   -0.178246
     4  C    0.158628
     5  C   -0.170740
     6  C   -0.218853
     7  H    0.226837
     8  H    0.226860
     9  H    0.285233
    10  H    0.276015
    11  H    0.224224
    12  N    0.487462
    13  O   -0.459789
    14  O   -0.460611
    15  C   -0.308205
    16  C   -0.298433
    17  C   -0.478296
    18  H    0.145065
    19  H    0.153447
    20  H    0.152736
    21  H    0.155618
    22  H    0.155244
    23  H    0.152137
    24  H    0.161260
    25  C   -0.300347
    26  C   -0.300956
    27  C   -0.476536
    28  H    0.150949
    29  H    0.158068
    30  H    0.150276
    31  H    0.142933
    32  H    0.163549
    33  H    0.155660
    34  H    0.160177
 Sum of Mulliken charges =  -0.00000

 Dipole moment (field-independent basis, Debye):
    X=             -0.1045    Y=              4.3204    Z=              2.6962  Tot=              5.0938
 Quadrupole moment (field-independent basis, Debye-Ang):
   XX=            -91.2179   YY=           -100.0873   ZZ=            -94.0414
   XY=             10.6932   XZ=              4.0258   YZ=             -1.5543

 Normal termination of Gaussian 16 at Thu May  6 15:44:26 2021.
