 Gaussian 16, Revision A.03,
 Gaussian 16:  EM64L-G16RevA.03 25-Dec-2016

 -------------
 #p 6-31g* mp2
 -------------

 ------------------------------------------------------
 Input file generated by CHIRIPA (05-May-2021 14:53:15)
 ------------------------------------------------------
 Symbolic Z-matrix:
 Charge =  0 Multiplicity = 1

                         Standard orientation:
 ---------------------------------------------------------------------
 Center     Atomic      Atomic             Coordinates (Angstroms)
 Number     Number       Type             X           Y           Z
 ---------------------------------------------------------------------
      1          6           0        3.197597   -0.274727   -0.112924
      2          6           0        2.276037    0.523136   -1.036031
      3          6           0        0.820416    0.061211   -0.961295
      4          1           0        3.135527   -1.339877   -0.374739
      5          1           0        2.836213   -0.185399    0.920912
      6          1           0        2.639852    0.433461   -2.067638
      7          1           0        2.340454    1.586534   -0.772113
      8          1           0        0.434564    0.166851    0.057803
      9          1           0        0.735664   -0.992773   -1.245083
     10          1           0        0.179182    0.644970   -1.629056
     11          6           0        4.656063    0.175350   -0.176457
     12          6           0        5.577623   -0.622514    0.746650
     13          6           0        7.033244   -0.160588    0.671913
     14          1           0        5.017447    0.086021   -1.210293
     15          1           0        4.718133    1.240500    0.085358
     16          1           0        5.513206   -1.685911    0.482732
     17          1           0        5.213808   -0.532839    1.778257
     18          1           0        7.117996    0.893396    0.955701
     19          1           0        7.419096   -0.266228   -0.347184
     20          1           0        7.674478   -0.744347    1.339674
     21          6           0       -3.506390   -2.443008   -0.005815
     22          6           0       -3.742922   -1.746554    1.183944
     23          6           0       -3.503475   -0.371332    1.261262
     24          6           0       -3.025438    0.278753    0.124530
     25          6           0       -2.779968   -0.387286   -1.075231
     26          6           0       -3.026514   -1.762351   -1.129624
     27          1           0       -3.695154   -3.511253   -0.056973
     28          1           0       -4.115592   -2.272566    2.058286
     29          1           0       -3.677937    0.192418    2.169649
     30          1           0       -2.408399    0.164425   -1.930199
     31          1           0       -2.841914   -2.300650   -2.054936
     32          7           0       -2.768189    1.734556    0.194248
     33          8           0       -2.347100    2.284186   -0.821245
     34          8           0       -2.992517    2.298418    1.263067
 ---------------------------------------------------------------------

 SCF Done:  E(RHF) =  -669.535533270     A.U. after   15 cycles
 E2 =    -0.2092209322D+01 EUMP2 =    -0.67162774259123D+03

 The electronic state is 1-A.
 Alpha  occ. eigenvalues --  -20.60792 -20.60779 -15.85826 -11.31146 -11.27737
 Alpha  occ. eigenvalues --  -11.27722 -11.27477 -11.26735 -11.26723 -11.21502
 Alpha  occ. eigenvalues --  -11.21363 -11.21255 -11.21196 -11.20975 -11.20889
 Alpha  occ. eigenvalues --   -1.59852  -1.39408  -1.19332  -1.08733  -1.08276
 Alpha  occ. eigenvalues --   -1.04734  -1.03376  -0.95849  -0.95567  -0.86879
 Alpha  occ. eigenvalues --   -0.86125  -0.82410  -0.79454  -0.78092  -0.77457
 Alpha  occ. eigenvalues --   -0.72052  -0.71168  -0.70452  -0.64992  -0.64903
 Alpha  occ. eigenvalues --   -0.64745  -0.62102  -0.60773  -0.59192  -0.57438
 Alpha  occ. eigenvalues --   -0.55246  -0.55135  -0.53179  -0.52879  -0.52405
 Alpha  occ. eigenvalues --   -0.52217  -0.49793  -0.48808  -0.48805  -0.47755
 Alpha  occ. eigenvalues --   -0.46478  -0.45634  -0.45558  -0.44826  -0.43604
 Alpha  occ. eigenvalues --   -0.37298  -0.36296
 Alpha virt. eigenvalues --    0.05050   0.11295   0.16545   0.21234   0.23011
 Alpha virt. eigenvalues --    0.24306   0.26732   0.26796   0.27596   0.27826
 Alpha virt. eigenvalues --    0.28644   0.30169   0.31430   0.31664   0.31992

 Mulliken charges:
               1
     1  C   -0.298217
     2  C   -0.300537
     3  C   -0.479235
     4  H    0.146659
     5  H    0.149999
     6  H    0.150064
     7  H    0.157907
     8  H    0.154813
     9  H    0.147625
    10  H    0.167386
    11  C   -0.298331
    12  C   -0.299427
    13  C   -0.475653
    14  H    0.148904
    15  H    0.151466
    16  H    0.150487
    17  H    0.152007
    18  H    0.156004
    19  H    0.154852
    20  H    0.159590
    21  C   -0.170424
    22  C   -0.218739
    23  C   -0.171529
    24  C    0.158247
    25  C   -0.164278
    26  C   -0.219907
    27  H    0.225416
    28  H    0.223169
    29  H    0.275330
    30  H    0.275622
    31  H    0.223276
    32  N    0.488927
    33  O   -0.460988
    34  O   -0.460485
 Sum of Mulliken charges =  -0.00000

 Dipole moment (field-independent basis, Debye):
    X=             -0.9558    Y=             -5.0555    Z=             -0.2486  Tot=              5.1510
 Quadrupole moment (field-independent basis, Debye-Ang):
   XX=            -90.9604   YY=            -97.8766   ZZ=            -89.7936
   XY=             15.3299   XZ=             -1.1486   YZ=             -0.2155

 Normal termination of Gaussian 16 at Thu May  6 05:54:37 2021.
