 Gaussian 16, Revision A.03,
 Gaussian 16:  EM64L-G16RevA.03 25-Dec-2016

 -------------
 #p 6-31g* mp2
 -------------

 ------------------------------------------------------
 Input file generated by CHIRIPA (05-May-2021 14:55:23)
 ------------------------------------------------------
 Symbolic Z-matrix:
 Charge =  0 Multiplicity = 1

                         Standard orientation:
 ---------------------------------------------------------------------
 Center     Atomic      Atomic             Coordinates (Angstroms)
 Number     Number       Type             X           Y           Z
 ---------------------------------------------------------------------
      1          6           0       -1.693029   -1.743856    1.830239
      2          6           0       -0.745527   -1.126358    1.007160
      3          6           0       -1.143423   -0.205580    0.033305
      4          6           0       -2.503168    0.075516   -0.090660
      5          6           0       -3.471166   -0.523157    0.714239
      6          6           0       -3.050431   -1.440819    1.681413
      7          1           0       -1.375063   -2.457928    2.584158
      8          1           0        0.309327   -1.359774    1.120491
      9          1           0       -0.431057    0.287075   -0.617267
     10          1           0       -4.515552   -0.270179    0.577569
     11          1           0       -3.788491   -1.918845    2.319225
     12          7           0       -2.936492    1.048653   -1.118100
     13          8           0       -4.140462    1.279162   -1.207307
     14          8           0       -2.063955    1.562462   -1.814747
     15          6           0        3.269608    0.543816    0.507086
     16          6           0        2.916924    2.017818    0.304807
     17          6           0        3.236724    2.875621    1.529427
     18          1           0        2.723139    0.158926    1.378967
     19          1           0        4.338788    0.459275    0.746045
     20          1           0        1.849020    2.099435    0.064938
     21          1           0        3.464149    2.399192   -0.566809
     22          1           0        4.303986    2.823915    1.767920
     23          1           0        2.679681    2.522455    2.403257
     24          1           0        2.976761    3.925665    1.363040
     25          6           0        2.955675   -0.326551   -0.708494
     26          6           0        3.308360   -1.800553   -0.506215
     27          6           0        2.988559   -2.658355   -1.730836
     28          1           0        1.886495   -0.242011   -0.947454
     29          1           0        3.502144    0.058338   -1.580375
     30          1           0        2.761135   -2.181927    0.365401
     31          1           0        4.376263   -1.882170   -0.266347
     32          1           0        3.545602   -2.305190   -2.604665
     33          1           0        1.921296   -2.606649   -1.969328
     34          1           0        3.248521   -3.708401   -1.564448
 ---------------------------------------------------------------------

 SCF Done:  E(RHF) =  -669.535152137     A.U. after   15 cycles
 E2 =    -0.2092980762D+01 EUMP2 =    -0.67162813289895D+03

 The electronic state is 1-A.
 Alpha  occ. eigenvalues --  -20.60774 -20.60769 -15.85826 -11.31193 -11.27765
 Alpha  occ. eigenvalues --  -11.27750 -11.27506 -11.26783 -11.26760 -11.22432
 Alpha  occ. eigenvalues --  -11.22201 -11.22088 -11.22012 -11.21663 -11.21381
 Alpha  occ. eigenvalues --   -1.59848  -1.39402  -1.19368  -1.09139  -1.08760
 Alpha  occ. eigenvalues --   -1.04774  -1.04109  -0.96554  -0.95597  -0.87563
 Alpha  occ. eigenvalues --   -0.86172  -0.82433  -0.80186  -0.78942  -0.77483
 Alpha  occ. eigenvalues --   -0.72045  -0.71171  -0.70493  -0.65893  -0.65005
 Alpha  occ. eigenvalues --   -0.64765  -0.62099  -0.61488  -0.59917  -0.58154
 Alpha  occ. eigenvalues --   -0.55856  -0.55259  -0.53223  -0.53098  -0.52968
 Alpha  occ. eigenvalues --   -0.52855  -0.50503  -0.48805  -0.48801  -0.48480
 Alpha  occ. eigenvalues --   -0.47252  -0.46441  -0.46391  -0.44807  -0.44399
 Alpha  occ. eigenvalues --   -0.37347  -0.36372
 Alpha virt. eigenvalues --    0.05037   0.11248   0.16494   0.18033   0.23145
 Alpha virt. eigenvalues --    0.23330   0.24365   0.25193   0.27275   0.28580
 Alpha virt. eigenvalues --    0.30139   0.30976   0.31287   0.31368   0.32256

 Mulliken charges:
               1
     1  C   -0.171789
     2  C   -0.226236
     3  C   -0.183029
     4  C    0.161335
     5  C   -0.170499
     6  C   -0.218510
     7  H    0.226012
     8  H    0.232028
     9  H    0.283600
    10  H    0.275654
    11  H    0.223559
    12  N    0.488119
    13  O   -0.460369
    14  O   -0.460447
    15  C   -0.300032
    16  C   -0.301717
    17  C   -0.476150
    18  H    0.142884
    19  H    0.153371
    20  H    0.154073
    21  H    0.156270
    22  H    0.155520
    23  H    0.154237
    24  H    0.164664
    25  C   -0.305479
    26  C   -0.301109
    27  C   -0.476378
    28  H    0.145266
    29  H    0.158003
    30  H    0.143004
    31  H    0.156595
    32  H    0.159590
    33  H    0.156227
    34  H    0.161731
 Sum of Mulliken charges =  -0.00000

 Dipole moment (field-independent basis, Debye):
    X=              1.6905    Y=             -3.3531    Z=              3.5338  Tot=              5.1565
 Quadrupole moment (field-independent basis, Debye-Ang):
   XX=            -96.2137   YY=            -96.1214   ZZ=            -96.0911
   XY=              9.7192   XZ=            -11.6919   YZ=             -0.2499

 Normal termination of Gaussian 16 at Wed May  5 20:43:08 2021.
