 Gaussian 16, Revision A.03,
 Gaussian 16:  EM64L-G16RevA.03 25-Dec-2016

 -------------
 #p 6-31g* mp2
 -------------

 ------------------------------------------------------
 Input file generated by CHIRIPA (05-May-2021 14:55:25)
 ------------------------------------------------------
 Symbolic Z-matrix:
 Charge =  0 Multiplicity = 1

                         Standard orientation:
 ---------------------------------------------------------------------
 Center     Atomic      Atomic             Coordinates (Angstroms)
 Number     Number       Type             X           Y           Z
 ---------------------------------------------------------------------
      1          6           0        3.779678   -2.346922    0.174784
      2          6           0        3.056664   -1.675100    1.165959
      3          6           0        2.648178   -0.352027    0.973179
      4          6           0        2.981399    0.271595   -0.228216
      5          6           0        3.700633   -0.370984   -1.234738
      6          6           0        4.098792   -1.693871   -1.020294
      7          1           0        4.092989   -3.374645    0.332955
      8          1           0        2.807423   -2.179768    2.095062
      9          1           0        2.087455    0.191700    1.723757
     10          1           0        3.934198    0.158437   -2.150478
     11          1           0        4.660190   -2.213140   -1.791810
     12          7           0        2.554420    1.672175   -0.443771
     13          8           0        2.860560    2.199347   -1.511013
     14          8           0        1.921698    2.216258    0.458601
     15          6           0       -4.284149   -0.452241   -0.283059
     16          6           0       -5.748840   -0.037230   -0.425987
     17          6           0       -6.491522   -0.846627   -1.489516
     18          1           0       -3.780454   -0.335993   -1.252452
     19          1           0       -4.235920   -1.520884   -0.031917
     20          1           0       -5.794332    1.030630   -0.675424
     21          1           0       -6.249060   -0.154299    0.543905
     22          1           0       -6.475837   -1.913122   -1.242651
     23          1           0       -6.018527   -0.721460   -2.468909
     24          1           0       -7.536756   -0.533533   -1.575057
     25          6           0       -3.528384    0.347889    0.776346
     26          6           0       -2.063693   -0.067121    0.919273
     27          6           0       -1.321012    0.742275    1.982803
     28          1           0       -3.576613    1.416533    0.525204
     29          1           0       -4.032079    0.231641    1.745739
     30          1           0       -1.563474    0.049947   -0.050619
     31          1           0       -2.018201   -1.134983    1.168711
     32          1           0       -1.794006    0.617108    2.962196
     33          1           0       -1.336696    1.808770    1.735938
     34          1           0       -0.275777    0.429181    2.068344
 ---------------------------------------------------------------------

 SCF Done:  E(RHF) =  -669.535409774     A.U. after   15 cycles
 E2 =    -0.2091494332D+01 EUMP2 =    -0.67162690410516D+03

 The electronic state is 1-A.
 Alpha  occ. eigenvalues --  -20.60805 -20.60795 -15.85847 -11.31216 -11.27782
 Alpha  occ. eigenvalues --  -11.27773 -11.27525 -11.26804 -11.26793 -11.21429
 Alpha  occ. eigenvalues --  -11.21367 -11.21205 -11.21123 -11.20937 -11.20740
 Alpha  occ. eigenvalues --   -1.59873  -1.39426  -1.19388  -1.08782  -1.08217
 Alpha  occ. eigenvalues --   -1.04793  -1.03312  -0.95767  -0.95608  -0.86777
 Alpha  occ. eigenvalues --   -0.86188  -0.82448  -0.79379  -0.78032  -0.77497
 Alpha  occ. eigenvalues --   -0.72067  -0.71194  -0.70506  -0.65042  -0.64840
 Alpha  occ. eigenvalues --   -0.64806  -0.62180  -0.60692  -0.59137  -0.57385
 Alpha  occ. eigenvalues --   -0.55295  -0.55017  -0.53127  -0.52971  -0.52387
 Alpha  occ. eigenvalues --   -0.52154  -0.49675  -0.48828  -0.48818  -0.47695
 Alpha  occ. eigenvalues --   -0.46400  -0.45574  -0.45491  -0.44822  -0.43573
 Alpha  occ. eigenvalues --   -0.37366  -0.36387
 Alpha virt. eigenvalues --    0.05007   0.11194   0.16520   0.20913   0.23094
 Alpha virt. eigenvalues --    0.24227   0.26389   0.26873   0.27738   0.27776
 Alpha virt. eigenvalues --    0.28983   0.30468   0.31539   0.31668   0.32082

 Mulliken charges:
               1
     1  C   -0.170670
     2  C   -0.219730
     3  C   -0.173235
     4  C    0.157432
     5  C   -0.170843
     6  C   -0.218375
     7  H    0.225737
     8  H    0.223748
     9  H    0.281460
    10  H    0.275618
    11  H    0.223565
    12  N    0.487716
    13  O   -0.460404
    14  O   -0.460391
    15  C   -0.298122
    16  C   -0.299657
    17  C   -0.475608
    18  H    0.150480
    19  H    0.147349
    20  H    0.153299
    21  H    0.151287
    22  H    0.153990
    23  H    0.155430
    24  H    0.160034
    25  C   -0.298879
    26  C   -0.299631
    27  C   -0.474061
    28  H    0.153096
    29  H    0.148323
    30  H    0.154125
    31  H    0.146317
    32  H    0.150713
    33  H    0.168755
    34  H    0.151134
 Sum of Mulliken charges =  -0.00000

 Dipole moment (field-independent basis, Debye):
    X=              1.5403    Y=             -4.8322    Z=              0.7138  Tot=              5.1217
 Quadrupole moment (field-independent basis, Debye-Ang):
   XX=            -86.0373   YY=            -97.7364   ZZ=            -91.3976
   XY=            -15.0500   XZ=             -0.9862   YZ=              0.6107

 Normal termination of Gaussian 16 at Thu May  6 14:24:31 2021.
