 Gaussian 16, Revision A.03,
 Gaussian 16:  EM64L-G16RevA.03 25-Dec-2016

 -------------
 #p 6-31g* mp2
 -------------

 ------------------------------------------------------
 Input file generated by CHIRIPA (05-May-2021 14:55:25)
 ------------------------------------------------------
 Symbolic Z-matrix:
 Charge =  0 Multiplicity = 1

                         Standard orientation:
 ---------------------------------------------------------------------
 Center     Atomic      Atomic             Coordinates (Angstroms)
 Number     Number       Type             X           Y           Z
 ---------------------------------------------------------------------
      1          6           0       -3.410041    2.465859    0.554321
      2          6           0       -2.467373    1.698469    1.246426
      3          6           0       -2.200677    0.382056    0.858512
      4          6           0       -2.898131   -0.137527   -0.230929
      5          6           0       -3.843122    0.601774   -0.940658
      6          6           0       -4.093702    1.916032   -0.535092
      7          1           0       -3.610958    3.487644    0.862518
      8          1           0       -1.934925    2.122862    2.092850
      9          1           0       -1.476001   -0.234329    1.376521
     10          1           0       -4.358002    0.151213   -1.780486
     11          1           0       -4.826326    2.509660   -1.074455
     12          7           0       -2.624322   -1.530014   -0.650940
     13          8           0       -3.252196   -1.964544   -1.614057
     14          8           0       -1.787022   -2.160548   -0.009074
     15          6           0        4.177296    0.499900    0.022777
     16          6           0        5.353857    0.192448   -0.904134
     17          6           0        6.164368    1.438081   -1.263667
     18          1           0        3.522436    1.238733   -0.459124
     19          1           0        4.556008    0.969735    0.941051
     20          1           0        4.973173   -0.277927   -1.819799
     21          1           0        6.005891   -0.545882   -0.420052
     22          1           0        6.571596    1.906311   -0.361709
     23          1           0        5.533009    2.175788   -1.769410
     24          1           0        7.000435    1.195407   -1.926964
     25          6           0        3.357443   -0.735349    0.391191
     26          6           0        2.180882   -0.427897    1.318101
     27          6           0        1.370371   -1.673529    1.677635
     28          1           0        2.978732   -1.205183   -0.527084
     29          1           0        4.012303   -1.474181    0.873092
     30          1           0        1.528848    0.310434    0.834020
     31          1           0        2.561568    0.042479    2.233767
     32          1           0        2.001731   -2.411236    2.183377
     33          1           0        0.963144   -2.141759    0.775678
     34          1           0        0.534305   -1.430855    2.340932
 ---------------------------------------------------------------------

 SCF Done:  E(RHF) =  -669.535611926     A.U. after   15 cycles
 E2 =    -0.2091888619D+01 EUMP2 =    -0.67162750054448D+03

 The electronic state is 1-A.
 Alpha  occ. eigenvalues --  -20.60840 -20.60826 -15.85877 -11.31211 -11.27786
 Alpha  occ. eigenvalues --  -11.27748 -11.27524 -11.26797 -11.26780 -11.21488
 Alpha  occ. eigenvalues --  -11.21468 -11.21282 -11.21174 -11.21007 -11.20574
 Alpha  occ. eigenvalues --   -1.59907  -1.39462  -1.19385  -1.08788  -1.08279
 Alpha  occ. eigenvalues --   -1.04783  -1.03357  -0.95800  -0.95606  -0.86785
 Alpha  occ. eigenvalues --   -0.86180  -0.82461  -0.79421  -0.78099  -0.77506
 Alpha  occ. eigenvalues --   -0.72107  -0.71227  -0.70498  -0.65045  -0.64921
 Alpha  occ. eigenvalues --   -0.64773  -0.62164  -0.60721  -0.59171  -0.57420
 Alpha  occ. eigenvalues --   -0.55292  -0.55017  -0.53116  -0.52925  -0.52430
 Alpha  occ. eigenvalues --   -0.52176  -0.49703  -0.48859  -0.48820  -0.47736
 Alpha  occ. eigenvalues --   -0.46443  -0.45642  -0.45555  -0.44836  -0.43621
 Alpha  occ. eigenvalues --   -0.37369  -0.36382
 Alpha virt. eigenvalues --    0.04982   0.11242   0.16470   0.20585   0.23038
 Alpha virt. eigenvalues --    0.23941   0.26514   0.26893   0.27619   0.27823
 Alpha virt. eigenvalues --    0.29471   0.30941   0.31561   0.31670   0.32012

 Mulliken charges:
               1
     1  C   -0.170353
     2  C   -0.221809
     3  C   -0.176392
     4  C    0.155510
     5  C   -0.170094
     6  C   -0.219009
     7  H    0.225751
     8  H    0.224311
     9  H    0.288343
    10  H    0.275577
    11  H    0.223506
    12  N    0.489265
    13  O   -0.459888
    14  O   -0.462534
    15  C   -0.297952
    16  C   -0.299770
    17  C   -0.475566
    18  H    0.148054
    19  H    0.147801
    20  H    0.153362
    21  H    0.152319
    22  H    0.154309
    23  H    0.154356
    24  H    0.160421
    25  C   -0.298477
    26  C   -0.302104
    27  C   -0.481084
    28  H    0.153973
    29  H    0.150442
    30  H    0.145519
    31  H    0.147682
    32  H    0.154832
    33  H    0.181145
    34  H    0.148556
 Sum of Mulliken charges =  -0.00000

 Dipole moment (field-independent basis, Debye):
    X=             -1.0182    Y=              4.7675    Z=              1.3787  Tot=              5.0662
 Quadrupole moment (field-independent basis, Debye-Ang):
   XX=            -87.6076   YY=            -97.0547   ZZ=            -92.8844
   XY=            -15.6093   XZ=             -0.6583   YZ=             -1.4910

 Normal termination of Gaussian 16 at Thu May  6 04:48:06 2021.
