 Gaussian 16, Revision A.03,
 Gaussian 16:  EM64L-G16RevA.03 25-Dec-2016

 -------------
 #p 6-31g* mp2
 -------------

 ------------------------------------------------------
 Input file generated by CHIRIPA (05-May-2021 14:57:20)
 ------------------------------------------------------
 Symbolic Z-matrix:
 Charge =  0 Multiplicity = 1

                         Standard orientation:
 ---------------------------------------------------------------------
 Center     Atomic      Atomic             Coordinates (Angstroms)
 Number     Number       Type             X           Y           Z
 ---------------------------------------------------------------------
      1          6           0        2.459393    2.315015    0.840946
      2          6           0        3.722975    1.912953    1.286173
      3          6           0        4.328192    0.766167    0.763543
      4          6           0        3.638340    0.041839   -0.207406
      5          6           0        2.378400    0.416719   -0.671418
      6          6           0        1.792314    1.566934   -0.134708
      7          1           0        1.996677    3.207198    1.252407
      8          1           0        4.243371    2.491980    2.043775
      9          1           0        5.305532    0.432223    1.090203
     10          1           0        1.884228   -0.180953   -1.427724
     11          1           0        0.810907    1.876804   -0.482365
     12          7           0        4.268929   -1.174027   -0.768144
     13          8           0        3.640412   -1.794879   -1.622630
     14          8           0        5.379761   -1.483148   -0.342547
     15          6           0       -1.716704   -1.356629    1.464055
     16          6           0       -1.381487   -0.518601    0.395476
     17          6           0       -2.380332    0.104112   -0.358900
     18          6           0       -3.710140   -0.134493   -0.015432
     19          6           0       -4.076009   -0.964068    1.043450
     20          6           0       -3.060526   -1.576300    1.784067
     21          1           0       -0.934315   -1.836296    2.044728
     22          1           0       -0.338697   -0.346176    0.144673
     23          1           0       -2.148953    0.757625   -1.191248
     24          1           0       -5.124359   -1.116713    1.269460
     25          1           0       -3.323809   -2.226627    2.613407
     26          7           0       -4.776379    0.519198   -0.806774
     27          8           0       -5.940475    0.292746   -0.483912
     28          8           0       -4.427815    1.245636   -1.734906
 ---------------------------------------------------------------------

 SCF Done:  E(RHF) =  -868.336678310     A.U. after   16 cycles
 E2 =    -0.2601274548D+01 EUMP2 =    -0.87093795285761D+03

 The electronic state is 1-A.
 Alpha  occ. eigenvalues --  -20.61505 -20.61498 -20.61111 -20.61100 -15.86565
 Alpha  occ. eigenvalues --  -15.86163 -11.32085 -11.31567 -11.28715 -11.28614
 Alpha  occ. eigenvalues --  -11.28361 -11.28195 -11.28097 -11.27818 -11.27743
 Alpha  occ. eigenvalues --  -11.27625 -11.27108 -11.27096  -1.60580  -1.60183
 Alpha  occ. eigenvalues --   -1.40128  -1.39737  -1.20271  -1.19728  -1.09610
 Alpha  occ. eigenvalues --   -1.09100  -1.05725  -1.05144  -0.96424  -0.95938
 Alpha  occ. eigenvalues --   -0.87067  -0.86537  -0.83292  -0.82771  -0.78339
 Alpha  occ. eigenvalues --   -0.77811  -0.72772  -0.72379  -0.71912  -0.71508
 Alpha  occ. eigenvalues --   -0.71321  -0.70817  -0.65938  -0.65705  -0.65371
 Alpha  occ. eigenvalues --   -0.65160  -0.63138  -0.62386  -0.56119  -0.55603
 Alpha  occ. eigenvalues --   -0.54099  -0.53790  -0.53439  -0.53126  -0.49545
 Alpha  occ. eigenvalues --   -0.49523  -0.49142  -0.49132  -0.45500  -0.45136
 Alpha  occ. eigenvalues --   -0.38219  -0.37679  -0.37307  -0.36735
 Alpha virt. eigenvalues --    0.04185   0.04700   0.10209   0.11007   0.15484
 Alpha virt. eigenvalues --    0.16188   0.19264   0.21920   0.24902   0.26979
 Alpha virt. eigenvalues --    0.28060   0.28746   0.30608   0.30975   0.32055

 Mulliken charges:
               1
     1  C   -0.171118
     2  C   -0.218219
     3  C   -0.170383
     4  C    0.158384
     5  C   -0.179264
     6  C   -0.221987
     7  H    0.230623
     8  H    0.227259
     9  H    0.278529
    10  H    0.275943
    11  H    0.224737
    12  N    0.487805
    13  O   -0.459207
    14  O   -0.457624
    15  C   -0.173072
    16  C   -0.223164
    17  C   -0.176705
    18  C    0.159605
    19  C   -0.170741
    20  C   -0.218097
    21  H    0.229364
    22  H    0.227086
    23  H    0.270254
    24  H    0.276826
    25  H    0.225292
    26  N    0.488222
    27  O   -0.458781
    28  O   -0.461566
 Sum of Mulliken charges =  -0.00000

 Dipole moment (field-independent basis, Debye):
    X=              1.7495    Y=              1.9938    Z=              4.9305  Tot=              5.5988
 Quadrupole moment (field-independent basis, Debye-Ang):
   XX=           -142.4980   YY=           -103.6068   ZZ=           -103.1958
   XY=             26.5756   XZ=             -2.3182   YZ=             -2.0401

 Normal termination of Gaussian 16 at Thu May  6 06:27:29 2021.
