 Gaussian 16, Revision A.03,
 Gaussian 16:  EM64L-G16RevA.03 25-Dec-2016

 -------------
 #p 6-31g* mp2
 -------------

 ------------------------------------------------------
 Input file generated by CHIRIPA (05-May-2021 14:53:16)
 ------------------------------------------------------
 Symbolic Z-matrix:
 Charge =  0 Multiplicity = 1

                         Standard orientation:
 ---------------------------------------------------------------------
 Center     Atomic      Atomic             Coordinates (Angstroms)
 Number     Number       Type             X           Y           Z
 ---------------------------------------------------------------------
      1          6           0       -3.079868    0.738889   -0.068929
      2          6           0       -4.133108    1.842332    0.036364
      3          6           0       -3.613832    3.201879   -0.432440
      4          1           0       -2.200612    1.022086    0.525760
      5          1           0       -2.740979    0.663369   -1.111448
      6          1           0       -4.470914    1.914813    1.078117
      7          1           0       -5.010035    1.556388   -0.558490
      8          1           0       -3.294605    3.152490   -1.478507
      9          1           0       -2.752421    3.512951    0.167398
     10          1           0       -4.382935    3.976035   -0.348631
     11          6           0       -3.583996   -0.626153    0.396089
     12          6           0       -2.530756   -1.729596    0.290797
     13          6           0       -3.050032   -3.089143    0.759601
     14          1           0       -3.922885   -0.550633    1.438608
     15          1           0       -4.463252   -0.909350   -0.198599
     16          1           0       -1.653829   -1.443651    0.885650
     17          1           0       -2.192950   -1.802076   -0.750956
     18          1           0       -3.911443   -3.400215    0.159763
     19          1           0       -3.369259   -3.039754    1.805668
     20          1           0       -2.280929   -3.863298    0.675792
     21          6           0        3.872850    2.003688    0.620807
     22          6           0        2.575545    2.131076    0.113567
     23          6           0        1.862615    1.003354   -0.304193
     24          6           0        2.480314   -0.242004   -0.200170
     25          6           0        3.771382   -0.401444    0.300842
     26          6           0        4.465584    0.740061    0.712664
     27          1           0        4.419396    2.885083    0.943026
     28          1           0        2.112711    3.111165    0.041072
     29          1           0        0.856990    1.073280   -0.700734
     30          1           0        4.206306   -1.391722    0.360922
     31          1           0        5.472952    0.638122    1.106191
     32          7           0        1.735482   -1.443169   -0.639289
     33          8           0        2.302008   -2.529122   -0.537358
     34          8           0        0.599258   -1.275945   -1.077089
 ---------------------------------------------------------------------

 SCF Done:  E(RHF) =  -669.535697156     A.U. after   15 cycles
 E2 =    -0.2091891540D+01 EUMP2 =    -0.67162758869655D+03

 The electronic state is 1-A.
 Alpha  occ. eigenvalues --  -20.60887 -20.60856 -15.85901 -11.31241 -11.27810
 Alpha  occ. eigenvalues --  -11.27793 -11.27549 -11.26821 -11.26808 -11.21365
 Alpha  occ. eigenvalues --  -11.21071 -11.20963 -11.20626 -11.20262 -11.19991
 Alpha  occ. eigenvalues --   -1.59938  -1.39493  -1.19413  -1.08816  -1.07817
 Alpha  occ. eigenvalues --   -1.04810  -1.02861  -0.95657  -0.95388  -0.86416
 Alpha  occ. eigenvalues --   -0.86209  -0.82495  -0.78983  -0.77672  -0.77374
 Alpha  occ. eigenvalues --   -0.72124  -0.71251  -0.70519  -0.65068  -0.64813
 Alpha  occ. eigenvalues --   -0.64461  -0.62154  -0.60266  -0.58796  -0.56934
 Alpha  occ. eigenvalues --   -0.55315  -0.54714  -0.53144  -0.52901  -0.52081
 Alpha  occ. eigenvalues --   -0.51799  -0.49379  -0.48911  -0.48888  -0.47284
 Alpha  occ. eigenvalues --   -0.46038  -0.45367  -0.44905  -0.44549  -0.43126
 Alpha  occ. eigenvalues --   -0.37394  -0.36413
 Alpha virt. eigenvalues --    0.04975   0.11227   0.16461   0.21046   0.23221
 Alpha virt. eigenvalues --    0.24939   0.26078   0.27285   0.27645   0.28436
 Alpha virt. eigenvalues --    0.29229   0.31127   0.31940   0.32043   0.32720

 Mulliken charges:
               1
     1  C   -0.297349
     2  C   -0.298727
     3  C   -0.475116
     4  H    0.142882
     5  H    0.152655
     6  H    0.151148
     7  H    0.152926
     8  H    0.154373
     9  H    0.149111
    10  H    0.160038
    11  C   -0.299334
    12  C   -0.296327
    13  C   -0.477300
    14  H    0.144939
    15  H    0.147405
    16  H    0.149703
    17  H    0.170699
    18  H    0.150946
    19  H    0.148499
    20  H    0.165816
    21  C   -0.170656
    22  C   -0.218920
    23  C   -0.172962
    24  C    0.157606
    25  C   -0.170717
    26  C   -0.218645
    27  H    0.225815
    28  H    0.224050
    29  H    0.278319
    30  H    0.275654
    31  H    0.223600
    32  N    0.490429
    33  O   -0.460101
    34  O   -0.460459
 Sum of Mulliken charges =  -0.00000

 Dipole moment (field-independent basis, Debye):
    X=              2.8002    Y=              4.1028    Z=              1.4143  Tot=              5.1647
 Quadrupole moment (field-independent basis, Debye-Ang):
   XX=            -79.5154   YY=            -96.8781   ZZ=            -95.2014
   XY=              7.4053   XZ=              5.3348   YZ=             -1.2697

 Normal termination of Gaussian 16 at Thu May  6 07:32:29 2021.
