 Gaussian 16, Revision A.03,
 Gaussian 16:  EM64L-G16RevA.03 25-Dec-2016

 -------------
 #p 6-31g* mp2
 -------------

 ------------------------------------------------------
 Input file generated by CHIRIPA (05-May-2021 14:57:27)
 ------------------------------------------------------
 Symbolic Z-matrix:
 Charge =  0 Multiplicity = 1

                         Standard orientation:
 ---------------------------------------------------------------------
 Center     Atomic      Atomic             Coordinates (Angstroms)
 Number     Number       Type             X           Y           Z
 ---------------------------------------------------------------------
      1          6           0        0.984903    2.087299   -0.887861
      2          6           0        1.875759    2.341276    0.160180
      3          6           0        2.863063    1.409552    0.494349
      4          6           0        2.931215    0.228976   -0.243815
      5          6           0        2.058215   -0.052997   -1.293411
      6          6           0        1.078808    0.893078   -1.610039
      7          1           0        0.221009    2.816658   -1.140639
      8          1           0        1.805181    3.267868    0.722756
      9          1           0        3.565602    1.580648    1.300936
     10          1           0        2.153333   -0.985689   -1.836049
     11          1           0        0.388306    0.693160   -2.424461
     12          7           0        3.972249   -0.764995    0.100670
     13          8           0        4.011384   -1.797468   -0.564990
     14          8           0        4.729364   -0.492775    1.029814
     15          6           0       -0.464203   -1.034393    1.128385
     16          6           0       -1.268421   -0.178571    1.888202
     17          6           0       -2.541947    0.183646    1.439337
     18          6           0       -2.981554   -0.330767    0.220562
     19          6           0       -2.203880   -1.185423   -0.559231
     20          6           0       -0.933671   -1.534207   -0.090757
     21          1           0        0.523814   -1.310554    1.484690
     22          1           0       -0.906429    0.211111    2.835384
     23          1           0       -3.185360    0.844449    2.007473
     24          1           0       -2.592153   -1.557859   -1.499418
     25          1           0       -0.311286   -2.199033   -0.682946
     26          7           0       -4.328023    0.045585   -0.265011
     27          8           0       -4.692167   -0.421137   -1.342139
     28          8           0       -4.993746    0.800166    0.440721
 ---------------------------------------------------------------------

 SCF Done:  E(RHF) =  -868.336296308     A.U. after   16 cycles
 E2 =    -0.2604336033D+01 EUMP2 =    -0.87094063234124D+03

 The electronic state is 1-A.
 Alpha  occ. eigenvalues --  -20.61635 -20.61621 -20.61202 -20.61197 -15.86681
 Alpha  occ. eigenvalues --  -15.86255 -11.31986 -11.31585 -11.28503 -11.28495
 Alpha  occ. eigenvalues --  -11.28137 -11.28132 -11.28107 -11.27761 -11.27482
 Alpha  occ. eigenvalues --  -11.27429 -11.27110 -11.27099  -1.60719  -1.60283
 Alpha  occ. eigenvalues --   -1.40269  -1.39836  -1.20138  -1.19730  -1.09506
 Alpha  occ. eigenvalues --   -1.09120  -1.05529  -1.05126  -0.96362  -0.95963
 Alpha  occ. eigenvalues --   -0.86896  -0.86533  -0.83196  -0.82806  -0.78283
 Alpha  occ. eigenvalues --   -0.77877  -0.72881  -0.72467  -0.72083  -0.71616
 Alpha  occ. eigenvalues --   -0.71175  -0.70791  -0.65755  -0.65497  -0.65371
 Alpha  occ. eigenvalues --   -0.65138  -0.62881  -0.62473  -0.55928  -0.55612
 Alpha  occ. eigenvalues --   -0.54455  -0.53587  -0.53219  -0.52856  -0.49654
 Alpha  occ. eigenvalues --   -0.49636  -0.49230  -0.49223  -0.45680  -0.45251
 Alpha  occ. eigenvalues --   -0.38161  -0.38018  -0.37277  -0.36031
 Alpha virt. eigenvalues --    0.04195   0.04641   0.10486   0.10904   0.15594
 Alpha virt. eigenvalues --    0.16374   0.20122   0.21399   0.25520   0.27155
 Alpha virt. eigenvalues --    0.27712   0.28200   0.30194   0.30580   0.31666

 Mulliken charges:
               1
     1  C   -0.168801
     2  C   -0.218326
     3  C   -0.176196
     4  C    0.154679
     5  C   -0.178979
     6  C   -0.208009
     7  H    0.230755
     8  H    0.225667
     9  H    0.276121
    10  H    0.272229
    11  H    0.225952
    12  N    0.486339
    13  O   -0.461338
    14  O   -0.458431
    15  C   -0.163506
    16  C   -0.219145
    17  C   -0.173634
    18  C    0.157208
    19  C   -0.177569
    20  C   -0.217772
    21  H    0.229789
    22  H    0.223994
    23  H    0.275082
    24  H    0.274043
    25  H    0.223314
    26  N    0.487696
    27  O   -0.460914
    28  O   -0.460246
 Sum of Mulliken charges =  -0.00000

 Dipole moment (field-independent basis, Debye):
    X=              1.1206    Y=              2.3214    Z=              0.5105  Tot=              2.6278
 Quadrupole moment (field-independent basis, Debye-Ang):
   XX=           -156.0987   YY=            -99.6638   ZZ=            -97.9508
   XY=             12.6583   XZ=             -6.0271   YZ=              2.9539

 Normal termination of Gaussian 16 at Thu May  6 08:25:51 2021.
