 Gaussian 16, Revision A.03,
 Gaussian 16:  EM64L-G16RevA.03 25-Dec-2016

 -------------
 #p 6-31g* mp2
 -------------

 ------------------------------------------------------
 Input file generated by CHIRIPA (05-May-2021 14:55:23)
 ------------------------------------------------------
 Symbolic Z-matrix:
 Charge =  0 Multiplicity = 1

                         Standard orientation:
 ---------------------------------------------------------------------
 Center     Atomic      Atomic             Coordinates (Angstroms)
 Number     Number       Type             X           Y           Z
 ---------------------------------------------------------------------
      1          6           0       -0.881930   -2.268299    1.251537
      2          6           0       -1.898558   -1.544437    1.883212
      3          6           0       -2.612662   -0.566101    1.185027
      4          6           0       -2.282334   -0.336534   -0.149691
      5          6           0       -1.274832   -1.041083   -0.806837
      6          6           0       -0.573855   -2.014759   -0.089107
      7          1           0       -0.332296   -3.026484    1.801496
      8          1           0       -2.139976   -1.739209    2.924282
      9          1           0       -3.404457    0.008981    1.649525
     10          1           0       -1.056964   -0.824470   -1.845601
     11          1           0        0.215174   -2.575379   -0.582244
     12          7           0       -3.031375    0.696720   -0.899174
     13          8           0       -2.721114    0.880011   -2.074240
     14          8           0       -3.914551    1.303728   -0.297361
     15          6           0        2.761953   -0.113762    0.078474
     16          6           0        3.790682   -0.777146   -0.837836
     17          6           0        3.775738   -2.302703   -0.736608
     18          1           0        2.956465   -0.415691    1.116718
     19          1           0        1.760523   -0.489109   -0.173807
     20          1           0        4.789720   -0.399622   -0.584825
     21          1           0        3.593817   -0.473450   -1.873997
     22          1           0        2.791569   -2.697255   -1.009264
     23          1           0        3.994266   -2.623008    0.287233
     24          1           0        4.518768   -2.756362   -1.399902
     25          6           0        2.764786    1.411238   -0.011485
     26          6           0        1.736058    2.074622    0.904825
     27          6           0        1.751002    3.600179    0.803597
     28          1           0        3.766216    1.786585    0.240797
     29          1           0        2.570275    1.713168   -1.049729
     30          1           0        1.932922    1.770926    1.940986
     31          1           0        0.737019    1.697098    0.651814
     32          1           0        1.532473    3.920484   -0.220244
     33          1           0        2.735170    3.994731    1.076253
     34          1           0        1.007971    4.053838    1.466891
 ---------------------------------------------------------------------

 SCF Done:  E(RHF) =  -669.534675524     A.U. after   15 cycles
 E2 =    -0.2093861703D+01 EUMP2 =    -0.67162853722684D+03

 The electronic state is 1-A.
 Alpha  occ. eigenvalues --  -20.60836 -20.60830 -15.85892 -11.31288 -11.27844
 Alpha  occ. eigenvalues --  -11.27828 -11.27553 -11.26846 -11.26833 -11.22094
 Alpha  occ. eigenvalues --  -11.21882 -11.21663 -11.21647 -11.21527 -11.20997
 Alpha  occ. eigenvalues --   -1.59912  -1.39464  -1.19452  -1.08843  -1.08708
 Alpha  occ. eigenvalues --   -1.04861  -1.03837  -0.96295  -0.95665  -0.87315
 Alpha  occ. eigenvalues --   -0.86250  -0.82506  -0.79912  -0.78511  -0.77541
 Alpha  occ. eigenvalues --   -0.72106  -0.71237  -0.70533  -0.65428  -0.65093
 Alpha  occ. eigenvalues --   -0.64820  -0.62219  -0.61220  -0.59679  -0.57898
 Alpha  occ. eigenvalues --   -0.55628  -0.55329  -0.53269  -0.52966  -0.52949
 Alpha  occ. eigenvalues --   -0.52698  -0.50262  -0.48871  -0.48861  -0.48221
 Alpha  occ. eigenvalues --   -0.46947  -0.46032  -0.45930  -0.44862  -0.44057
 Alpha  occ. eigenvalues --   -0.37394  -0.36355
 Alpha virt. eigenvalues --    0.04970   0.11144   0.16365   0.19736   0.22899
 Alpha virt. eigenvalues --    0.23753   0.25544   0.26690   0.27438   0.28310
 Alpha virt. eigenvalues --    0.28744   0.29788   0.31292   0.31850   0.32109

 Mulliken charges:
               1
     1  C   -0.171246
     2  C   -0.217982
     3  C   -0.171054
     4  C    0.159447
     5  C   -0.173044
     6  C   -0.221192
     7  H    0.226779
     8  H    0.223919
     9  H    0.275986
    10  H    0.276018
    11  H    0.230680
    12  N    0.487855
    13  O   -0.460377
    14  O   -0.459979
    15  C   -0.306005
    16  C   -0.300025
    17  C   -0.476350
    18  H    0.146509
    19  H    0.154570
    20  H    0.154618
    21  H    0.153226
    22  H    0.144138
    23  H    0.155327
    24  H    0.164363
    25  C   -0.298168
    26  C   -0.300270
    27  C   -0.476227
    28  H    0.149488
    29  H    0.151586
    30  H    0.149360
    31  H    0.153632
    32  H    0.158722
    33  H    0.153971
    34  H    0.161727
 Sum of Mulliken charges =  -0.00000

 Dipole moment (field-independent basis, Debye):
    X=              2.5921    Y=             -3.5939    Z=              2.6650  Tot=              5.1708
 Quadrupole moment (field-independent basis, Debye-Ang):
   XX=           -105.3329   YY=            -93.9484   ZZ=            -91.8783
   XY=              7.0954   XZ=             -8.6611   YZ=              0.3492

 Normal termination of Gaussian 16 at Thu May  6 14:16:28 2021.
