 Gaussian 16, Revision A.03,
 Gaussian 16:  EM64L-G16RevA.03 25-Dec-2016

 -------------
 #p 6-31g* mp2
 -------------

 ------------------------------------------------------
 Input file generated by CHIRIPA (05-May-2021 14:53:13)
 ------------------------------------------------------
 Symbolic Z-matrix:
 Charge =  0 Multiplicity = 1

                         Standard orientation:
 ---------------------------------------------------------------------
 Center     Atomic      Atomic             Coordinates (Angstroms)
 Number     Number       Type             X           Y           Z
 ---------------------------------------------------------------------
      1          6           0       -2.192429    0.674193   -0.797233
      2          6           0       -2.156723    2.189189   -1.000943
      3          6           0       -1.008458    2.637099   -1.905740
      4          1           0       -1.235964    0.345690   -0.368041
      5          1           0       -2.281650    0.181705   -1.775440
      6          1           0       -2.068988    2.678719   -0.022536
      7          1           0       -3.113455    2.514150   -1.429521
      8          1           0       -1.094754    2.175546   -2.894741
      9          1           0       -0.044353    2.341050   -1.479762
     10          1           0       -1.001743    3.723550   -2.037803
     11          6           0       -3.334853    0.211006    0.105016
     12          6           0       -3.370559   -1.303990    0.308726
     13          6           0       -4.518824   -1.751901    1.213523
     14          1           0       -3.245632    0.703494    1.083224
     15          1           0       -4.291318    0.539509   -0.324175
     16          1           0       -2.413827   -1.628951    0.737304
     17          1           0       -3.458294   -1.793520   -0.669681
     18          1           0       -5.482929   -1.455852    0.787545
     19          1           0       -4.432528   -1.290347    2.202524
     20          1           0       -4.525539   -2.838351    1.345587
     21          6           0        2.089086    1.352379    2.135143
     22          6           0        3.175500    1.324093    1.254559
     23          6           0        3.224863    0.387557    0.217733
     24          6           0        2.165862   -0.509952    0.090120
     25          6           0        1.069737   -0.506920    0.951392
     26          6           0        1.041519    0.438394    1.981020
     27          1           0        2.058952    2.083313    2.937779
     28          1           0        3.990469    2.032693    1.371854
     29          1           0        4.053835    0.343469   -0.478170
     30          1           0        0.272230   -1.226071    0.809182
     31          1           0        0.196528    0.458034    2.663405
     32          7           0        2.206928   -1.506067   -1.003711
     33          8           0        1.261373   -2.285982   -1.094791
     34          8           0        3.183895   -1.488047   -1.749265
 ---------------------------------------------------------------------

 SCF Done:  E(RHF) =  -669.534768701     A.U. after   15 cycles
 E2 =    -0.2093766692D+01 EUMP2 =    -0.67162853539290D+03

 The electronic state is 1-A.
 Alpha  occ. eigenvalues --  -20.60802 -20.60794 -15.85856 -11.31268 -11.27842
 Alpha  occ. eigenvalues --  -11.27834 -11.27587 -11.26866 -11.26850 -11.21837
 Alpha  occ. eigenvalues --  -11.21704 -11.21603 -11.21382 -11.21270 -11.21085
 Alpha  occ. eigenvalues --   -1.59875  -1.39427  -1.19455  -1.08829  -1.08588
 Alpha  occ. eigenvalues --   -1.04867  -1.03668  -0.96109  -0.95660  -0.87123
 Alpha  occ. eigenvalues --   -0.86254  -0.82491  -0.79733  -0.78414  -0.77516
 Alpha  occ. eigenvalues --   -0.72073  -0.71200  -0.70563  -0.65311  -0.65082
 Alpha  occ. eigenvalues --   -0.64827  -0.62197  -0.61084  -0.59473  -0.57714
 Alpha  occ. eigenvalues --   -0.55436  -0.55324  -0.53219  -0.52966  -0.52788
 Alpha  occ. eigenvalues --   -0.52515  -0.50060  -0.48837  -0.48826  -0.48041
 Alpha  occ. eigenvalues --   -0.46789  -0.45922  -0.45852  -0.44807  -0.43919
 Alpha  occ. eigenvalues --   -0.37421  -0.36391
 Alpha virt. eigenvalues --    0.04973   0.11123   0.16426   0.19788   0.23038
 Alpha virt. eigenvalues --    0.23830   0.25163   0.26613   0.27500   0.28097
 Alpha virt. eigenvalues --    0.29776   0.30518   0.31302   0.31642   0.31804

 Mulliken charges:
               1
     1  C   -0.304578
     2  C   -0.298006
     3  C   -0.476949
     4  H    0.151212
     5  H    0.156033
     6  H    0.146881
     7  H    0.152419
     8  H    0.158816
     9  H    0.155799
    10  H    0.158671
    11  C   -0.298880
    12  C   -0.300446
    13  C   -0.475672
    14  H    0.142715
    15  H    0.151819
    16  H    0.145242
    17  H    0.159970
    18  H    0.156942
    19  H    0.151584
    20  H    0.162781
    21  C   -0.170525
    22  C   -0.218539
    23  C   -0.170748
    24  C    0.158992
    25  C   -0.177174
    26  C   -0.219895
    27  H    0.226132
    28  H    0.224020
    29  H    0.276186
    30  H    0.283312
    31  H    0.224083
    32  N    0.487955
    33  O   -0.459940
    34  O   -0.460213
 Sum of Mulliken charges =  -0.00000

 Dipole moment (field-independent basis, Debye):
    X=             -0.1208    Y=              3.4441    Z=              3.7473  Tot=              5.0911
 Quadrupole moment (field-independent basis, Debye-Ang):
   XX=            -91.5983   YY=            -98.6173   ZZ=            -93.8959
   XY=              9.6432   XZ=              8.2576   YZ=             -1.7418

 Normal termination of Gaussian 16 at Wed May  5 21:49:39 2021.
