 Gaussian 16, Revision A.03,
 Gaussian 16:  EM64L-G16RevA.03 25-Dec-2016

 -------------
 #p 6-31g* mp2
 -------------

 ------------------------------------------------------
 Input file generated by CHIRIPA (05-May-2021 14:51:13)
 ------------------------------------------------------
 Symbolic Z-matrix:
 Charge =  0 Multiplicity = 1

                         Standard orientation:
 ---------------------------------------------------------------------
 Center     Atomic      Atomic             Coordinates (Angstroms)
 Number     Number       Type             X           Y           Z
 ---------------------------------------------------------------------
      1          6           0       -3.333670   -0.116079   -0.345120
      2          6           0       -3.659293    1.140595    0.462794
      3          6           0       -4.647064    2.063340   -0.251800
      4          1           0       -2.922431    0.178934   -1.320207
      5          1           0       -4.264425   -0.662666   -0.550868
      6          1           0       -2.728037    1.683928    0.668143
      7          1           0       -4.069626    0.842554    1.436146
      8          1           0       -5.591172    1.543020   -0.442928
      9          1           0       -4.241960    2.389175   -1.215295
     10          1           0       -4.865776    2.955387    0.343412
     11          6           0       -2.347474   -1.048491    0.356131
     12          6           0       -2.021851   -2.305165   -0.451783
     13          6           0       -1.034080   -3.227910    0.262810
     14          1           0       -1.416719   -0.501905    0.561879
     15          1           0       -2.758713   -1.343505    1.331218
     16          1           0       -1.611518   -2.007124   -1.425135
     17          1           0       -2.953107   -2.848498   -0.657132
     18          1           0       -1.439184   -3.553745    1.226306
     19          1           0       -0.089972   -2.707591    0.453939
     20          1           0       -0.815368   -4.119957   -0.332401
     21          6           0        2.543380    1.194995    0.340463
     22          6           0        2.683760    2.480090   -0.476121
     23          6           0        2.084466    3.697115    0.229211
     24          1           0        1.479717    1.013836    0.547222
     25          1           0        3.032165    1.332768    1.314888
     26          1           0        2.196056    2.339461   -1.449252
     27          1           0        3.747197    2.658109   -0.681123
     28          1           0        2.577110    3.865524    1.192301
     29          1           0        1.017154    3.545066    0.419808
     30          1           0        2.195777    4.604796   -0.372107
     31          6           0        3.137765   -0.030425   -0.351474
     32          6           0        2.997384   -1.315520    0.465110
     33          6           0        3.596677   -2.532544   -0.240222
     34          1           0        2.648979   -0.168198   -1.325899
     35          1           0        4.201426    0.150734   -0.558233
     36          1           0        1.933947   -1.493539    0.670112
     37          1           0        3.485088   -1.174891    1.438241
     38          1           0        4.663989   -2.380496   -0.430818
     39          1           0        3.104034   -2.700954   -1.203312
     40          1           0        3.485367   -3.440226    0.361096
 ---------------------------------------------------------------------

 SCF Done:  E(RHF) =  -470.733399407     A.U. after   11 cycles
 E2 =    -0.1583098169D+01 EUMP2 =    -0.47231649757638D+03

 The electronic state is 1-A.
 Alpha  occ. eigenvalues --  -11.21645 -11.21643 -11.21638 -11.21627 -11.21456
 Alpha  occ. eigenvalues --  -11.21453 -11.21395 -11.21392 -11.21109 -11.21096
 Alpha  occ. eigenvalues --  -11.21081 -11.21077  -1.08484  -1.08463  -1.03584
 Alpha  occ. eigenvalues --   -1.03545  -0.96030  -0.95993  -0.87037  -0.87018
 Alpha  occ. eigenvalues --   -0.79672  -0.79586  -0.78327  -0.78246  -0.65216
 Alpha  occ. eigenvalues --   -0.65007  -0.61127  -0.60819  -0.59395  -0.59363
 Alpha  occ. eigenvalues --   -0.57672  -0.57575  -0.55415  -0.55186  -0.52707
 Alpha  occ. eigenvalues --   -0.52695  -0.52460  -0.52414  -0.50049  -0.49876
 Alpha  occ. eigenvalues --   -0.48051  -0.47860  -0.46832  -0.46504  -0.46016
 Alpha  occ. eigenvalues --   -0.45798  -0.45788  -0.45472  -0.43825  -0.43814
 Alpha virt. eigenvalues --    0.19819   0.22940   0.23676   0.24708   0.25284
 Alpha virt. eigenvalues --    0.26995   0.27025   0.27222   0.28336   0.29555
 Alpha virt. eigenvalues --    0.30371   0.31611   0.31717   0.31838   0.32001

 Mulliken charges:
               1
     1  C   -0.298314
     2  C   -0.299507
     3  C   -0.475753
     4  H    0.149520
     5  H    0.149871
     6  H    0.151381
     7  H    0.152208
     8  H    0.155288
     9  H    0.155195
    10  H    0.160489
    11  C   -0.299732
    12  C   -0.299182
    13  C   -0.483861
    14  H    0.149458
    15  H    0.150166
    16  H    0.151501
    17  H    0.152269
    18  H    0.155488
    19  H    0.162725
    20  H    0.160716
    21  C   -0.299575
    22  C   -0.299682
    23  C   -0.475616
    24  H    0.149706
    25  H    0.150027
    26  H    0.151793
    27  H    0.152259
    28  H    0.155432
    29  H    0.154793
    30  H    0.160461
    31  C   -0.297742
    32  C   -0.307763
    33  C   -0.475396
    34  H    0.149269
    35  H    0.150016
    36  H    0.158074
    37  H    0.152508
    38  H    0.155221
    39  H    0.155344
    40  H    0.160946
 Sum of Mulliken charges =  -0.00000

 Dipole moment (field-independent basis, Debye):
    X=              0.0079    Y=             -0.0086    Z=              0.0059  Tot=              0.0131
 Quadrupole moment (field-independent basis, Debye-Ang):
   XX=            -83.8519   YY=            -85.9935   ZZ=            -84.6846
   XY=              1.4764   XZ=             -0.0725   YZ=             -0.2184

 Normal termination of Gaussian 16 at Thu May  6 00:46:49 2021.
