 Gaussian 16, Revision A.03,
 Gaussian 16:  EM64L-G16RevA.03 25-Dec-2016

 -------------
 #p 6-31g* mp2
 -------------

 ------------------------------------------------------
 Input file generated by CHIRIPA (05-May-2021 14:55:19)
 ------------------------------------------------------
 Symbolic Z-matrix:
 Charge =  0 Multiplicity = 1

                         Standard orientation:
 ---------------------------------------------------------------------
 Center     Atomic      Atomic             Coordinates (Angstroms)
 Number     Number       Type             X           Y           Z
 ---------------------------------------------------------------------
      1          6           0        1.039515    1.206311    0.881645
      2          6           0        2.294980    1.822950    0.890835
      3          6           0        3.432821    1.123031    0.478549
      4          6           0        3.278077   -0.198071    0.061375
      5          6           0        2.040863   -0.840075    0.040848
      6          6           0        0.916680   -0.120895    0.457428
      7          1           0        0.160918    1.757506    1.203586
      8          1           0        2.393368    2.853562    1.219779
      9          1           0        4.416792    1.576032    0.475630
     10          1           0        1.974322   -1.868634   -0.292405
     11          1           0       -0.057069   -0.602341    0.449240
     12          7           0        4.475429   -0.949240   -0.377367
     13          8           0        4.312474   -2.112124   -0.740385
     14          8           0        5.554196   -0.360898   -0.349926
     15          6           0       -4.026255    0.843394   -0.299804
     16          6           0       -2.697996    1.577188   -0.487576
     17          6           0       -2.880342    3.073420   -0.744153
     18          1           0       -4.648610    0.990510   -1.193101
     19          1           0       -4.571997    1.296435    0.539430
     20          1           0       -2.154305    1.122004   -1.325326
     21          1           0       -2.078655    1.428149    0.406192
     22          1           0       -3.400768    3.547449    0.094331
     23          1           0       -3.476848    3.239566   -1.647025
     24          1           0       -1.918259    3.578404   -0.875471
     25          6           0       -3.860437   -0.653266   -0.042430
     26          6           0       -5.188697   -1.387059    0.145342
     27          6           0       -5.006349   -2.883291    0.401919
     28          1           0       -3.314695   -1.106307   -0.881664
     29          1           0       -3.238082   -0.800382    0.850867
     30          1           0       -5.808038   -1.238020   -0.748426
     31          1           0       -5.732387   -0.931876    0.983091
     32          1           0       -4.409844   -3.049437    1.304791
     33          1           0       -4.485924   -3.357321   -0.436565
     34          1           0       -5.968434   -3.388275    0.533237
 ---------------------------------------------------------------------

 SCF Done:  E(RHF) =  -669.535410307     A.U. after   15 cycles
 E2 =    -0.2091839568D+01 EUMP2 =    -0.67162724987509D+03

 The electronic state is 1-A.
 Alpha  occ. eigenvalues --  -20.60708 -20.60703 -15.85761 -11.31109 -11.27679
 Alpha  occ. eigenvalues --  -11.27667 -11.27383 -11.26688 -11.26648 -11.22793
 Alpha  occ. eigenvalues --  -11.22384 -11.22331 -11.22297 -11.22073 -11.21687
 Alpha  occ. eigenvalues --   -1.59784  -1.39338  -1.19277  -1.09386  -1.08672
 Alpha  occ. eigenvalues --   -1.04678  -1.04433  -0.96856  -0.95514  -0.87871
 Alpha  occ. eigenvalues --   -0.86075  -0.82349  -0.80528  -0.79213  -0.77393
 Alpha  occ. eigenvalues --   -0.71979  -0.71107  -0.70407  -0.66014  -0.64927
 Alpha  occ. eigenvalues --   -0.64677  -0.62031  -0.61824  -0.60241  -0.58484
 Alpha  occ. eigenvalues --   -0.56137  -0.55168  -0.53547  -0.53277  -0.53007
 Alpha  occ. eigenvalues --   -0.52763  -0.50791  -0.48819  -0.48737  -0.48731
 Alpha  occ. eigenvalues --   -0.47552  -0.46731  -0.46639  -0.44747  -0.44693
 Alpha  occ. eigenvalues --   -0.37245  -0.36282
 Alpha virt. eigenvalues --    0.05127   0.11342   0.16597   0.19370   0.22530
 Alpha virt. eigenvalues --    0.23273   0.24794   0.25461   0.26416   0.28329
 Alpha virt. eigenvalues --    0.29029   0.30654   0.30842   0.31093   0.31687

 Mulliken charges:
               1
     1  C   -0.173302
     2  C   -0.219065
     3  C   -0.171096
     4  C    0.158393
     5  C   -0.171709
     6  C   -0.221509
     7  H    0.229336
     8  H    0.223097
     9  H    0.275214
    10  H    0.275380
    11  H    0.227072
    12  N    0.488071
    13  O   -0.460664
    14  O   -0.460690
    15  C   -0.297929
    16  C   -0.304051
    17  C   -0.477201
    18  H    0.154235
    19  H    0.151633
    20  H    0.156825
    21  H    0.140494
    22  H    0.156643
    23  H    0.160844
    24  H    0.159768
    25  C   -0.300821
    26  C   -0.300122
    27  C   -0.476603
    28  H    0.150132
    29  H    0.144858
    30  H    0.154690
    31  H    0.153593
    32  H    0.154917
    33  H    0.156225
    34  H    0.163343
 Sum of Mulliken charges =  -0.00000

 Dipole moment (field-independent basis, Debye):
    X=             -4.4944    Y=              2.6586    Z=              1.4546  Tot=              5.4206
 Quadrupole moment (field-independent basis, Debye-Ang):
   XX=           -120.2563   YY=            -93.7211   ZZ=            -94.2007
   XY=             12.1872   XZ=              5.7473   YZ=              0.9772

 Normal termination of Gaussian 16 at Thu May  6 02:53:37 2021.
