 Gaussian 16, Revision A.03,
 Gaussian 16:  EM64L-G16RevA.03 25-Dec-2016

 -------------
 #p 6-31g* mp2
 -------------

 ------------------------------------------------------
 Input file generated by CHIRIPA (05-May-2021 14:51:09)
 ------------------------------------------------------
 Symbolic Z-matrix:
 Charge =  0 Multiplicity = 1

                         Standard orientation:
 ---------------------------------------------------------------------
 Center     Atomic      Atomic             Coordinates (Angstroms)
 Number     Number       Type             X           Y           Z
 ---------------------------------------------------------------------
      1          6           0        2.207393   -0.257732   -0.777471
      2          6           0        2.706147   -1.701271   -0.703808
      3          6           0        1.887305   -2.654787   -1.574496
      4          1           0        1.153467   -0.224465   -0.469123
      5          1           0        2.238163    0.080606   -1.822447
      6          1           0        2.675750   -2.036324    0.340908
      7          1           0        3.759063   -1.731077   -1.012184
      8          1           0        1.926972   -2.347699   -2.624602
      9          1           0        0.837504   -2.654680   -1.263822
     10          1           0        2.261022   -3.681247   -1.506851
     11          6           0        3.015939    0.707470    0.087610
     12          6           0        2.517184    2.151008    0.013947
     13          6           0        3.336027    3.104525    0.884635
     14          1           0        2.985168    0.369132    1.132586
     15          1           0        4.069865    0.674202   -0.220738
     16          1           0        1.464268    2.180815    0.322323
     17          1           0        2.547581    2.486061   -1.030769
     18          1           0        4.385828    3.104417    0.573961
     19          1           0        3.296360    2.797436    1.934741
     20          1           0        2.962310    4.130985    0.816990
     21          6           0       -1.983117   -0.380967    0.749890
     22          6           0       -1.790954   -1.873656    1.019961
     23          6           0       -0.529227   -2.170010    1.831141
     24          1           0       -1.103552    0.004878    0.216566
     25          1           0       -2.027740    0.155126    1.708017
     26          1           0       -1.748093   -2.406946    0.061639
     27          1           0       -2.671163   -2.256032    1.552535
     28          1           0       -0.567145   -1.663840    2.801170
     29          1           0        0.361169   -1.815610    1.301804
     30          1           0       -0.411426   -3.242869    2.012675
     31          6           0       -3.240215   -0.068770   -0.060029
     32          6           0       -3.432378    1.423918   -0.330100
     33          6           0       -4.694105    1.720272   -1.141280
     34          1           0       -3.195592   -0.604864   -1.018156
     35          1           0       -4.119781   -0.454616    0.473295
     36          1           0       -2.552169    1.806295   -0.862673
     37          1           0       -3.475239    1.957209    0.628222
     38          1           0       -5.584501    1.365873   -0.611944
     39          1           0       -4.656187    1.214102   -2.111309
     40          1           0       -4.811905    2.793132   -1.322813
 ---------------------------------------------------------------------

 SCF Done:  E(RHF) =  -470.732429699     A.U. after   11 cycles
 E2 =    -0.1585112850D+01 EUMP2 =    -0.47231754254916D+03

 The electronic state is 1-A.
 Alpha  occ. eigenvalues --  -11.21667 -11.21624 -11.21621 -11.21609 -11.21449
 Alpha  occ. eigenvalues --  -11.21425 -11.21386 -11.21365 -11.21093 -11.21093
 Alpha  occ. eigenvalues --  -11.21083 -11.21071  -1.08520  -1.08425  -1.03620
 Alpha  occ. eigenvalues --   -1.03507  -0.96041  -0.95979  -0.87042  -0.87015
 Alpha  occ. eigenvalues --   -0.79644  -0.79607  -0.78395  -0.78189  -0.65471
 Alpha  occ. eigenvalues --   -0.64827  -0.61314  -0.60616  -0.59406  -0.59344
 Alpha  occ. eigenvalues --   -0.57629  -0.57610  -0.55478  -0.55112  -0.52714
 Alpha  occ. eigenvalues --   -0.52685  -0.52475  -0.52395  -0.50022  -0.49921
 Alpha  occ. eigenvalues --   -0.48061  -0.47834  -0.46727  -0.46644  -0.46269
 Alpha  occ. eigenvalues --   -0.45788  -0.45750  -0.45159  -0.43822  -0.43803
 Alpha virt. eigenvalues --    0.19598   0.23047   0.23259   0.24554   0.25372
 Alpha virt. eigenvalues --    0.26352   0.26601   0.28218   0.28587   0.30153
 Alpha virt. eigenvalues --    0.30442   0.31341   0.31572   0.31824   0.32175

 Mulliken charges:
               1
     1  C   -0.310290
     2  C   -0.302433
     3  C   -0.478786
     4  H    0.158706
     5  H    0.149999
     6  H    0.153643
     7  H    0.153313
     8  H    0.155113
     9  H    0.157964
    10  H    0.160740
    11  C   -0.297748
    12  C   -0.300639
    13  C   -0.475720
    14  H    0.149978
    15  H    0.149959
    16  H    0.152745
    17  H    0.151711
    18  H    0.155175
    19  H    0.155430
    20  H    0.160310
    21  C   -0.307353
    22  C   -0.301189
    23  C   -0.484254
    24  H    0.156762
    25  H    0.149715
    26  H    0.152832
    27  H    0.152737
    28  H    0.155055
    29  H    0.164236
    30  H    0.160777
    31  C   -0.297579
    32  C   -0.299973
    33  C   -0.475748
    34  H    0.149821
    35  H    0.149865
    36  H    0.152353
    37  H    0.151861
    38  H    0.155187
    39  H    0.155359
    40  H    0.160366
 Sum of Mulliken charges =  -0.00000

 Dipole moment (field-independent basis, Debye):
    X=             -0.0005    Y=              0.0013    Z=              0.0021  Tot=              0.0025
 Quadrupole moment (field-independent basis, Debye-Ang):
   XX=            -85.0515   YY=            -85.5351   ZZ=            -84.0979
   XY=             -0.0272   XZ=             -1.7267   YZ=             -0.3138

 Normal termination of Gaussian 16 at Thu May  6 05:18:45 2021.
