 Gaussian 16, Revision A.03,
 Gaussian 16:  EM64L-G16RevA.03 25-Dec-2016

 -------------
 #p 6-31g* mp2
 -------------

 ------------------------------------------------------
 Input file generated by CHIRIPA (05-May-2021 14:57:26)
 ------------------------------------------------------
 Symbolic Z-matrix:
 Charge =  0 Multiplicity = 1

                         Standard orientation:
 ---------------------------------------------------------------------
 Center     Atomic      Atomic             Coordinates (Angstroms)
 Number     Number       Type             X           Y           Z
 ---------------------------------------------------------------------
      1          6           0        1.475928    2.464049    0.385738
      2          6           0        1.182700    1.376604    1.215196
      3          6           0        1.897753    0.180998    1.097832
      4          6           0        2.904039    0.107274    0.135936
      5          6           0        3.219753    1.173182   -0.705166
      6          6           0        2.491729    2.359053   -0.570111
      7          1           0        0.915420    3.389043    0.483781
      8          1           0        0.394351    1.455289    1.958405
      9          1           0        1.691537   -0.676342    1.727007
     10          1           0        4.011252    1.064645   -1.436717
     11          1           0        2.721633    3.201954   -1.215638
     12          7           0        3.667900   -1.153307    0.002324
     13          8           0        4.549683   -1.192846   -0.852973
     14          8           0        3.370368   -2.077942    0.755425
     15          6           0       -3.452789    2.115677   -0.108645
     16          6           0       -4.397707    1.121265    0.164844
     17          6           0       -4.035116   -0.228726    0.140367
     18          6           0       -2.712923   -0.550025   -0.162725
     19          6           0       -1.748498    0.417693   -0.439666
     20          6           0       -2.133526    1.761341   -0.409497
     21          1           0       -3.743174    3.161918   -0.087421
     22          1           0       -5.422984    1.393512    0.398799
     23          1           0       -4.746363   -1.018895    0.348161
     24          1           0       -0.734032    0.115376   -0.669623
     25          1           0       -1.397564    2.531483   -0.622306
     26          7           0       -2.317187   -1.975843   -0.191651
     27          8           0       -1.145935   -2.232797   -0.461427
     28          8           0       -3.185755   -2.809446    0.056003
 ---------------------------------------------------------------------

 SCF Done:  E(RHF) =  -868.335576445     A.U. after   16 cycles
 E2 =    -0.2603683103D+01 EUMP2 =    -0.87093925954871D+03

 The electronic state is 1-A.
 Alpha  occ. eigenvalues --  -20.60980 -20.60972 -20.60744 -20.60699 -15.86035
 Alpha  occ. eigenvalues --  -15.85788 -11.31528 -11.31522 -11.28140 -11.28099
 Alpha  occ. eigenvalues --  -11.28067 -11.28026 -11.27999 -11.27959 -11.27266
 Alpha  occ. eigenvalues --  -11.27203 -11.27196 -11.27167  -1.60054  -1.59788
 Alpha  occ. eigenvalues --   -1.39603  -1.39330  -1.19790  -1.19707  -1.09140
 Alpha  occ. eigenvalues --   -1.09083  -1.05266  -1.05072  -0.95924  -0.95854
 Alpha  occ. eigenvalues --   -0.86570  -0.86545  -0.82751  -0.82656  -0.77798
 Alpha  occ. eigenvalues --   -0.77592  -0.72242  -0.72004  -0.71393  -0.71111
 Alpha  occ. eigenvalues --   -0.70875  -0.70855  -0.65432  -0.65372  -0.65203
 Alpha  occ. eigenvalues --   -0.65088  -0.62566  -0.62433  -0.55802  -0.55647
 Alpha  occ. eigenvalues --   -0.53730  -0.53386  -0.53217  -0.53108  -0.49014
 Alpha  occ. eigenvalues --   -0.48993  -0.48794  -0.48730  -0.44977  -0.44654
 Alpha  occ. eigenvalues --   -0.37917  -0.37777  -0.37159  -0.36233
 Alpha virt. eigenvalues --    0.04649   0.04915   0.10768   0.10872   0.16095
 Alpha virt. eigenvalues --    0.16251   0.20095   0.21690   0.25887   0.27000
 Alpha virt. eigenvalues --    0.27885   0.28460   0.30279   0.31524   0.32336

 Mulliken charges:
               1
     1  C   -0.181794
     2  C   -0.223203
     3  C   -0.170213
     4  C    0.161396
     5  C   -0.171142
     6  C   -0.219050
     7  H    0.220384
     8  H    0.227644
     9  H    0.284003
    10  H    0.278044
    11  H    0.223923
    12  N    0.488599
    13  O   -0.460456
    14  O   -0.452351
    15  C   -0.171440
    16  C   -0.219169
    17  C   -0.170301
    18  C    0.155832
    19  C   -0.173553
    20  C   -0.224830
    21  H    0.224387
    22  H    0.224404
    23  H    0.277159
    24  H    0.282922
    25  H    0.217790
    26  N    0.487529
    27  O   -0.457530
    28  O   -0.458983
 Sum of Mulliken charges =  -0.00000

 Dipole moment (field-independent basis, Debye):
    X=             -3.8805    Y=              9.0869    Z=              0.6282  Tot=              9.9007
 Quadrupole moment (field-independent basis, Debye-Ang):
   XX=           -107.0212   YY=           -109.7538   ZZ=           -102.7811
   XY=              2.2130   XZ=             -2.5018   YZ=             -2.3803

 Normal termination of Gaussian 16 at Fri May  7 12:44:46 2021.
