 Gaussian 16, Revision A.03,
 Gaussian 16:  EM64L-G16RevA.03 25-Dec-2016

 -------------
 #p 6-31g* mp2
 -------------

 ------------------------------------------------------
 Input file generated by CHIRIPA (05-May-2021 14:51:13)
 ------------------------------------------------------
 Symbolic Z-matrix:
 Charge =  0 Multiplicity = 1

                         Standard orientation:
 ---------------------------------------------------------------------
 Center     Atomic      Atomic             Coordinates (Angstroms)
 Number     Number       Type             X           Y           Z
 ---------------------------------------------------------------------
      1          6           0       -3.415496   -0.375973    0.267176
      2          6           0       -3.861110    0.346634   -1.004536
      3          6           0       -5.368469    0.250174   -1.241933
      4          1           0       -3.711325   -1.432115    0.203962
      5          1           0       -3.951051    0.047648    1.128059
      6          1           0       -3.323850   -0.077289   -1.862591
      7          1           0       -3.564016    1.401136   -0.938371
      8          1           0       -5.919294    0.690845   -0.404675
      9          1           0       -5.677763   -0.795979   -1.334146
     10          1           0       -5.665192    0.773527   -2.156219
     11          6           0       -1.911140   -0.288490    0.518152
     12          6           0       -1.465526   -1.011097    1.789864
     13          6           0        0.041833   -0.914637    2.027262
     14          1           0       -1.375585   -0.712111   -0.342731
     15          1           0       -1.615311    0.767651    0.581366
     16          1           0       -1.762619   -2.065599    1.723699
     17          1           0       -2.002786   -0.587175    2.647919
     18          1           0        0.351127    0.131516    2.119474
     19          1           0        0.592658   -1.355308    1.190003
     20          1           0        0.338556   -1.437990    2.941547
     21          6           0        3.033150   -0.316715   -0.232901
     22          6           0        2.674007   -1.466851   -1.174277
     23          6           0        3.421949   -2.758333   -0.841932
     24          1           0        4.116019   -0.137436   -0.279790
     25          1           0        2.810186   -0.615002    0.800882
     26          1           0        2.896289   -1.165971   -2.206110
     27          1           0        1.591840   -1.643287   -1.125285
     28          1           0        3.192021   -3.085286    0.177301
     29          1           0        4.503883   -2.605259   -0.909664
     30          1           0        3.150214   -3.567333   -1.527161
     31          6           0        2.293486    0.981179   -0.552427
     32          6           0        2.652629    2.131315    0.388949
     33          6           0        1.904687    3.422796    0.056603
     34          1           0        2.516450    1.279464   -1.586210
     35          1           0        1.210617    0.801899   -0.505537
     36          1           0        3.734796    2.307750    0.339958
     37          1           0        2.430346    1.830435    1.420782
     38          1           0        0.822753    3.269721    0.124335
     39          1           0        2.134615    3.749749   -0.962630
     40          1           0        2.176422    4.231796    0.741833
 ---------------------------------------------------------------------

 SCF Done:  E(RHF) =  -470.732160050     A.U. after   11 cycles
 E2 =    -0.1585345596D+01 EUMP2 =    -0.47231750564615D+03

 The electronic state is 1-A.
 Alpha  occ. eigenvalues --  -11.21685 -11.21642 -11.21593 -11.21545 -11.21500
 Alpha  occ. eigenvalues --  -11.21426 -11.21272 -11.21212 -11.21133 -11.21100
 Alpha  occ. eigenvalues --  -11.21067 -11.21052  -1.08531  -1.08350  -1.03603
 Alpha  occ. eigenvalues --   -1.03499  -0.96083  -0.95912  -0.87094  -0.86946
 Alpha  occ. eigenvalues --   -0.79685  -0.79555  -0.78353  -0.78152  -0.65206
 Alpha  occ. eigenvalues --   -0.65011  -0.61230  -0.60703  -0.59418  -0.59304
 Alpha  occ. eigenvalues --   -0.57662  -0.57543  -0.55365  -0.55211  -0.52752
 Alpha  occ. eigenvalues --   -0.52644  -0.52466  -0.52352  -0.50185  -0.49693
 Alpha  occ. eigenvalues --   -0.47999  -0.47888  -0.46666  -0.46611  -0.46128
 Alpha  occ. eigenvalues --   -0.45778  -0.45610  -0.45347  -0.43853  -0.43725
 Alpha virt. eigenvalues --    0.19884   0.22464   0.23008   0.24293   0.25853
 Alpha virt. eigenvalues --    0.26042   0.26647   0.27948   0.28688   0.29779
 Alpha virt. eigenvalues --    0.30550   0.30768   0.31533   0.31824   0.32362

 Mulliken charges:
               1
     1  C   -0.298326
     2  C   -0.299795
     3  C   -0.475779
     4  H    0.149983
     5  H    0.149910
     6  H    0.152236
     7  H    0.152096
     8  H    0.155254
     9  H    0.155248
    10  H    0.160525
    11  C   -0.301413
    12  C   -0.299834
    13  C   -0.484950
    14  H    0.150859
    15  H    0.150013
    16  H    0.152228
    17  H    0.152185
    18  H    0.158015
    19  H    0.163378
    20  H    0.160344
    21  C   -0.303481
    22  C   -0.303084
    23  C   -0.476075
    24  H    0.149849
    25  H    0.155842
    26  H    0.152687
    27  H    0.151568
    28  H    0.155395
    29  H    0.155673
    30  H    0.159937
    31  C   -0.302524
    32  C   -0.301819
    33  C   -0.475895
    34  H    0.148932
    35  H    0.155921
    36  H    0.151949
    37  H    0.153171
    38  H    0.154407
    39  H    0.155408
    40  H    0.159962
 Sum of Mulliken charges =  -0.00000

 Dipole moment (field-independent basis, Debye):
    X=             -0.0316    Y=             -0.0190    Z=              0.0203  Tot=              0.0421
 Quadrupole moment (field-independent basis, Debye-Ang):
   XX=            -85.5276   YY=            -85.0553   ZZ=            -84.2265
   XY=              0.5493   XZ=             -0.8730   YZ=              0.3851

 Normal termination of Gaussian 16 at Thu May  6 05:33:09 2021.
