 Gaussian 16, Revision A.03,
 Gaussian 16:  EM64L-G16RevA.03 25-Dec-2016

 -------------
 #p 6-31g* mp2
 -------------

 ------------------------------------------------------
 Input file generated by CHIRIPA (05-May-2021 14:55:21)
 ------------------------------------------------------
 Symbolic Z-matrix:
 Charge =  0 Multiplicity = 1

                         Standard orientation:
 ---------------------------------------------------------------------
 Center     Atomic      Atomic             Coordinates (Angstroms)
 Number     Number       Type             X           Y           Z
 ---------------------------------------------------------------------
      1          6           0       -0.481153   -0.394875    0.379321
      2          6           0       -1.351479   -1.395707    0.823606
      3          6           0       -2.731967   -1.267354    0.643803
      4          6           0       -3.209961   -0.119840    0.012913
      5          6           0       -2.368423    0.894680   -0.440798
      6          6           0       -0.991503    0.745114   -0.250353
      7          1           0        0.589857   -0.502822    0.523129
      8          1           0       -0.957954   -2.282121    1.312945
      9          1           0       -3.428324   -2.026841    0.977996
     10          1           0       -2.790413    1.766884   -0.925156
     11          1           0       -0.317962    1.523979   -0.596414
     12          7           0       -4.669532    0.027270   -0.183069
     13          8           0       -5.065567    1.047871   -0.741788
     14          8           0       -5.389873   -0.880812    0.225750
     15          6           0        3.489072    0.837819   -0.301422
     16          6           0        3.661987    1.995769    0.682060
     17          6           0        3.033004    3.296092    0.180728
     18          1           0        3.935716    1.114723   -1.266191
     19          1           0        2.417527    0.680262   -0.486788
     20          1           0        4.732837    2.150194    0.866584
     21          1           0        3.215049    1.716002    1.644657
     22          1           0        1.958856    3.165319    0.014279
     23          1           0        3.485268    3.601978   -0.768215
     24          1           0        3.168299    4.110588    0.899165
     25          6           0        4.112606   -0.468960    0.185676
     26          6           0        3.939691   -1.626911   -0.797807
     27          6           0        4.568674   -2.927234   -0.296475
     28          1           0        5.184152   -0.311404    0.371042
     29          1           0        3.665962   -0.745865    1.150444
     30          1           0        4.386629   -1.347143   -1.760404
     31          1           0        2.868841   -1.781336   -0.982330
     32          1           0        4.116410   -3.233120    0.652468
     33          1           0        5.642821   -2.796461   -0.130025
     34          1           0        4.433379   -3.741730   -1.014912
 ---------------------------------------------------------------------

 SCF Done:  E(RHF) =  -669.535239518     A.U. after   15 cycles
 E2 =    -0.2092242748D+01 EUMP2 =    -0.67162748226696D+03

 The electronic state is 1-A.
 Alpha  occ. eigenvalues --  -20.60750 -20.60745 -15.85804 -11.31175 -11.27745
 Alpha  occ. eigenvalues --  -11.27741 -11.27465 -11.26762 -11.26751 -11.22694
 Alpha  occ. eigenvalues --  -11.22638 -11.22626 -11.22503 -11.22119 -11.21932
 Alpha  occ. eigenvalues --   -1.59826  -1.39379  -1.19347  -1.09577  -1.08741
 Alpha  occ. eigenvalues --   -1.04753  -1.04568  -0.97025  -0.95578  -0.88031
 Alpha  occ. eigenvalues --   -0.86153  -0.82411  -0.80627  -0.79390  -0.77454
 Alpha  occ. eigenvalues --   -0.72023  -0.71149  -0.70507  -0.66245  -0.64998
 Alpha  occ. eigenvalues --   -0.64737  -0.62152  -0.61920  -0.60375  -0.58626
 Alpha  occ. eigenvalues --   -0.56400  -0.55195  -0.53663  -0.53433  -0.53078
 Alpha  occ. eigenvalues --   -0.52847  -0.50976  -0.48938  -0.48778  -0.48776
 Alpha  occ. eigenvalues --   -0.47678  -0.46895  -0.46860  -0.44849  -0.44784
 Alpha  occ. eigenvalues --   -0.37325  -0.36355
 Alpha virt. eigenvalues --    0.05069   0.11274   0.16497   0.17755   0.21466
 Alpha virt. eigenvalues --    0.23533   0.25086   0.25317   0.26367   0.28045
 Alpha virt. eigenvalues --    0.29393   0.30789   0.30927   0.31353   0.32154

 Mulliken charges:
               1
     1  C   -0.177286
     2  C   -0.219185
     3  C   -0.170703
     4  C    0.158500
     5  C   -0.171101
     6  C   -0.223983
     7  H    0.233244
     8  H    0.223481
     9  H    0.275547
    10  H    0.275924
    11  H    0.227515
    12  N    0.488016
    13  O   -0.460362
    14  O   -0.460448
    15  C   -0.303165
    16  C   -0.300922
    17  C   -0.476836
    18  H    0.155944
    19  H    0.139876
    20  H    0.157197
    21  H    0.151952
    22  H    0.148763
    23  H    0.158810
    24  H    0.165866
    25  C   -0.300623
    26  C   -0.301233
    27  C   -0.475964
    28  H    0.155459
    29  H    0.146204
    30  H    0.156360
    31  H    0.147510
    32  H    0.153678
    33  H    0.158287
    34  H    0.163678
 Sum of Mulliken charges =  -0.00000

 Dipole moment (field-independent basis, Debye):
    X=              5.4304    Y=             -0.4871    Z=              0.6714  Tot=              5.4934
 Quadrupole moment (field-independent basis, Debye-Ang):
   XX=           -126.2600   YY=            -91.3785   ZZ=            -94.2645
   XY=              2.6029   XZ=             -3.1488   YZ=             -2.1854

 Normal termination of Gaussian 16 at Thu May  6 01:26:18 2021.
