 Gaussian 16, Revision A.03,
 Gaussian 16:  EM64L-G16RevA.03 25-Dec-2016

 -------------
 #p 6-31g* mp2
 -------------

 ------------------------------------------------------
 Input file generated by CHIRIPA (05-May-2021 14:57:24)
 ------------------------------------------------------
 Symbolic Z-matrix:
 Charge =  0 Multiplicity = 1

                         Standard orientation:
 ---------------------------------------------------------------------
 Center     Atomic      Atomic             Coordinates (Angstroms)
 Number     Number       Type             X           Y           Z
 ---------------------------------------------------------------------
      1          6           0       -3.513109   -2.275720   -0.571964
      2          6           0       -2.996557   -2.049108    0.708014
      3          6           0       -2.690836   -0.752095    1.130906
      4          6           0       -2.915173    0.299736    0.243994
      5          6           0       -3.428646    0.106189   -1.037480
      6          6           0       -3.727127   -1.199246   -1.439097
      7          1           0       -3.747788   -3.286543   -0.892213
      8          1           0       -2.829320   -2.883199    1.383565
      9          1           0       -2.289896   -0.548219    2.116351
     10          1           0       -3.584533    0.957814   -1.688521
     11          1           0       -4.128179   -1.372254   -2.433717
     12          7           0       -2.595352    1.677284    0.680429
     13          8           0       -2.802131    2.586928   -0.119839
     14          8           0       -2.143953    1.821279    1.814511
     15          6           0        5.433281   -0.289337    0.318655
     16          6           0        4.969261    0.754720   -0.488285
     17          6           0        3.605401    0.884506   -0.766832
     18          6           0        2.729538   -0.051756   -0.219505
     19          6           0        3.161086   -1.102902    0.588053
     20          6           0        4.529306   -1.213187    0.853305
     21          1           0        6.494455   -0.382583    0.529872
     22          1           0        5.669008    1.473656   -0.904856
     23          1           0        3.219026    1.683139   -1.388375
     24          1           0        2.439386   -1.804167    0.989042
     25          1           0        4.886825   -2.025026    1.480316
     26          7           0        1.283372    0.075320   -0.507353
     27          8           0        0.532132   -0.762534   -0.013110
     28          8           0        0.928491    1.010370   -1.221760
 ---------------------------------------------------------------------

 SCF Done:  E(RHF) =  -868.338017535     A.U. after   16 cycles
 E2 =    -0.2600620978D+01 EUMP2 =    -0.87093863851325D+03

 The electronic state is 1-A.
 Alpha  occ. eigenvalues --  -20.60832 -20.60784 -20.59316 -20.59286 -15.85839
 Alpha  occ. eigenvalues --  -15.84356 -11.31162 -11.29542 -11.27759 -11.27700
 Alpha  occ. eigenvalues --  -11.27473 -11.26758 -11.26719 -11.26203 -11.26199
 Alpha  occ. eigenvalues --  -11.26042 -11.25254 -11.25238  -1.59874  -1.58362
 Alpha  occ. eigenvalues --   -1.39429  -1.37931  -1.19333  -1.17754  -1.08739
 Alpha  occ. eigenvalues --   -1.07214  -1.04734  -1.03200  -0.95583  -0.94077
 Alpha  occ. eigenvalues --   -0.86134  -0.84631  -0.82418  -0.80948  -0.77471
 Alpha  occ. eigenvalues --   -0.75978  -0.72074  -0.71182  -0.70618  -0.70450
 Alpha  occ. eigenvalues --   -0.69625  -0.69003  -0.64992  -0.64743  -0.63485
 Alpha  occ. eigenvalues --   -0.63297  -0.62085  -0.60603  -0.55247  -0.53812
 Alpha  occ. eigenvalues --   -0.53059  -0.52833  -0.51524  -0.51373  -0.48826
 Alpha  occ. eigenvalues --   -0.48747  -0.47358  -0.47348  -0.44845  -0.43382
 Alpha  occ. eigenvalues --   -0.37312  -0.36333  -0.35712  -0.34718
 Alpha virt. eigenvalues --    0.05064   0.06618   0.11323   0.12908   0.16579
 Alpha virt. eigenvalues --    0.18091   0.21442   0.22693   0.27344   0.28328
 Alpha virt. eigenvalues --    0.28570   0.29592   0.30991   0.32152   0.32556

 Mulliken charges:
               1
     1  C   -0.169739
     2  C   -0.216358
     3  C   -0.153280
     4  C    0.170145
     5  C   -0.165518
     6  C   -0.218943
     7  H    0.218344
     8  H    0.215147
     9  H    0.269293
    10  H    0.272211
    11  H    0.216933
    12  N    0.490384
    13  O   -0.462430
    14  O   -0.467859
    15  C   -0.170556
    16  C   -0.218491
    17  C   -0.169712
    18  C    0.159462
    19  C   -0.170418
    20  C   -0.218423
    21  H    0.225590
    22  H    0.224140
    23  H    0.277695
    24  H    0.272532
    25  H    0.222520
    26  N    0.490453
    27  O   -0.466676
    28  O   -0.456447
 Sum of Mulliken charges =  -0.00000

 Dipole moment (field-independent basis, Debye):
    X=              4.2761    Y=             -5.1480    Z=             -0.5919  Tot=              6.7184
 Quadrupole moment (field-independent basis, Debye-Ang):
   XX=            -72.0699   YY=           -105.1826   ZZ=           -101.6152
   XY=             12.5199   XZ=              6.8944   YZ=             -6.2754

 Normal termination of Gaussian 16 at Thu May  6 13:01:10 2021.
