 Gaussian 16, Revision A.03,
 Gaussian 16:  EM64L-G16RevA.03 25-Dec-2016

 -------------
 #p 6-31g* mp2
 -------------

 ------------------------------------------------------
 Input file generated by CHIRIPA (05-May-2021 14:53:14)
 ------------------------------------------------------
 Symbolic Z-matrix:
 Charge =  0 Multiplicity = 1

                         Standard orientation:
 ---------------------------------------------------------------------
 Center     Atomic      Atomic             Coordinates (Angstroms)
 Number     Number       Type             X           Y           Z
 ---------------------------------------------------------------------
      1          6           0        3.380089   -0.568255    0.017960
      2          6           0        2.288968   -0.510882   -1.051689
      3          6           0        1.101564   -1.420340   -0.734273
      4          1           0        3.728123   -1.605032    0.122414
      5          1           0        2.948453   -0.284239    0.987713
      6          1           0        2.722852   -0.793584   -2.019387
      7          1           0        1.943625    0.525911   -1.153743
      8          1           0        0.642142   -1.135853    0.217882
      9          1           0        1.425796   -2.462845   -0.652680
     10          1           0        0.333448   -1.363813   -1.511873
     11          6           0        4.573782    0.335576   -0.285215
     12          6           0        5.664902    0.278202    0.784434
     13          6           0        6.852306    1.187661    0.467018
     14          1           0        5.005418    0.051560   -1.254968
     15          1           0        4.225747    1.372353   -0.389669
     16          1           0        6.010245   -0.758590    0.886488
     17          1           0        5.231018    0.560904    1.752132
     18          1           0        6.528074    2.230166    0.385425
     19          1           0        7.311729    0.903174   -0.485137
     20          1           0        7.620423    1.131134    1.244618
     21          6           0       -2.587755   -2.357024    0.426956
     22          6           0       -2.955487   -1.569151    1.522652
     23          6           0       -3.245399   -0.211721    1.355671
     24          6           0       -3.157177    0.327545    0.073213
     25          6           0       -2.793608   -0.431328   -1.038191
     26          6           0       -2.508128   -1.786603   -0.847721
     27          1           0       -2.364266   -3.410671    0.565794
     28          1           0       -3.018148   -2.009459    2.513735
     29          1           0       -3.532567    0.421258    2.186509
     30          1           0       -2.739806    0.035912   -2.014003
     31          1           0       -2.222802   -2.396061   -1.700478
     32          7           0       -3.461748    1.763456   -0.115996
     33          8           0       -3.376711    2.214641   -1.256100
     34          8           0       -3.779740    2.410546    0.879389
 ---------------------------------------------------------------------

 SCF Done:  E(RHF) =  -669.534810361     A.U. after   15 cycles
 E2 =    -0.2092160923D+01 EUMP2 =    -0.67162697128332D+03

 The electronic state is 1-A.
 Alpha  occ. eigenvalues --  -20.60774 -20.60769 -15.85827 -11.31192 -11.27749
 Alpha  occ. eigenvalues --  -11.27733 -11.27477 -11.26783 -11.26753 -11.21785
 Alpha  occ. eigenvalues --  -11.21690 -11.21558 -11.21463 -11.21367 -11.21122
 Alpha  occ. eigenvalues --   -1.59850  -1.39403  -1.19361  -1.08757  -1.08571
 Alpha  occ. eigenvalues --   -1.04772  -1.03685  -0.96149  -0.95589  -0.87178
 Alpha  occ. eigenvalues --   -0.86157  -0.82427  -0.79756  -0.78381  -0.77475
 Alpha  occ. eigenvalues --   -0.72045  -0.71173  -0.70459  -0.65200  -0.65014
 Alpha  occ. eigenvalues --   -0.64779  -0.62126  -0.61084  -0.59541  -0.57760
 Alpha  occ. eigenvalues --   -0.55457  -0.55257  -0.53412  -0.52885  -0.52571
 Alpha  occ. eigenvalues --   -0.52510  -0.50062  -0.48804  -0.48800  -0.48074
 Alpha  occ. eigenvalues --   -0.46771  -0.45925  -0.45841  -0.44809  -0.43960
 Alpha  occ. eigenvalues --   -0.37309  -0.36292
 Alpha virt. eigenvalues --    0.05043   0.11260   0.16468   0.21105   0.22761
 Alpha virt. eigenvalues --    0.24146   0.26508   0.26590   0.27343   0.28203
 Alpha virt. eigenvalues --    0.28328   0.30497   0.31202   0.31809   0.32389

 Mulliken charges:
               1
     1  C   -0.298495
     2  C   -0.300588
     3  C   -0.474808
     4  H    0.148029
     5  H    0.149803
     6  H    0.151081
     7  H    0.155683
     8  H    0.158884
     9  H    0.149620
    10  H    0.154868
    11  C   -0.298650
    12  C   -0.299711
    13  C   -0.475864
    14  H    0.149442
    15  H    0.151758
    16  H    0.151051
    17  H    0.152164
    18  H    0.156347
    19  H    0.155133
    20  H    0.160319
    21  C   -0.170374
    22  C   -0.219184
    23  C   -0.171794
    24  C    0.158667
    25  C   -0.171135
    26  C   -0.213003
    27  H    0.225925
    28  H    0.223487
    29  H    0.275444
    30  H    0.275287
    31  H    0.223566
    32  N    0.488013
    33  O   -0.460439
    34  O   -0.460526
 Sum of Mulliken charges =  -0.00000

 Dipole moment (field-independent basis, Debye):
    X=              1.0616    Y=             -5.0420    Z=              0.6888  Tot=              5.1984
 Quadrupole moment (field-independent basis, Debye-Ang):
   XX=           -102.8684   YY=            -98.5176   ZZ=            -89.7135
   XY=             15.7336   XZ=             -3.2153   YZ=              0.7252

 Normal termination of Gaussian 16 at Thu May  6 20:21:01 2021.
