 Gaussian 16, Revision A.03,
 Gaussian 16:  EM64L-G16RevA.03 25-Dec-2016

 -------------
 #p 6-31g* mp2
 -------------

 ------------------------------------------------------
 Input file generated by CHIRIPA (05-May-2021 14:55:24)
 ------------------------------------------------------
 Symbolic Z-matrix:
 Charge =  0 Multiplicity = 1

                         Standard orientation:
 ---------------------------------------------------------------------
 Center     Atomic      Atomic             Coordinates (Angstroms)
 Number     Number       Type             X           Y           Z
 ---------------------------------------------------------------------
      1          6           0        2.743558    2.185493   -0.671772
      2          6           0        1.444413    1.691013   -0.516102
      3          6           0        1.230678    0.355256   -0.163087
      4          6           0        2.344018   -0.461748    0.027352
      5          6           0        3.650559    0.001338   -0.120275
      6          6           0        3.840550    1.340567   -0.473711
      7          1           0        2.900370    3.224490   -0.946166
      8          1           0        0.590589    2.344898   -0.669282
      9          1           0        0.235662   -0.053652   -0.035981
     10          1           0        4.481831   -0.674673    0.039141
     11          1           0        4.850609    1.721851   -0.593915
     12          7           0        2.130315   -1.877691    0.401296
     13          8           0        3.127938   -2.577054    0.563400
     14          8           0        0.969237   -2.261334    0.525209
     15          6           0       -3.050972   -0.453344    0.209317
     16          6           0       -3.785967   -1.299726   -0.830591
     17          6           0       -3.788476   -2.789295   -0.485667
     18          1           0       -2.016493   -0.811954    0.299847
     19          1           0       -3.520554   -0.602440    1.191487
     20          1           0       -3.316004   -1.148011   -1.810760
     21          1           0       -4.818762   -0.938936   -0.918793
     22          1           0       -4.275802   -2.960374    0.479654
     23          1           0       -2.764506   -3.170637   -0.417381
     24          1           0       -4.319130   -3.375682   -1.242250
     25          6           0       -3.039881    1.038005   -0.121564
     26          6           0       -2.304886    1.884385    0.918343
     27          6           0       -2.302377    3.373955    0.573421
     28          1           0       -2.570298    1.187101   -1.103733
     29          1           0       -4.074361    1.396614   -0.212093
     30          1           0       -1.272090    1.523597    1.006547
     31          1           0       -2.774848    1.732671    1.898514
     32          1           0       -3.326348    3.755297    0.505134
     33          1           0       -1.815051    3.545035   -0.391901
     34          1           0       -1.771723    3.960342    1.330002
 ---------------------------------------------------------------------

 SCF Done:  E(RHF) =  -669.534847035     A.U. after   15 cycles
 E2 =    -0.2093951769D+01 EUMP2 =    -0.67162879880363D+03

 The electronic state is 1-A.
 Alpha  occ. eigenvalues --  -20.60834 -20.60829 -15.85880 -11.31209 -11.27782
 Alpha  occ. eigenvalues --  -11.27745 -11.27509 -11.26793 -11.26753 -11.22276
 Alpha  occ. eigenvalues --  -11.21904 -11.21863 -11.21550 -11.21486 -11.20672
 Alpha  occ. eigenvalues --   -1.59903  -1.39459  -1.19385  -1.08797  -1.08768
 Alpha  occ. eigenvalues --   -1.04791  -1.03804  -0.96253  -0.95625  -0.87263
 Alpha  occ. eigenvalues --   -0.86183  -0.82467  -0.79926  -0.78516  -0.77503
 Alpha  occ. eigenvalues --   -0.72103  -0.71222  -0.70518  -0.65548  -0.65018
 Alpha  occ. eigenvalues --   -0.64809  -0.62166  -0.61101  -0.59670  -0.57825
 Alpha  occ. eigenvalues --   -0.55583  -0.55280  -0.53122  -0.52962  -0.52847
 Alpha  occ. eigenvalues --   -0.52613  -0.50219  -0.48860  -0.48850  -0.48191
 Alpha  occ. eigenvalues --   -0.46996  -0.46008  -0.45895  -0.44869  -0.44054
 Alpha  occ. eigenvalues --   -0.37361  -0.36363
 Alpha virt. eigenvalues --    0.04984   0.11261   0.16409   0.18785   0.23067
 Alpha virt. eigenvalues --    0.23400   0.25322   0.26170   0.27615   0.28481
 Alpha virt. eigenvalues --    0.29775   0.30927   0.31341   0.31833   0.32855

 Mulliken charges:
               1
     1  C   -0.171579
     2  C   -0.227330
     3  C   -0.179685
     4  C    0.155485
     5  C   -0.169753
     6  C   -0.219008
     7  H    0.226263
     8  H    0.231967
     9  H    0.291257
    10  H    0.275680
    11  H    0.223597
    12  N    0.487684
    13  O   -0.459555
    14  O   -0.464054
    15  C   -0.310611
    16  C   -0.298642
    17  C   -0.479093
    18  H    0.161665
    19  H    0.153397
    20  H    0.150532
    21  H    0.150527
    22  H    0.154889
    23  H    0.168401
    24  H    0.159058
    25  C   -0.300782
    26  C   -0.306984
    27  C   -0.477839
    28  H    0.144176
    29  H    0.153330
    30  H    0.147270
    31  H    0.159377
    32  H    0.161148
    33  H    0.146797
    34  H    0.162415
 Sum of Mulliken charges =  -0.00000

 Dipole moment (field-independent basis, Debye):
    X=              0.6726    Y=              4.8672    Z=             -1.2378  Tot=              5.0670
 Quadrupole moment (field-independent basis, Debye-Ang):
   XX=            -85.0285   YY=           -100.8464   ZZ=            -95.4383
   XY=             10.5847   XZ=             -3.7841   YZ=              0.9898

 Normal termination of Gaussian 16 at Thu May  6 14:19:39 2021.
