 Gaussian 16, Revision A.03,
 Gaussian 16:  EM64L-G16RevA.03 25-Dec-2016

 -------------
 #p 6-31g* mp2
 -------------

 ------------------------------------------------------
 Input file generated by CHIRIPA (05-May-2021 14:57:25)
 ------------------------------------------------------
 Symbolic Z-matrix:
 Charge =  0 Multiplicity = 1

                         Standard orientation:
 ---------------------------------------------------------------------
 Center     Atomic      Atomic             Coordinates (Angstroms)
 Number     Number       Type             X           Y           Z
 ---------------------------------------------------------------------
      1          6           0        0.672342   -2.276320   -0.665729
      2          6           0        1.572903   -1.704299   -1.570331
      3          6           0        2.505445   -0.755754   -1.140013
      4          6           0        2.509536   -0.400819    0.208058
      5          6           0        1.625240   -0.952794    1.133603
      6          6           0        0.701334   -1.899406    0.680976
      7          1           0       -0.048725   -3.012422   -1.008676
      8          1           0        1.552681   -1.995111   -2.616784
      9          1           0        3.214060   -0.297082   -1.818911
     10          1           0        1.669562   -0.642828    2.170606
     11          1           0        0.003144   -2.341985    1.385746
     12          7           0        3.492205    0.602340    0.675425
     13          8           0        3.475408    0.898094    1.868272
     14          8           0        4.260612    1.073867   -0.159949
     15          6           0       -3.709844   -1.282921    0.913523
     16          6           0       -3.588900   -0.049992    1.562967
     17          6           0       -2.836636    0.981685    0.993503
     18          6           0       -2.215881    0.744913   -0.232014
     19          6           0       -2.317542   -0.472432   -0.903600
     20          6           0       -3.074898   -1.489841   -0.315521
     21          1           0       -4.296198   -2.078811    1.363126
     22          1           0       -4.080910    0.113537    2.517551
     23          1           0       -2.726382    1.945931    1.474639
     24          1           0       -1.815525   -0.605610   -1.854211
     25          1           0       -3.167083   -2.446328   -0.822158
     26          7           0       -1.416798    1.829552   -0.844732
     27          8           0       -0.879668    1.595766   -1.925229
     28          8           0       -1.342736    2.892939   -0.232883
 ---------------------------------------------------------------------

 SCF Done:  E(RHF) =  -868.335937611     A.U. after   16 cycles
 E2 =    -0.2603769825D+01 EUMP2 =    -0.87093970743645D+03

 The electronic state is 1-A.
 Alpha  occ. eigenvalues --  -20.61060 -20.61046 -20.60432 -20.60415 -15.86118
 Alpha  occ. eigenvalues --  -15.85486 -11.31642 -11.30985 -11.28331 -11.28260
 Alpha  occ. eigenvalues --  -11.28113 -11.27587 -11.27534 -11.27450 -11.27396
 Alpha  occ. eigenvalues --  -11.27289 -11.26678 -11.26645  -1.60124  -1.59493
 Alpha  occ. eigenvalues --   -1.39674  -1.39045  -1.19891  -1.19187  -1.09245
 Alpha  occ. eigenvalues --   -1.08594  -1.05335  -1.04602  -0.96047  -0.95394
 Alpha  occ. eigenvalues --   -0.86714  -0.86014  -0.82891  -0.82212  -0.77892
 Alpha  occ. eigenvalues --   -0.77211  -0.72339  -0.71711  -0.71453  -0.71016
 Alpha  occ. eigenvalues --   -0.70804  -0.70371  -0.65543  -0.65348  -0.64855
 Alpha  occ. eigenvalues --   -0.64633  -0.62680  -0.61948  -0.55835  -0.55209
 Alpha  occ. eigenvalues --   -0.53901  -0.53441  -0.52742  -0.52652  -0.49106
 Alpha  occ. eigenvalues --   -0.49076  -0.48479  -0.48448  -0.45040  -0.44422
 Alpha  occ. eigenvalues --   -0.38004  -0.37716  -0.36461  -0.35985
 Alpha virt. eigenvalues --    0.04538   0.05417   0.10674   0.11407   0.15879
 Alpha virt. eigenvalues --    0.16933   0.19998   0.21872   0.25828   0.27207
 Alpha virt. eigenvalues --    0.27828   0.29013   0.30024   0.31704   0.31977

 Mulliken charges:
               1
     1  C   -0.175675
     2  C   -0.215794
     3  C   -0.162792
     4  C    0.159779
     5  C   -0.174119
     6  C   -0.213909
     7  H    0.216187
     8  H    0.223095
     9  H    0.278681
    10  H    0.274610
    11  H    0.220124
    12  N    0.489033
    13  O   -0.461453
    14  O   -0.457467
    15  C   -0.173215
    16  C   -0.220386
    17  C   -0.170420
    18  C    0.159775
    19  C   -0.162364
    20  C   -0.226084
    21  H    0.225886
    22  H    0.225416
    23  H    0.279041
    24  H    0.272876
    25  H    0.218295
    26  N    0.488155
    27  O   -0.460807
    28  O   -0.456470
 Sum of Mulliken charges =  -0.00000

 Dipole moment (field-independent basis, Debye):
    X=             -6.1333    Y=             -7.0336    Z=              0.4779  Tot=              9.3444
 Quadrupole moment (field-independent basis, Debye-Ang):
   XX=           -109.9730   YY=           -107.4572   ZZ=            -99.5361
   XY=             -1.8235   XZ=            -12.3730   YZ=              4.6619

 Normal termination of Gaussian 16 at Thu May  6 13:04:54 2021.
