 Gaussian 16, Revision A.03,
 Gaussian 16:  EM64L-G16RevA.03 25-Dec-2016

 -------------
 #p 6-31g* mp2
 -------------

 ------------------------------------------------------
 Input file generated by CHIRIPA (05-May-2021 14:51:11)
 ------------------------------------------------------
 Symbolic Z-matrix:
 Charge =  0 Multiplicity = 1

                         Standard orientation:
 ---------------------------------------------------------------------
 Center     Atomic      Atomic             Coordinates (Angstroms)
 Number     Number       Type             X           Y           Z
 ---------------------------------------------------------------------
      1          6           0       -2.941785   -0.680944   -0.296349
      2          6           0       -2.018590   -1.466477    0.635656
      3          6           0       -0.625020   -1.681020    0.044277
      4          1           0       -3.026075   -1.213981   -1.253278
      5          1           0       -2.483555    0.292391   -0.520041
      6          1           0       -2.479070   -2.437485    0.858630
      7          1           0       -1.936640   -0.931606    1.590545
      8          1           0       -0.141986   -0.720424   -0.161966
      9          1           0       -0.687498   -2.234859   -0.898039
     10          1           0        0.018425   -2.244643    0.727041
     11          6           0       -4.338556   -0.458384    0.280907
     12          6           0       -5.261752    0.327149   -0.651099
     13          6           0       -6.655321    0.541691   -0.059720
     14          1           0       -4.796786   -1.431720    0.504598
     15          1           0       -4.254267    0.074653    1.237835
     16          1           0       -5.343701   -0.207722   -1.605988
     17          1           0       -4.801271    1.298156   -0.874073
     18          1           0       -6.592843    1.095531    0.882596
     19          1           0       -7.138355   -0.418904    0.146523
     20          1           0       -7.298766    1.105315   -0.742484
     21          6           0        4.098421    0.029987    0.294403
     22          6           0        5.219457   -0.383219   -0.659811
     23          6           0        6.127798   -1.463631   -0.072085
     24          1           0        4.539449    0.390811    1.233682
     25          1           0        3.499241   -0.854892    0.550077
     26          1           0        5.815507    0.502428   -0.914699
     27          1           0        4.775716   -0.742922   -1.597000
     28          1           0        5.551735   -2.363720    0.165806
     29          1           0        6.597436   -1.111293    0.851982
     30          1           0        6.922149   -1.744043   -0.770823
     31          6           0        3.181921    1.109342   -0.278960
     32          6           0        2.060884    1.522548    0.675254
     33          6           0        1.152543    2.602959    0.087527
     34          1           0        3.781099    1.994221   -0.534634
     35          1           0        2.740893    0.748517   -1.218239
     36          1           0        2.504626    1.882251    1.612442
     37          1           0        1.464834    0.636900    0.930142
     38          1           0        0.682906    2.250622   -0.836539
     39          1           0        1.728606    3.503049   -0.150363
     40          1           0        0.358192    2.883371    0.786266
 ---------------------------------------------------------------------

 SCF Done:  E(RHF) =  -470.733275705     A.U. after   11 cycles
 E2 =    -0.1582831758D+01 EUMP2 =    -0.47231610746304D+03

 The electronic state is 1-A.
 Alpha  occ. eigenvalues --  -11.21641 -11.21608 -11.21572 -11.21562 -11.21422
 Alpha  occ. eigenvalues --  -11.21378 -11.21362 -11.21317 -11.21122 -11.21112
 Alpha  occ. eigenvalues --  -11.21075 -11.21047  -1.08455  -1.08405  -1.03574
 Alpha  occ. eigenvalues --   -1.03505  -0.96016  -0.95967  -0.87039  -0.86978
 Alpha  occ. eigenvalues --   -0.79650  -0.79552  -0.78267  -0.78213  -0.65174
 Alpha  occ. eigenvalues --   -0.64971  -0.61160  -0.60741  -0.59377  -0.59337
 Alpha  occ. eigenvalues --   -0.57620  -0.57576  -0.55376  -0.55183  -0.52713
 Alpha  occ. eigenvalues --   -0.52662  -0.52441  -0.52389  -0.50063  -0.49826
 Alpha  occ. eigenvalues --   -0.47992  -0.47844  -0.46771  -0.46482  -0.45839
 Alpha  occ. eigenvalues --   -0.45764  -0.45721  -0.45581  -0.43809  -0.43769
 Alpha virt. eigenvalues --    0.20455   0.23079   0.23775   0.24869   0.26274
 Alpha virt. eigenvalues --    0.26568   0.27005   0.27636   0.28349   0.29118
 Alpha virt. eigenvalues --    0.30806   0.31290   0.31638   0.31725   0.32051

 Mulliken charges:
               1
     1  C   -0.298890
     2  C   -0.299623
     3  C   -0.482011
     4  H    0.149567
     5  H    0.150304
     6  H    0.152220
     7  H    0.152264
     8  H    0.161479
     9  H    0.155319
    10  H    0.159851
    11  C   -0.298320
    12  C   -0.299744
    13  C   -0.475722
    14  H    0.149529
    15  H    0.149746
    16  H    0.151903
    17  H    0.152184
    18  H    0.155221
    19  H    0.155157
    20  H    0.160315
    21  C   -0.298615
    22  C   -0.299672
    23  C   -0.475713
    24  H    0.149395
    25  H    0.150453
    26  H    0.151745
    27  H    0.152163
    28  H    0.155271
    29  H    0.155047
    30  H    0.160157
    31  C   -0.298369
    32  C   -0.305775
    33  C   -0.476873
    34  H    0.149431
    35  H    0.149952
    36  H    0.152177
    37  H    0.157869
    38  H    0.155026
    39  H    0.155803
    40  H    0.159779
 Sum of Mulliken charges =  -0.00000

 Dipole moment (field-independent basis, Debye):
    X=             -0.0130    Y=             -0.0077    Z=             -0.0001  Tot=              0.0151
 Quadrupole moment (field-independent basis, Debye-Ang):
   XX=            -85.9959   YY=            -84.1810   ZZ=            -84.6248
   XY=              1.5322   XZ=              0.4667   YZ=              0.8261

 Normal termination of Gaussian 16 at Thu May  6 03:51:50 2021.
