 Gaussian 16, Revision A.03,
 Gaussian 16:  EM64L-G16RevA.03 25-Dec-2016

 -------------
 #p 6-31g* mp2
 -------------

 ------------------------------------------------------
 Input file generated by CHIRIPA (05-May-2021 14:51:09)
 ------------------------------------------------------
 Symbolic Z-matrix:
 Charge =  0 Multiplicity = 1

                         Standard orientation:
 ---------------------------------------------------------------------
 Center     Atomic      Atomic             Coordinates (Angstroms)
 Number     Number       Type             X           Y           Z
 ---------------------------------------------------------------------
      1          6           0       -2.053539    0.937887   -0.544998
      2          6           0       -1.957653    2.449348   -0.334578
      3          6           0       -1.445124    3.187110   -1.571839
      4          1           0       -1.063994    0.549122   -0.821778
      5          1           0       -2.718415    0.734616   -1.395888
      6          1           0       -1.294249    2.649655    0.516532
      7          1           0       -2.947501    2.834532   -0.058080
      8          1           0       -2.109836    3.016661   -2.424896
      9          1           0       -0.447190    2.830734   -1.847020
     10          1           0       -1.384401    4.266196   -1.399364
     11          6           0       -2.564396    0.186469    0.683059
     12          6           0       -2.660282   -1.324992    0.472639
     13          6           0       -3.172811   -2.062754    1.709901
     14          1           0       -1.899519    0.389740    1.533950
     15          1           0       -3.553941    0.575234    0.959839
     16          1           0       -1.670434   -1.710176    0.196141
     17          1           0       -3.323686   -1.525299   -0.378470
     18          1           0       -4.170745   -1.706378    1.985082
     19          1           0       -2.508099   -1.892305    2.562958
     20          1           0       -3.233534   -3.141840    1.537425
     21          6           0        1.734010   -0.897451   -0.443795
     22          6           0        2.019468   -2.352893   -0.815530
     23          6           0        0.859895   -3.010000   -1.564794
     24          1           0        0.825843   -0.854535    0.172920
     25          1           0        1.517847   -0.328301   -1.358528
     26          1           0        2.236386   -2.918829    0.099499
     27          1           0        2.927169   -2.392370   -1.431272
     28          1           0        0.646215   -2.470640   -2.493251
     29          1           0       -0.048492   -3.000090   -0.953783
     30          1           0        1.085261   -4.049976   -1.820761
     31          6           0        2.883925   -0.226905    0.305733
     32          6           0        2.598467    1.228537    0.677469
     33          6           0        3.758040    1.885644    1.426733
     34          1           0        3.100088   -0.796056    1.220466
     35          1           0        3.792091   -0.269821   -0.310981
     36          1           0        1.690766    1.268014    1.293210
     37          1           0        2.381549    1.794472   -0.237561
     38          1           0        4.666427    1.875734    0.815721
     39          1           0        3.971720    1.346284    2.355189
     40          1           0        3.532674    2.925620    1.682699
 ---------------------------------------------------------------------

 SCF Done:  E(RHF) =  -470.732653430     A.U. after   11 cycles
 E2 =    -0.1585114501D+01 EUMP2 =    -0.47231776793140D+03

 The electronic state is 1-A.
 Alpha  occ. eigenvalues --  -11.21704 -11.21673 -11.21579 -11.21532 -11.21505
 Alpha  occ. eigenvalues --  -11.21445 -11.21360 -11.21233 -11.21140 -11.21093
 Alpha  occ. eigenvalues --  -11.21083 -11.21031  -1.08547  -1.08368  -1.03615
 Alpha  occ. eigenvalues --   -1.03494  -0.96063  -0.95939  -0.87076  -0.86960
 Alpha  occ. eigenvalues --   -0.79701  -0.79550  -0.78492  -0.78066  -0.65301
 Alpha  occ. eigenvalues --   -0.64898  -0.61111  -0.60817  -0.59434  -0.59301
 Alpha  occ. eigenvalues --   -0.57725  -0.57515  -0.55391  -0.55194  -0.52742
 Alpha  occ. eigenvalues --   -0.52647  -0.52529  -0.52328  -0.50023  -0.49883
 Alpha  occ. eigenvalues --   -0.48149  -0.47800  -0.46874  -0.46524  -0.46372
 Alpha  occ. eigenvalues --   -0.45765  -0.45679  -0.45000  -0.43864  -0.43736
 Alpha virt. eigenvalues --    0.19910   0.22056   0.23567   0.24000   0.25633
 Alpha virt. eigenvalues --    0.26113   0.26923   0.27584   0.28279   0.30482
 Alpha virt. eigenvalues --    0.31013   0.31125   0.31574   0.31737   0.32198

 Mulliken charges:
               1
     1  C   -0.305677
     2  C   -0.299465
     3  C   -0.476032
     4  H    0.158687
     5  H    0.148743
     6  H    0.152262
     7  H    0.151390
     8  H    0.154936
     9  H    0.155092
    10  H    0.159982
    11  C   -0.297401
    12  C   -0.310670
    13  C   -0.475147
    14  H    0.148044
    15  H    0.149754
    16  H    0.160894
    17  H    0.152466
    18  H    0.155539
    19  H    0.154433
    20  H    0.160114
    21  C   -0.305713
    22  C   -0.299329
    23  C   -0.482088
    24  H    0.155551
    25  H    0.150487
    26  H    0.151886
    27  H    0.152288
    28  H    0.155639
    29  H    0.161325
    30  H    0.160753
    31  C   -0.297842
    32  C   -0.301283
    33  C   -0.475723
    34  H    0.149793
    35  H    0.150222
    36  H    0.151969
    37  H    0.152456
    38  H    0.155554
    39  H    0.155405
    40  H    0.160703
 Sum of Mulliken charges =  -0.00000

 Dipole moment (field-independent basis, Debye):
    X=              0.0555    Y=             -0.0273    Z=             -0.0134  Tot=              0.0633
 Quadrupole moment (field-independent basis, Debye-Ang):
   XX=            -84.3688   YY=            -85.5420   ZZ=            -84.8591
   XY=             -0.6324   XZ=             -0.1237   YZ=             -0.0541

 Normal termination of Gaussian 16 at Wed May  5 15:09:16 2021.
