 Gaussian 16, Revision A.03,
 Gaussian 16:  EM64L-G16RevA.03 25-Dec-2016

 -------------
 #p 6-31g* mp2
 -------------

 ------------------------------------------------------
 Input file generated by CHIRIPA (05-May-2021 14:55:23)
 ------------------------------------------------------
 Symbolic Z-matrix:
 Charge =  0 Multiplicity = 1

                         Standard orientation:
 ---------------------------------------------------------------------
 Center     Atomic      Atomic             Coordinates (Angstroms)
 Number     Number       Type             X           Y           Z
 ---------------------------------------------------------------------
      1          6           0       -1.089548   -2.592721    0.347052
      2          6           0       -2.452845   -2.571110    0.659260
      3          6           0       -3.214349   -1.420224    0.435382
      4          6           0       -2.577404   -0.303890   -0.104422
      5          6           0       -1.220996   -0.294335   -0.425914
      6          6           0       -0.479051   -1.456268   -0.193586
      7          1           0       -0.505590   -3.491048    0.524247
      8          1           0       -2.929619   -3.452220    1.079232
      9          1           0       -4.271427   -1.376064    0.667880
     10          1           0       -0.773687    0.599536   -0.843438
     11          1           0        0.579530   -1.470176   -0.437015
     12          7           0       -3.373221    0.920349   -0.345904
     13          8           0       -2.788463    1.890723   -0.822423
     14          8           0       -4.566672    0.886352   -0.054087
     15          6           0        3.641288    0.129172    0.316882
     16          6           0        3.976726   -0.915783   -0.747795
     17          6           0        4.998566   -1.945320   -0.264377
     18          1           0        4.563899    0.641565    0.622149
     19          1           0        3.255675   -0.379515    1.211274
     20          1           0        4.360293   -0.405178   -1.640416
     21          1           0        3.053182   -1.425616   -1.050700
     22          1           0        4.620613   -2.480808    0.612552
     23          1           0        5.935150   -1.454572    0.019484
     24          1           0        5.223799   -2.682724   -1.041143
     25          6           0        2.621095    1.165318   -0.151448
     26          6           0        2.285656    2.210272    0.913230
     27          6           0        1.263817    3.239808    0.429812
     28          1           0        3.006708    1.674004   -1.045839
     29          1           0        1.698485    0.652924   -0.456715
     30          1           0        3.209201    2.720106    1.216135
     31          1           0        1.902090    1.699667    1.805851
     32          1           0        0.327233    2.749060    0.145951
     33          1           0        1.641771    3.775298   -0.447117
     34          1           0        1.038585    3.977212    1.206578
 ---------------------------------------------------------------------

 SCF Done:  E(RHF) =  -669.534634909     A.U. after   15 cycles
 E2 =    -0.2093784369D+01 EUMP2 =    -0.67162841927882D+03

 The electronic state is 1-A.
 Alpha  occ. eigenvalues --  -20.60806 -20.60800 -15.85847 -11.31202 -11.27769
 Alpha  occ. eigenvalues --  -11.27748 -11.27506 -11.26785 -11.26746 -11.22514
 Alpha  occ. eigenvalues --  -11.22155 -11.22095 -11.21936 -11.21825 -11.21092
 Alpha  occ. eigenvalues --   -1.59872  -1.39427  -1.19374  -1.09127  -1.08768
 Alpha  occ. eigenvalues --   -1.04782  -1.04090  -0.96513  -0.95608  -0.87524
 Alpha  occ. eigenvalues --   -0.86178  -0.82455  -0.80171  -0.78967  -0.77475
 Alpha  occ. eigenvalues --   -0.72067  -0.71190  -0.70496  -0.65894  -0.65021
 Alpha  occ. eigenvalues --   -0.64762  -0.62128  -0.61454  -0.59908  -0.58123
 Alpha  occ. eigenvalues --   -0.55811  -0.55281  -0.53168  -0.53104  -0.52949
 Alpha  occ. eigenvalues --   -0.52841  -0.50482  -0.48828  -0.48819  -0.48452
 Alpha  occ. eigenvalues --   -0.47225  -0.46437  -0.46350  -0.44824  -0.44366
 Alpha  occ. eigenvalues --   -0.37352  -0.36366
 Alpha virt. eigenvalues --    0.05002   0.11222   0.16468   0.18948   0.22460
 Alpha virt. eigenvalues --    0.23377   0.24941   0.26355   0.26600   0.28054
 Alpha virt. eigenvalues --    0.29422   0.30931   0.31375   0.31463   0.32559

 Mulliken charges:
               1
     1  C   -0.172692
     2  C   -0.218543
     3  C   -0.170810
     4  C    0.158278
     5  C   -0.178049
     6  C   -0.227520
     7  H    0.226029
     8  H    0.223540
     9  H    0.275589
    10  H    0.282235
    11  H    0.234873
    12  N    0.488883
    13  O   -0.461824
    14  O   -0.459844
    15  C   -0.299924
    16  C   -0.303280
    17  C   -0.475726
    18  H    0.154905
    19  H    0.148869
    20  H    0.157133
    21  H    0.143092
    22  H    0.153794
    23  H    0.159187
    24  H    0.161917
    25  C   -0.302180
    26  C   -0.300984
    27  C   -0.481727
    28  H    0.154171
    29  H    0.139318
    30  H    0.153850
    31  H    0.152690
    32  H    0.163565
    33  H    0.156539
    34  H    0.164648
 Sum of Mulliken charges =  -0.00000

 Dipole moment (field-independent basis, Debye):
    X=              2.9162    Y=             -4.1782    Z=              0.8980  Tot=              5.1738
 Quadrupole moment (field-independent basis, Debye-Ang):
   XX=           -105.1882   YY=            -91.4051   ZZ=            -95.0058
   XY=             13.7143   XZ=             -4.5737   YZ=             -0.7833

 Normal termination of Gaussian 16 at Thu May  6 17:36:52 2021.
