 Gaussian 16, Revision A.03,
 Gaussian 16:  EM64L-G16RevA.03 25-Dec-2016

 -------------
 #p 6-31g* mp2
 -------------

 ------------------------------------------------------
 Input file generated by CHIRIPA (05-May-2021 14:57:27)
 ------------------------------------------------------
 Symbolic Z-matrix:
 Charge =  0 Multiplicity = 1

                         Standard orientation:
 ---------------------------------------------------------------------
 Center     Atomic      Atomic             Coordinates (Angstroms)
 Number     Number       Type             X           Y           Z
 ---------------------------------------------------------------------
      1          6           0        3.517876   -1.374625    2.099616
      2          6           0        2.906498   -0.117535    2.149242
      3          6           0        2.728792    0.632118    0.982627
      4          6           0        3.176449    0.091751   -0.221905
      5          6           0        3.789205   -1.157691   -0.303851
      6          6           0        3.956505   -1.889782    0.875387
      7          1           0        3.651881   -1.950152    3.010773
      8          1           0        2.564869    0.285050    3.098589
      9          1           0        2.258681    1.607986    0.992366
     10          1           0        4.119388   -1.532594   -1.265019
     11          1           0        4.431645   -2.865775    0.833841
     12          7           0        2.993827    0.876079   -1.463629
     13          8           0        3.396967    0.377715   -2.512318
     14          8           0        2.451006    1.974347   -1.364691
     15          6           0       -2.242524    2.225239    0.823757
     16          6           0       -3.594432    1.935519    1.035716
     17          6           0       -4.139329    0.726478    0.593161
     18          6           0       -3.299745   -0.173985   -0.060716
     19          6           0       -1.948935    0.085712   -0.286902
     20          6           0       -1.425529    1.301041    0.164288
     21          1           0       -1.827582    3.166894    1.170898
     22          1           0       -4.231287    2.651382    1.547575
     23          1           0       -5.182516    0.476634    0.744011
     24          1           0       -1.339029   -0.647718   -0.800235
     25          1           0       -0.375262    1.523363   -0.001709
     26          7           0       -3.865227   -1.457271   -0.533800
     27          8           0       -3.104494   -2.233844   -1.107261
     28          8           0       -5.058476   -1.662238   -0.322183
 ---------------------------------------------------------------------

 SCF Done:  E(RHF) =  -868.338766320     A.U. after   16 cycles
 E2 =    -0.2599744947D+01 EUMP2 =    -0.87093851126657D+03

 The electronic state is 1-A.
 Alpha  occ. eigenvalues --  -20.61648 -20.61587 -20.60625 -20.60619 -15.86637
 Alpha  occ. eigenvalues --  -15.85675 -11.31895 -11.30998 -11.28503 -11.28365
 Alpha  occ. eigenvalues --  -11.28082 -11.27569 -11.27523 -11.27427 -11.27346
 Alpha  occ. eigenvalues --  -11.27286 -11.26591 -11.26476  -1.60674  -1.59701
 Alpha  occ. eigenvalues --   -1.40235  -1.39255  -1.20034  -1.19159  -1.09437
 Alpha  occ. eigenvalues --   -1.08565  -1.05414  -1.04546  -0.96297  -0.95409
 Alpha  occ. eigenvalues --   -0.86818  -0.85947  -0.83130  -0.82235  -0.78217
 Alpha  occ. eigenvalues --   -0.77285  -0.72850  -0.71993  -0.71894  -0.71124
 Alpha  occ. eigenvalues --   -0.71023  -0.70276  -0.65680  -0.65411  -0.64808
 Alpha  occ. eigenvalues --   -0.64532  -0.62777  -0.61875  -0.55883  -0.55062
 Alpha  occ. eigenvalues --   -0.53748  -0.53503  -0.52889  -0.52615  -0.49629
 Alpha  occ. eigenvalues --   -0.49590  -0.48652  -0.48648  -0.45643  -0.44670
 Alpha  occ. eigenvalues --   -0.37983  -0.37159  -0.37004  -0.36138
 Alpha virt. eigenvalues --    0.04271   0.05232   0.10533   0.11505   0.15822
 Alpha virt. eigenvalues --    0.16740   0.20268   0.21797   0.25707   0.27187
 Alpha virt. eigenvalues --    0.28251   0.28661   0.30140   0.31144   0.32111

 Mulliken charges:
               1
     1  C   -0.169809
     2  C   -0.216691
     3  C   -0.176173
     4  C    0.157714
     5  C   -0.170066
     6  C   -0.217115
     7  H    0.229013
     8  H    0.224829
     9  H    0.269081
    10  H    0.278414
    11  H    0.227414
    12  N    0.488187
    13  O   -0.452924
    14  O   -0.467377
    15  C   -0.172677
    16  C   -0.218499
    17  C   -0.171920
    18  C    0.158367
    19  C   -0.171694
    20  C   -0.225359
    21  H    0.224944
    22  H    0.222318
    23  H    0.274653
    24  H    0.275811
    25  H    0.233470
    26  N    0.488048
    27  O   -0.460602
    28  O   -0.461355
 Sum of Mulliken charges =  -0.00000

 Dipole moment (field-independent basis, Debye):
    X=              2.9435    Y=              1.5757    Z=              6.0253  Tot=              6.8885
 Quadrupole moment (field-independent basis, Debye-Ang):
   XX=           -109.1124   YY=           -104.7572   ZZ=           -105.7494
   XY=            -28.0422   XZ=              5.1540   YZ=              3.0453

 Normal termination of Gaussian 16 at Thu May  6 16:30:47 2021.
