 Gaussian 16, Revision A.03,
 Gaussian 16:  EM64L-G16RevA.03 25-Dec-2016

 -------------
 #p 6-31g* mp2
 -------------

 ------------------------------------------------------
 Input file generated by CHIRIPA (05-May-2021 14:51:14)
 ------------------------------------------------------
 Symbolic Z-matrix:
 Charge =  0 Multiplicity = 1

                         Standard orientation:
 ---------------------------------------------------------------------
 Center     Atomic      Atomic             Coordinates (Angstroms)
 Number     Number       Type             X           Y           Z
 ---------------------------------------------------------------------
      1          6           0        3.200557    0.441775   -0.790089
      2          6           0        2.519950    1.680269   -0.206230
      3          6           0        1.834146    2.535644   -1.271970
      4          1           0        3.938582    0.756318   -1.540640
      5          1           0        2.452596   -0.162879   -1.321449
      6          1           0        3.268706    2.281704    0.325049
      7          1           0        1.783595    1.362750    0.543155
      8          1           0        1.066802    1.956457   -1.795732
      9          1           0        2.560351    2.880633   -2.015078
     10          1           0        1.354108    3.415684   -0.832704
     11          6           0        3.890583   -0.423423    0.263013
     12          6           0        4.571190   -1.661918   -0.320846
     13          6           0        5.256994   -2.517293    0.744893
     14          1           0        4.638544    0.181231    0.794373
     15          1           0        3.152558   -0.737966    1.013564
     16          1           0        5.307545   -1.344399   -1.070231
     17          1           0        3.822434   -2.263353   -0.852125
     18          1           0        4.530789   -2.862281    1.488002
     19          1           0        6.024338   -1.938106    1.268656
     20          1           0        5.737032   -3.397332    0.305628
     21          6           0       -3.296129    0.673276    0.499060
     22          6           0       -1.804870    0.690439    0.836456
     23          6           0       -1.320790    2.062620    1.306113
     24          1           0       -3.497961    1.421241   -0.279887
     25          1           0       -3.868868    0.981833    1.384586
     26          1           0       -1.235193    0.380608   -0.049032
     27          1           0       -1.606533   -0.057787    1.614554
     28          1           0       -1.863382    2.376017    2.203877
     29          1           0       -1.489933    2.816903    0.530838
     30          1           0       -0.252079    2.052229    1.541928
     31          6           0       -3.795011   -0.691627    0.028016
     32          6           0       -5.286270   -0.708791   -0.309380
     33          6           0       -5.770349   -2.080972   -0.779038
     34          1           0       -3.222272   -1.000186   -0.857511
     35          1           0       -3.593179   -1.439592    0.806963
     36          1           0       -5.484608    0.039436   -1.087477
     37          1           0       -5.855948   -0.398959    0.576108
     38          1           0       -5.601208   -2.835254   -0.003763
     39          1           0       -5.227759   -2.394368   -1.676800
     40          1           0       -6.839060   -2.070580   -1.014853
 ---------------------------------------------------------------------

 SCF Done:  E(RHF) =  -470.733171678     A.U. after   11 cycles
 E2 =    -0.1582993203D+01 EUMP2 =    -0.47231616488064D+03

 The electronic state is 1-A.
 Alpha  occ. eigenvalues --  -11.21639 -11.21619 -11.21596 -11.21576 -11.21429
 Alpha  occ. eigenvalues --  -11.21398 -11.21370 -11.21338 -11.21086 -11.21066
 Alpha  occ. eigenvalues --  -11.21053 -11.21050  -1.08459  -1.08416  -1.03581
 Alpha  occ. eigenvalues --   -1.03489  -0.96033  -0.95931  -0.87017  -0.86980
 Alpha  occ. eigenvalues --   -0.79624  -0.79577  -0.78267  -0.78239  -0.65132
 Alpha  occ. eigenvalues --   -0.65019  -0.61092  -0.60833  -0.59494  -0.59204
 Alpha  occ. eigenvalues --   -0.57702  -0.57475  -0.55364  -0.55155  -0.52736
 Alpha  occ. eigenvalues --   -0.52614  -0.52434  -0.52387  -0.49948  -0.49887
 Alpha  occ. eigenvalues --   -0.47998  -0.47849  -0.46643  -0.46596  -0.45810
 Alpha  occ. eigenvalues --   -0.45784  -0.45721  -0.45691  -0.43795  -0.43757
 Alpha virt. eigenvalues --    0.20521   0.23159   0.23485   0.25350   0.26283
 Alpha virt. eigenvalues --    0.26317   0.26826   0.27602   0.27823   0.29230
 Alpha virt. eigenvalues --    0.30371   0.30551   0.31092   0.32066   0.32390

 Mulliken charges:
               1
     1  C   -0.297648
     2  C   -0.305924
     3  C   -0.475783
     4  H    0.149584
     5  H    0.149243
     6  H    0.151786
     7  H    0.157624
     8  H    0.154771
     9  H    0.154842
    10  H    0.161618
    11  C   -0.298412
    12  C   -0.299641
    13  C   -0.475718
    14  H    0.149488
    15  H    0.149734
    16  H    0.151917
    17  H    0.151966
    18  H    0.155199
    19  H    0.155156
    20  H    0.160237
    21  C   -0.298270
    22  C   -0.300914
    23  C   -0.480294
    24  H    0.149959
    25  H    0.149769
    26  H    0.152145
    27  H    0.151528
    28  H    0.154842
    29  H    0.156131
    30  H    0.165126
    31  C   -0.298283
    32  C   -0.299690
    33  C   -0.475723
    34  H    0.149316
    35  H    0.149587
    36  H    0.152049
    37  H    0.152004
    38  H    0.155168
    39  H    0.155166
    40  H    0.160346
 Sum of Mulliken charges =  -0.00000

 Dipole moment (field-independent basis, Debye):
    X=             -0.0083    Y=              0.0124    Z=              0.0057  Tot=              0.0160
 Quadrupole moment (field-independent basis, Debye-Ang):
   XX=            -84.5526   YY=            -85.7994   ZZ=            -84.3967
   XY=              0.4537   XZ=             -0.8331   YZ=             -0.1806

 Normal termination of Gaussian 16 at Thu May  6 00:51:49 2021.
