 Gaussian 16, Revision A.03,
 Gaussian 16:  EM64L-G16RevA.03 25-Dec-2016

 -------------
 #p 6-31g* mp2
 -------------

 ------------------------------------------------------
 Input file generated by CHIRIPA (05-May-2021 14:57:26)
 ------------------------------------------------------
 Symbolic Z-matrix:
 Charge =  0 Multiplicity = 1

                         Standard orientation:
 ---------------------------------------------------------------------
 Center     Atomic      Atomic             Coordinates (Angstroms)
 Number     Number       Type             X           Y           Z
 ---------------------------------------------------------------------
      1          6           0       -2.517618    2.472192    0.213238
      2          6           0       -1.717361    1.931826   -0.798747
      3          6           0       -1.796404    0.572760   -1.116927
      4          6           0       -2.690617   -0.220511   -0.399714
      5          6           0       -3.501176    0.288292    0.613895
      6          6           0       -3.405406    1.650149    0.915092
      7          1           0       -2.449719    3.529032    0.453811
      8          1           0       -1.026998    2.567854   -1.345476
      9          1           0       -1.188557    0.128329   -1.895658
     10          1           0       -4.179923   -0.370828    1.141419
     11          1           0       -4.028121    2.067069    1.701508
     12          7           0       -2.783150   -1.660771   -0.727568
     13          8           0       -3.578924   -2.338456   -0.080943
     14          8           0       -2.058151   -2.084691   -1.624956
     15          6           0        4.454714    0.245274   -1.423819
     16          6           0        3.289642    1.017046   -1.482936
     17          6           0        2.297079    0.880169   -0.507933
     18          6           0        2.503346   -0.042204    0.516749
     19          6           0        3.653209   -0.825565    0.603057
     20          6           0        4.632467   -0.671951   -0.382847
     21          1           0        5.220594    0.358104   -2.185459
     22          1           0        3.148900    1.730163   -2.290216
     23          1           0        1.385477    1.464920   -0.529514
     24          1           0        3.765082   -1.528132    1.419942
     25          1           0        5.536267   -1.272654   -0.334400
     26          7           0        1.459607   -0.195968    1.554711
     27          8           0        1.665328   -1.015589    2.447201
     28          8           0        0.455566    0.506043    1.456122
 ---------------------------------------------------------------------

 SCF Done:  E(RHF) =  -868.336560867     A.U. after   16 cycles
 E2 =    -0.2602333029D+01 EUMP2 =    -0.87093889389620D+03

 The electronic state is 1-A.
 Alpha  occ. eigenvalues --  -20.60913 -20.60899 -20.60128 -20.60102 -15.85948
 Alpha  occ. eigenvalues --  -15.85170 -11.31386 -11.30385 -11.28018 -11.27910
 Alpha  occ. eigenvalues --  -11.27689 -11.27091 -11.27032 -11.26968 -11.26938
 Alpha  occ. eigenvalues --  -11.26781 -11.26131 -11.25956  -1.59983  -1.59190
 Alpha  occ. eigenvalues --   -1.39536  -1.38752  -1.19555  -1.18570  -1.08934
 Alpha  occ. eigenvalues --   -1.08011  -1.04983  -1.04025  -0.95767  -0.94873
 Alpha  occ. eigenvalues --   -0.86373  -0.85451  -0.82607  -0.81756  -0.77659
 Alpha  occ. eigenvalues --   -0.76801  -0.72193  -0.71411  -0.71307  -0.70674
 Alpha  occ. eigenvalues --   -0.70486  -0.69773  -0.65216  -0.65003  -0.64294
 Alpha  occ. eigenvalues --   -0.64125  -0.62368  -0.61411  -0.55464  -0.54569
 Alpha  occ. eigenvalues --   -0.53285  -0.53100  -0.52222  -0.52190  -0.48961
 Alpha  occ. eigenvalues --   -0.48912  -0.48164  -0.48148  -0.44925  -0.44192
 Alpha  occ. eigenvalues --   -0.37518  -0.36588  -0.36489  -0.35496
 Alpha virt. eigenvalues --    0.04844   0.05817   0.11033   0.12032   0.16384
 Alpha virt. eigenvalues --    0.17115   0.20437   0.22201   0.25942   0.27627
 Alpha virt. eigenvalues --    0.28856   0.29166   0.30664   0.31385   0.32864

 Mulliken charges:
               1
     1  C   -0.164087
     2  C   -0.212454
     3  C   -0.163300
     4  C    0.164332
     5  C   -0.164820
     6  C   -0.214568
     7  H    0.222073
     8  H    0.208538
     9  H    0.267997
    10  H    0.274606
    11  H    0.221684
    12  N    0.488192
    13  O   -0.460312
    14  O   -0.465911
    15  C   -0.169871
    16  C   -0.219146
    17  C   -0.174105
    18  C    0.159033
    19  C   -0.168828
    20  C   -0.217914
    21  H    0.226467
    22  H    0.220682
    23  H    0.271398
    24  H    0.277476
    25  H    0.225087
    26  N    0.488657
    27  O   -0.457798
    28  O   -0.463107
 Sum of Mulliken charges =  -0.00000

 Dipole moment (field-independent basis, Debye):
    X=              4.0313    Y=              5.4878    Z=             -2.2150  Tot=              7.1605
 Quadrupole moment (field-independent basis, Debye-Ang):
   XX=            -84.3513   YY=           -106.0517   ZZ=           -107.1987
   XY=            -14.7672   XZ=            -12.5201   YZ=             -4.0210

 Normal termination of Gaussian 16 at Thu May  6 18:10:27 2021.
