 Gaussian 16, Revision A.03,
 Gaussian 16:  EM64L-G16RevA.03 25-Dec-2016

 -------------
 #p 6-31g* mp2
 -------------

 ------------------------------------------------------
 Input file generated by CHIRIPA (05-May-2021 14:53:15)
 ------------------------------------------------------
 Symbolic Z-matrix:
 Charge =  0 Multiplicity = 1

                         Standard orientation:
 ---------------------------------------------------------------------
 Center     Atomic      Atomic             Coordinates (Angstroms)
 Number     Number       Type             X           Y           Z
 ---------------------------------------------------------------------
      1          6           0        5.807011    0.148698    0.168124
      2          6           0        6.858513   -0.413507   -0.789087
      3          6           0        8.254514    0.155709   -0.534198
      4          1           0        5.781398    1.242877    0.072926
      5          1           0        6.109234   -0.068103    1.202074
      6          1           0        6.553700   -0.196920   -1.820976
      7          1           0        6.881491   -1.506490   -0.691737
      8          1           0        8.583562   -0.072740    0.484693
      9          1           0        8.253909    1.244271   -0.650962
     10          1           0        8.990561   -0.259677   -1.229575
     11          6           0        4.406321   -0.410840   -0.074181
     12          6           0        3.354818    0.151366    0.883030
     13          6           0        1.958817   -0.417850    0.628141
     14          1           0        4.104097   -0.194038   -1.108131
     15          1           0        4.431933   -1.505018    0.021017
     16          1           0        3.331840    1.244348    0.785680
     17          1           0        3.659631   -0.065221    1.914919
     18          1           0        1.959422   -1.506412    0.744905
     19          1           0        1.629769   -0.189401   -0.390751
     20          1           0        1.222770   -0.002464    1.323518
     21          6           0       -6.310289   -0.810000   -0.421109
     22          6           0       -6.066801    0.561240   -0.551244
     23          6           0       -4.784900    1.077866   -0.340594
     24          6           0       -3.765225    0.190606    0.000467
     25          6           0       -3.976231   -1.180504    0.137672
     26          6           0       -5.266068   -1.674970   -0.077671
     27          1           0       -7.309183   -1.202722   -0.586570
     28          1           0       -6.875843    1.235342   -0.817860
     29          1           0       -4.568531    2.135103   -0.434680
     30          1           0       -3.149558   -1.827661    0.404533
     31          1           0       -5.452242   -2.740348    0.024092
     32          7           0       -2.403933    0.725806    0.225958
     33          8           0       -1.522637   -0.076827    0.525516
     34          8           0       -2.244026    1.937794    0.098870
 ---------------------------------------------------------------------

 SCF Done:  E(RHF) =  -669.535671049     A.U. after   15 cycles
 E2 =    -0.2090820493D+01 EUMP2 =    -0.67162649154231D+03

 The electronic state is 1-A.
 Alpha  occ. eigenvalues --  -20.60890 -20.60878 -15.85922 -11.31263 -11.27830
 Alpha  occ. eigenvalues --  -11.27825 -11.27571 -11.26842 -11.26832 -11.20979
 Alpha  occ. eigenvalues --  -11.20600 -11.20554 -11.20397 -11.20276 -11.19220
 Alpha  occ. eigenvalues --   -1.59953  -1.39508  -1.19435  -1.08836  -1.07511
 Alpha  occ. eigenvalues --   -1.04833  -1.02502  -0.95678  -0.94913  -0.86234
 Alpha  occ. eigenvalues --   -0.85923  -0.82505  -0.78604  -0.77556  -0.77285
 Alpha  occ. eigenvalues --   -0.72140  -0.71270  -0.70543  -0.65089  -0.64837
 Alpha  occ. eigenvalues --   -0.64157  -0.62180  -0.59914  -0.58354  -0.56514
 Alpha  occ. eigenvalues --   -0.55338  -0.54227  -0.53165  -0.52927  -0.51572
 Alpha  occ. eigenvalues --   -0.51354  -0.48997  -0.48899  -0.48743  -0.46897
 Alpha  occ. eigenvalues --   -0.45679  -0.44937  -0.44805  -0.44727  -0.42696
 Alpha  occ. eigenvalues --   -0.37416  -0.36436
 Alpha virt. eigenvalues --    0.04968   0.11219   0.16461   0.21354   0.23706
 Alpha virt. eigenvalues --    0.25392   0.27269   0.27505   0.28217   0.28346
 Alpha virt. eigenvalues --    0.29144   0.30922   0.32377   0.32437   0.32618

 Mulliken charges:
               1
     1  C   -0.297333
     2  C   -0.298836
     3  C   -0.475174
     4  H    0.149088
     5  H    0.147831
     6  H    0.151075
     7  H    0.150446
     8  H    0.154268
     9  H    0.154718
    10  H    0.158159
    11  C   -0.297062
    12  C   -0.301666
    13  C   -0.471502
    14  H    0.148252
    15  H    0.146471
    16  H    0.151458
    17  H    0.146539
    18  H    0.144280
    19  H    0.155996
    20  H    0.179217
    21  C   -0.170664
    22  C   -0.218604
    23  C   -0.170634
    24  C    0.157627
    25  C   -0.170946
    26  C   -0.218559
    27  H    0.225861
    28  H    0.223675
    29  H    0.275751
    30  H    0.276076
    31  H    0.223745
    32  N    0.490437
    33  O   -0.460129
    34  O   -0.459860
 Sum of Mulliken charges =  -0.00000

 Dipole moment (field-independent basis, Debye):
    X=             -5.1825    Y=             -1.8320    Z=             -0.7738  Tot=              5.5510
 Quadrupole moment (field-independent basis, Debye-Ang):
   XX=            -61.3621   YY=            -90.9146   ZZ=            -95.0944
   XY=              4.2821   XZ=              3.5229   YZ=             -1.7224

 Normal termination of Gaussian 16 at Thu May  6 17:10:53 2021.
