 Gaussian 16, Revision A.03,
 Gaussian 16:  EM64L-G16RevA.03 25-Dec-2016

 -------------
 #p 6-31g* mp2
 -------------

 ------------------------------------------------------
 Input file generated by CHIRIPA (05-May-2021 14:55:24)
 ------------------------------------------------------
 Symbolic Z-matrix:
 Charge =  0 Multiplicity = 1

                         Standard orientation:
 ---------------------------------------------------------------------
 Center     Atomic      Atomic             Coordinates (Angstroms)
 Number     Number       Type             X           Y           Z
 ---------------------------------------------------------------------
      1          6           0        1.260736    1.481240   -1.239528
      2          6           0        0.996645    0.109140   -1.175351
      3          6           0        1.946333   -0.772944   -0.651356
      4          6           0        3.154989   -0.246290   -0.198502
      5          6           0        3.447667    1.115721   -0.249043
      6          6           0        2.483248    1.979273   -0.776985
      7          1           0        0.517274    2.159266   -1.648113
      8          1           0        0.048092   -0.280456   -1.533829
      9          1           0        1.767964   -1.839630   -0.589847
     10          1           0        4.402358    1.474414    0.116092
     11          1           0        2.691078    3.044398   -0.825587
     12          7           0        4.168178   -1.170303    0.358317
     13          8           0        5.225301   -0.681266    0.750708
     14          8           0        3.886008   -2.366085    0.391817
     15          6           0       -3.443088    0.767684    0.508552
     16          6           0       -2.034024    0.536863    1.055586
     17          6           0       -1.283300    1.841397    1.324662
     18          1           0       -3.378167    1.353034   -0.418861
     19          1           0       -4.011310    1.377907    1.224195
     20          1           0       -1.469068   -0.073906    0.339764
     21          1           0       -2.102294   -0.048170    1.981703
     22          1           0       -1.822503    2.452410    2.055772
     23          1           0       -1.185679    2.426529    0.404504
     24          1           0       -0.278365    1.653074    1.715174
     25          6           0       -4.206200   -0.527040    0.234546
     26          6           0       -5.615263   -0.296220   -0.312489
     27          6           0       -6.365987   -1.600753   -0.581564
     28          1           0       -3.637977   -1.137264   -0.481098
     29          1           0       -4.271120   -1.112391    1.161958
     30          1           0       -5.546993    0.288814   -1.238605
     31          1           0       -6.180220    0.314549    0.403333
     32          1           0       -6.463609   -2.185886    0.338594
     33          1           0       -5.826784   -2.211768   -1.312673
     34          1           0       -7.370923   -1.412431   -0.972077
 ---------------------------------------------------------------------

 SCF Done:  E(RHF) =  -669.534073914     A.U. after   15 cycles
 E2 =    -0.2093480707D+01 EUMP2 =    -0.67162755462044D+03

 The electronic state is 1-A.
 Alpha  occ. eigenvalues --  -20.60774 -20.60769 -15.85830 -11.31200 -11.27785
 Alpha  occ. eigenvalues --  -11.27781 -11.27527 -11.26786 -11.26777 -11.22229
 Alpha  occ. eigenvalues --  -11.22108 -11.22043 -11.21960 -11.21683 -11.21489
 Alpha  occ. eigenvalues --   -1.59850  -1.39403  -1.19391  -1.09051  -1.08774
 Alpha  occ. eigenvalues --   -1.04803  -1.04093  -0.96549  -0.95607  -0.87560
 Alpha  occ. eigenvalues --   -0.86198  -0.82452  -0.80165  -0.78855  -0.77487
 Alpha  occ. eigenvalues --   -0.72048  -0.71175  -0.70512  -0.65758  -0.65039
 Alpha  occ. eigenvalues --   -0.64782  -0.62197  -0.61462  -0.59908  -0.58155
 Alpha  occ. eigenvalues --   -0.55935  -0.55276  -0.53358  -0.53022  -0.52889
 Alpha  occ. eigenvalues --   -0.52844  -0.50487  -0.48813  -0.48801  -0.48467
 Alpha  occ. eigenvalues --   -0.47206  -0.46383  -0.46327  -0.44808  -0.44351
 Alpha  occ. eigenvalues --   -0.37302  -0.36367
 Alpha virt. eigenvalues --    0.05038   0.11168   0.16436   0.19705   0.22748
 Alpha virt. eigenvalues --    0.24105   0.25123   0.25861   0.27259   0.28344
 Alpha virt. eigenvalues --    0.28452   0.30456   0.31194   0.31787   0.32061

 Mulliken charges:
               1
     1  C   -0.166149
     2  C   -0.215622
     3  C   -0.172020
     4  C    0.158015
     5  C   -0.170872
     6  C   -0.219997
     7  H    0.225620
     8  H    0.223242
     9  H    0.275843
    10  H    0.275768
    11  H    0.223747
    12  N    0.488139
    13  O   -0.460463
    14  O   -0.460382
    15  C   -0.298078
    16  C   -0.302878
    17  C   -0.473124
    18  H    0.144342
    19  H    0.152467
    20  H    0.146188
    21  H    0.156771
    22  H    0.156854
    23  H    0.143344
    24  H    0.167281
    25  C   -0.297638
    26  C   -0.299837
    27  C   -0.475976
    28  H    0.145104
    29  H    0.152725
    30  H    0.150806
    31  H    0.153521
    32  H    0.156747
    33  H    0.154848
    34  H    0.161666
 Sum of Mulliken charges =  -0.00000

 Dipole moment (field-independent basis, Debye):
    X=             -3.6058    Y=              3.2521    Z=             -1.8812  Tot=              5.2074
 Quadrupole moment (field-independent basis, Debye-Ang):
   XX=           -115.8549   YY=            -94.4475   ZZ=            -93.6512
   XY=             13.5977   XZ=             -5.6643   YZ=              0.3628

 Normal termination of Gaussian 16 at Thu May  6 15:59:25 2021.
