 Gaussian 16, Revision A.03,
 Gaussian 16:  EM64L-G16RevA.03 25-Dec-2016

 -------------
 #p 6-31g* mp2
 -------------

 ------------------------------------------------------
 Input file generated by CHIRIPA (05-May-2021 14:55:23)
 ------------------------------------------------------
 Symbolic Z-matrix:
 Charge =  0 Multiplicity = 1

                         Standard orientation:
 ---------------------------------------------------------------------
 Center     Atomic      Atomic             Coordinates (Angstroms)
 Number     Number       Type             X           Y           Z
 ---------------------------------------------------------------------
      1          6           0       -0.626538   -0.589752    0.054137
      2          6           0       -1.304547   -0.523135   -1.167496
      3          6           0       -2.693583   -0.368221   -1.201084
      4          6           0       -3.376141   -0.282922    0.011405
      5          6           0       -2.729111   -0.345993    1.244557
      6          6           0       -1.339727   -0.501124    1.254149
      7          1           0        0.452634   -0.710177    0.070909
      8          1           0       -0.753266   -0.591686   -2.101002
      9          1           0       -3.243612   -0.313735   -2.132705
     10          1           0       -3.305953   -0.274731    2.158665
     11          1           0       -0.815810   -0.552555    2.204365
     12          7           0       -4.846836   -0.118807   -0.011452
     13          8           0       -5.425124   -0.046129    1.070647
     14          8           0       -5.393431   -0.065958   -1.111033
     15          6           0        3.484417    0.835344   -0.356427
     16          6           0        3.129537    2.084921    0.450171
     17          6           0        2.074362    2.952196   -0.237023
     18          1           0        3.845864    1.137681   -1.348845
     19          1           0        2.573530    0.243629   -0.522428
     20          1           0        4.041060    2.673403    0.615788
     21          1           0        2.769073    1.779581    1.440853
     22          1           0        1.149442    2.386270   -0.388190
     23          1           0        2.428656    3.285170   -1.217943
     24          1           0        1.835644    3.840040    0.356785
     25          6           0        4.537991   -0.041819    0.317587
     26          6           0        4.892871   -1.291396   -0.489011
     27          6           0        5.948045   -2.158672    0.198183
     28          1           0        5.448876    0.549895    0.483589
     29          1           0        4.176544   -0.344156    1.310006
     30          1           0        5.253335   -0.986056   -1.479692
     31          1           0        3.981347   -1.879879   -0.654628
     32          1           0        5.593751   -2.491646    1.179103
     33          1           0        6.872966   -1.592746    0.349351
     34          1           0        6.186764   -3.046516   -0.395624
 ---------------------------------------------------------------------

 SCF Done:  E(RHF) =  -669.535572728     A.U. after   15 cycles
 E2 =    -0.2091665140D+01 EUMP2 =    -0.67162723786797D+03

 The electronic state is 1-A.
 Alpha  occ. eigenvalues --  -20.60778 -20.60773 -15.85831 -11.31215 -11.27778
 Alpha  occ. eigenvalues --  -11.27774 -11.27520 -11.26809 -11.26799 -11.22502
 Alpha  occ. eigenvalues --  -11.22463 -11.22441 -11.22290 -11.21772 -11.21766
 Alpha  occ. eigenvalues --   -1.59853  -1.39406  -1.19387  -1.09365  -1.08781
 Alpha  occ. eigenvalues --   -1.04790  -1.04354  -0.96796  -0.95614  -0.87805
 Alpha  occ. eigenvalues --   -0.86187  -0.82446  -0.80418  -0.79196  -0.77485
 Alpha  occ. eigenvalues --   -0.72049  -0.71175  -0.70527  -0.66011  -0.65039
 Alpha  occ. eigenvalues --   -0.64788  -0.62134  -0.61754  -0.60161  -0.58410
 Alpha  occ. eigenvalues --   -0.56124  -0.55290  -0.53443  -0.53225  -0.53099
 Alpha  occ. eigenvalues --   -0.52881  -0.50736  -0.48812  -0.48803  -0.48723
 Alpha  occ. eigenvalues --   -0.47464  -0.46707  -0.46662  -0.44807  -0.44641
 Alpha  occ. eigenvalues --   -0.37358  -0.36391
 Alpha virt. eigenvalues --    0.05015   0.11247   0.16386   0.18934   0.22758
 Alpha virt. eigenvalues --    0.23710   0.24974   0.26207   0.27039   0.27470
 Alpha virt. eigenvalues --    0.29701   0.30760   0.31078   0.31258   0.31782

 Mulliken charges:
               1
     1  C   -0.175812
     2  C   -0.221255
     3  C   -0.170742
     4  C    0.158727
     5  C   -0.170712
     6  C   -0.220222
     7  H    0.234536
     8  H    0.224150
     9  H    0.275871
    10  H    0.275712
    11  H    0.223846
    12  N    0.487989
    13  O   -0.460290
    14  O   -0.460244
    15  C   -0.301699
    16  C   -0.299954
    17  C   -0.478481
    18  H    0.154156
    19  H    0.138667
    20  H    0.156111
    21  H    0.149423
    22  H    0.155209
    23  H    0.156687
    24  H    0.164087
    25  C   -0.298656
    26  C   -0.299347
    27  C   -0.476054
    28  H    0.153941
    29  H    0.147898
    30  H    0.154267
    31  H    0.146838
    32  H    0.155391
    33  H    0.157459
    34  H    0.162503
 Sum of Mulliken charges =  -0.00000

 Dipole moment (field-independent basis, Debye):
    X=              5.3412    Y=             -0.5149    Z=              0.0758  Tot=              5.3665
 Quadrupole moment (field-independent basis, Debye-Ang):
   XX=           -129.4270   YY=            -95.2531   ZZ=            -89.6055
   XY=              1.5672   XZ=             -0.9585   YZ=              0.0356

 Normal termination of Gaussian 16 at Thu May  6 19:14:13 2021.
