 Gaussian 16, Revision A.03,
 Gaussian 16:  EM64L-G16RevA.03 25-Dec-2016

 -------------
 #p 6-31g* mp2
 -------------

 ------------------------------------------------------
 Input file generated by CHIRIPA (05-May-2021 14:55:23)
 ------------------------------------------------------
 Symbolic Z-matrix:
 Charge =  0 Multiplicity = 1

                         Standard orientation:
 ---------------------------------------------------------------------
 Center     Atomic      Atomic             Coordinates (Angstroms)
 Number     Number       Type             X           Y           Z
 ---------------------------------------------------------------------
      1          6           0        2.071995   -2.016384   -1.659378
      2          6           0        3.069748   -1.047237   -1.511852
      3          6           0        3.035752   -0.150703   -0.439650
      4          6           0        1.984707   -0.252168    0.470460
      5          6           0        0.975870   -1.206730    0.350672
      6          6           0        1.030077   -2.092903   -0.729285
      7          1           0        2.106254   -2.708809   -2.495303
      8          1           0        3.880113   -0.985479   -2.232643
      9          1           0        3.795164    0.609304   -0.301442
     10          1           0        0.180686   -1.243708    1.085337
     11          1           0        0.253845   -2.844536   -0.841340
     12          7           0        1.938019    0.691468    1.609657
     13          8           0        1.001385    0.581321    2.397834
     14          8           0        2.838942    1.523370    1.692813
     15          6           0       -1.892568    0.778364   -0.653500
     16          6           0       -1.959115    2.236396   -1.109240
     17          6           0       -0.635712    2.735104   -1.690350
     18          1           0       -1.097429    0.671360    0.096999
     19          1           0       -1.604604    0.147782   -1.506047
     20          1           0       -2.248215    2.863876   -0.256417
     21          1           0       -2.754315    2.339979   -1.858601
     22          1           0       -0.344889    2.133733   -2.557746
     23          1           0        0.164087    2.660606   -0.946459
     24          1           0       -0.705734    3.779580   -2.009763
     25          6           0       -3.207980    0.265323   -0.070227
     26          6           0       -3.141434   -1.192709    0.385512
     27          6           0       -4.464837   -1.691417    0.966622
     28          1           0       -3.495944    0.895905    0.782320
     29          1           0       -4.003119    0.372326   -0.820727
     30          1           0       -2.346233   -1.296293    1.134874
     31          1           0       -2.852334   -1.820189   -0.467311
     32          1           0       -5.264636   -1.616920    0.222732
     33          1           0       -4.755659   -1.090046    1.834019
     34          1           0       -4.394814   -2.735894    1.286036
 ---------------------------------------------------------------------

 SCF Done:  E(RHF) =  -669.534723889     A.U. after   15 cycles
 E2 =    -0.2094844904D+01 EUMP2 =    -0.67162956879362D+03

 The electronic state is 1-A.
 Alpha  occ. eigenvalues --  -20.60890 -20.60879 -15.85910 -11.31158 -11.27760
 Alpha  occ. eigenvalues --  -11.27724 -11.27493 -11.26731 -11.26707 -11.22037
 Alpha  occ. eigenvalues --  -11.21470 -11.21460 -11.21329 -11.21280 -11.20934
 Alpha  occ. eigenvalues --   -1.59947  -1.39505  -1.19354  -1.08768  -1.08511
 Alpha  occ. eigenvalues --   -1.04741  -1.03618  -0.96038  -0.95616  -0.87063
 Alpha  occ. eigenvalues --   -0.86157  -0.82450  -0.79730  -0.78394  -0.77462
 Alpha  occ. eigenvalues --   -0.72133  -0.71267  -0.70486  -0.65211  -0.65002
 Alpha  occ. eigenvalues --   -0.64676  -0.62100  -0.61006  -0.59432  -0.57671
 Alpha  occ. eigenvalues --   -0.55329  -0.55241  -0.53158  -0.52864  -0.52733
 Alpha  occ. eigenvalues --   -0.52434  -0.49989  -0.48901  -0.48882  -0.48033
 Alpha  occ. eigenvalues --   -0.46759  -0.45879  -0.45768  -0.44819  -0.43850
 Alpha  occ. eigenvalues --   -0.37311  -0.36248
 Alpha virt. eigenvalues --    0.05003   0.11229   0.16448   0.20262   0.23035
 Alpha virt. eigenvalues --    0.23970   0.25150   0.25944   0.27768   0.28125
 Alpha virt. eigenvalues --    0.29625   0.30038   0.31290   0.31802   0.32135

 Mulliken charges:
               1
     1  C   -0.170670
     2  C   -0.219038
     3  C   -0.169977
     4  C    0.160291
     5  C   -0.173183
     6  C   -0.221157
     7  H    0.225501
     8  H    0.223272
     9  H    0.275538
    10  H    0.281706
    11  H    0.224574
    12  N    0.487773
    13  O   -0.461805
    14  O   -0.459207
    15  C   -0.305287
    16  C   -0.299435
    17  C   -0.475808
    18  H    0.157511
    19  H    0.144826
    20  H    0.156795
    21  H    0.149735
    22  H    0.151633
    23  H    0.157267
    24  H    0.161100
    25  C   -0.297063
    26  C   -0.304571
    27  C   -0.475093
    28  H    0.155462
    29  H    0.149173
    30  H    0.150351
    31  H    0.144914
    32  H    0.156187
    33  H    0.159918
    34  H    0.158769
 Sum of Mulliken charges =  -0.00000

 Dipole moment (field-independent basis, Debye):
    X=              0.1496    Y=             -3.2405    Z=             -3.9385  Tot=              5.1024
 Quadrupole moment (field-independent basis, Debye-Ang):
   XX=            -91.1907   YY=            -92.8756   ZZ=            -98.1183
   XY=             -5.1421   XZ=             -9.1819   YZ=             -0.6603

 Normal termination of Gaussian 16 at Thu May  6 11:00:06 2021.
