 Gaussian 16, Revision A.03,
 Gaussian 16:  EM64L-G16RevA.03 25-Dec-2016

 -------------
 #p 6-31g* mp2
 -------------

 ------------------------------------------------------
 Input file generated by CHIRIPA (05-May-2021 14:55:21)
 ------------------------------------------------------
 Symbolic Z-matrix:
 Charge =  0 Multiplicity = 1

                         Standard orientation:
 ---------------------------------------------------------------------
 Center     Atomic      Atomic             Coordinates (Angstroms)
 Number     Number       Type             X           Y           Z
 ---------------------------------------------------------------------
      1          6           0        3.375769    2.543330    0.595650
      2          6           0        3.981283    2.027190   -0.554773
      3          6           0        3.747678    0.706170   -0.948325
      4          6           0        2.899164   -0.074170   -0.164500
      5          6           0        2.281115    0.411198    0.986901
      6          6           0        2.529111    1.735112    1.361466
      7          1           0        3.562829    3.570654    0.893996
      8          1           0        4.639269    2.652560   -1.151441
      9          1           0        4.203423    0.281113   -1.834351
     10          1           0        1.630043   -0.236475    1.561394
     11          1           0        2.057495    2.133283    2.255381
     12          7           0        2.644239   -1.474206   -0.571085
     13          8           0        1.892611   -2.141193    0.136601
     14          8           0        3.200885   -1.878058   -1.589754
     15          6           0       -4.320562   -0.066232   -0.381627
     16          6           0       -5.078258    1.235768   -0.119560
     17          6           0       -6.187147    1.490291   -1.141018
     18          1           0       -3.890340   -0.035654   -1.392032
     19          1           0       -5.030900   -0.904486   -0.369594
     20          1           0       -4.366493    2.071161   -0.130709
     21          1           0       -5.506564    1.202167    0.890411
     22          1           0       -6.919281    0.676446   -1.125655
     23          1           0       -5.772732    1.550377   -2.152577
     24          1           0       -6.715821    2.426160   -0.934835
     25          6           0       -3.208855   -0.334595    0.631200
     26          6           0       -2.451159   -1.636594    0.369132
     27          6           0       -1.342270   -1.891118    1.390591
     28          1           0       -2.498517    0.503659    0.619168
     29          1           0       -3.639076   -0.365172    1.641606
     30          1           0       -2.022853   -1.602994   -0.640838
     31          1           0       -3.162924   -2.471988    0.380282
     32          1           0       -1.756685   -1.951204    2.402151
     33          1           0       -0.610136   -1.077272    1.375228
     34          1           0       -0.813596   -2.826987    1.184408
 ---------------------------------------------------------------------

 SCF Done:  E(RHF) =  -669.535131284     A.U. after   15 cycles
 E2 =    -0.2091937165D+01 EUMP2 =    -0.67162706844944D+03

 The electronic state is 1-A.
 Alpha  occ. eigenvalues --  -20.60830 -20.60822 -15.85870 -11.31237 -11.27803
 Alpha  occ. eigenvalues --  -11.27782 -11.27545 -11.26822 -11.26810 -11.21494
 Alpha  occ. eigenvalues --  -11.21179 -11.21114 -11.21050 -11.20981 -11.20356
 Alpha  occ. eigenvalues --   -1.59901  -1.39454  -1.19408  -1.08805  -1.08155
 Alpha  occ. eigenvalues --   -1.04811  -1.03191  -0.95705  -0.95572  -0.86661
 Alpha  occ. eigenvalues --   -0.86207  -0.82472  -0.79282  -0.77979  -0.77504
 Alpha  occ. eigenvalues --   -0.72100  -0.71222  -0.70522  -0.65065  -0.64863
 Alpha  occ. eigenvalues --   -0.64750  -0.62188  -0.60580  -0.58996  -0.57230
 Alpha  occ. eigenvalues --   -0.55334  -0.54932  -0.53141  -0.52923  -0.52266
 Alpha  occ. eigenvalues --   -0.52052  -0.49642  -0.48855  -0.48811  -0.47577
 Alpha  occ. eigenvalues --   -0.46322  -0.45509  -0.45439  -0.44823  -0.43420
 Alpha  occ. eigenvalues --   -0.37389  -0.36410
 Alpha virt. eigenvalues --    0.04984   0.11177   0.16487   0.21056   0.23138
 Alpha virt. eigenvalues --    0.24542   0.26052   0.27119   0.27721   0.27840
 Alpha virt. eigenvalues --    0.29244   0.30541   0.31491   0.32021   0.32495

 Mulliken charges:
               1
     1  C   -0.170649
     2  C   -0.218532
     3  C   -0.170678
     4  C    0.156454
     5  C   -0.174664
     6  C   -0.220203
     7  H    0.225811
     8  H    0.223620
     9  H    0.275686
    10  H    0.283682
    11  H    0.224123
    12  N    0.489585
    13  O   -0.461499
    14  O   -0.460252
    15  C   -0.297983
    16  C   -0.299087
    17  C   -0.475511
    18  H    0.150232
    19  H    0.150113
    20  H    0.149699
    21  H    0.151105
    22  H    0.155657
    23  H    0.155263
    24  H    0.159017
    25  C   -0.297554
    26  C   -0.300732
    27  C   -0.473515
    28  H    0.144560
    29  H    0.147612
    30  H    0.155886
    31  H    0.151373
    32  H    0.146770
    33  H    0.144778
    34  H    0.179832
 Sum of Mulliken charges =  -0.00000

 Dipole moment (field-independent basis, Debye):
    X=              1.0269    Y=              4.7942    Z=              1.3690  Tot=              5.0905
 Quadrupole moment (field-independent basis, Debye-Ang):
   XX=            -88.9423   YY=            -95.4924   ZZ=            -92.6927
   XY=             15.7086   XZ=              0.5057   YZ=             -1.5115

 Normal termination of Gaussian 16 at Thu May  6 07:47:49 2021.
