 Gaussian 16, Revision A.03,
 Gaussian 16:  EM64L-G16RevA.03 25-Dec-2016

 -------------
 #p 6-31g* mp2
 -------------

 ------------------------------------------------------
 Input file generated by CHIRIPA (05-May-2021 14:57:22)
 ------------------------------------------------------
 Symbolic Z-matrix:
 Charge =  0 Multiplicity = 1

                         Standard orientation:
 ---------------------------------------------------------------------
 Center     Atomic      Atomic             Coordinates (Angstroms)
 Number     Number       Type             X           Y           Z
 ---------------------------------------------------------------------
      1          6           0       -2.509111    1.816191    1.609861
      2          6           0       -3.275472    1.892721    0.442233
      3          6           0       -3.326864    0.813753   -0.445311
      4          6           0       -2.596231   -0.331521   -0.132560
      5          6           0       -1.823470   -0.438255    1.022749
      6          6           0       -1.786829    0.652998    1.895888
      7          1           0       -2.474918    2.659132    2.293731
      8          1           0       -3.837424    2.794811    0.217532
      9          1           0       -3.912023    0.846100   -1.356332
     10          1           0       -1.274015   -1.350800    1.219674
     11          1           0       -1.190811    0.590744    2.801940
     12          7           0       -2.642829   -1.480279   -1.064538
     13          8           0       -1.990084   -2.478040   -0.766152
     14          8           0       -3.331215   -1.361163   -2.075762
     15          6           0        2.387534    2.315435   -1.286952
     16          6           0        3.383701    1.395262   -1.629670
     17          6           0        3.504400    0.187956   -0.935124
     18          6           0        2.607984   -0.067909    0.101343
     19          6           0        1.604969    0.828705    0.466490
     20          6           0        1.502907    2.029723   -0.241809
     21          1           0        2.301011    3.250856   -1.831835
     22          1           0        4.072104    1.614486   -2.440896
     23          1           0        4.266324   -0.542213   -1.179542
     24          1           0        0.933392    0.582110    1.279873
     25          1           0        0.728300    2.742475    0.026542
     26          7           0        2.725897   -1.342701    0.843907
     27          8           0        1.923781   -1.544427    1.753057
     28          8           0        3.618203   -2.116019    0.502720
 ---------------------------------------------------------------------

 SCF Done:  E(RHF) =  -868.337433802     A.U. after   16 cycles
 E2 =    -0.2602713156D+01 EUMP2 =    -0.87094014695831D+03

 The electronic state is 1-A.
 Alpha  occ. eigenvalues --  -20.61033 -20.60976 -20.60855 -20.60824 -15.86042
 Alpha  occ. eigenvalues --  -15.85902 -11.31458 -11.31292 -11.28122 -11.27963
 Alpha  occ. eigenvalues --  -11.27949 -11.27842 -11.27836 -11.27609 -11.27177
 Alpha  occ. eigenvalues --  -11.27108 -11.26878 -11.26847  -1.60054  -1.59918
 Alpha  occ. eigenvalues --   -1.39623  -1.39462  -1.19708  -1.19464  -1.09070
 Alpha  occ. eigenvalues --   -1.08886  -1.05162  -1.04833  -0.95855  -0.95734
 Alpha  occ. eigenvalues --   -0.86506  -0.86279  -0.82677  -0.82580  -0.77780
 Alpha  occ. eigenvalues --   -0.77535  -0.72279  -0.72111  -0.71360  -0.71250
 Alpha  occ. eigenvalues --   -0.70780  -0.70612  -0.65359  -0.65166  -0.65091
 Alpha  occ. eigenvalues --   -0.64861  -0.62537  -0.62120  -0.55633  -0.55413
 Alpha  occ. eigenvalues --   -0.53578  -0.53210  -0.53106  -0.52860  -0.49041
 Alpha  occ. eigenvalues --   -0.48997  -0.48899  -0.48848  -0.45046  -0.44823
 Alpha  occ. eigenvalues --   -0.37754  -0.37462  -0.36901  -0.36230
 Alpha virt. eigenvalues --    0.04658   0.05047   0.10630   0.11361   0.16111
 Alpha virt. eigenvalues --    0.16368   0.20534   0.21813   0.26063   0.27360
 Alpha virt. eigenvalues --    0.28012   0.28879   0.30375   0.31354   0.32481

 Mulliken charges:
               1
     1  C   -0.175275
     2  C   -0.221131
     3  C   -0.170087
     4  C    0.159553
     5  C   -0.173407
     6  C   -0.237326
     7  H    0.225696
     8  H    0.223418
     9  H    0.276586
    10  H    0.294389
    11  H    0.230348
    12  N    0.487438
    13  O   -0.453790
    14  O   -0.461689
    15  C   -0.170106
    16  C   -0.218467
    17  C   -0.168864
    18  C    0.159962
    19  C   -0.170841
    20  C   -0.221434
    21  H    0.225207
    22  H    0.224402
    23  H    0.276839
    24  H    0.272075
    25  H    0.220604
    26  N    0.490468
    27  O   -0.469677
    28  O   -0.454892
 Sum of Mulliken charges =  -0.00000

 Dipole moment (field-independent basis, Debye):
    X=             -0.2378    Y=              8.2956    Z=              0.5508  Tot=              8.3172
 Quadrupole moment (field-independent basis, Debye-Ang):
   XX=           -103.2474   YY=           -107.5103   ZZ=           -103.8000
   XY=             -1.7168   XZ=            -16.2757   YZ=             -2.0753

 Normal termination of Gaussian 16 at Thu May  6 17:54:42 2021.
