 Gaussian 16, Revision A.03,
 Gaussian 16:  EM64L-G16RevA.03 25-Dec-2016

 -------------
 #p 6-31g* mp2
 -------------

 ------------------------------------------------------
 Input file generated by CHIRIPA (05-May-2021 14:53:13)
 ------------------------------------------------------
 Symbolic Z-matrix:
 Charge =  0 Multiplicity = 1

                         Standard orientation:
 ---------------------------------------------------------------------
 Center     Atomic      Atomic             Coordinates (Angstroms)
 Number     Number       Type             X           Y           Z
 ---------------------------------------------------------------------
      1          6           0        4.274153   -0.631602    0.015900
      2          6           0        5.616327   -1.329020    0.239869
      3          6           0        5.475479   -2.842211    0.407823
      4          1           0        3.609921   -0.847585    0.863893
      5          1           0        3.791962   -1.057042   -0.875104
      6          1           0        6.096474   -0.901432    1.129388
      7          1           0        6.277507   -1.111194   -0.608664
      8          1           0        5.019281   -3.287779   -0.482094
      9          1           0        4.837219   -3.076825    1.265833
     10          1           0        6.446921   -3.320649    0.566749
     11          6           0        4.398537    0.881498   -0.153758
     12          6           0        3.056363    1.578916   -0.377727
     13          6           0        3.197211    3.092107   -0.545681
     14          1           0        4.880728    1.306938    0.737246
     15          1           0        5.062768    1.097481   -1.001751
     16          1           0        2.395183    1.361090    0.470807
     17          1           0        2.576216    1.151328   -1.267246
     18          1           0        3.835471    3.326721   -1.403691
     19          1           0        3.653409    3.537675    0.344237
     20          1           0        2.225769    3.570545   -0.704607
     21          6           0       -1.006657    0.690896    0.326748
     22          6           0       -2.061933    1.469139    0.813830
     23          6           0       -3.385183    1.042117    0.668199
     24          6           0       -3.617966   -0.173846    0.027467
     25          6           0       -2.588036   -0.971657   -0.468545
     26          6           0       -1.272607   -0.524875   -0.311760
     27          1           0        0.018238    1.030293    0.444209
     28          1           0       -1.858369    2.413754    1.310127
     29          1           0       -4.221084    1.624817    1.035824
     30          1           0       -2.822328   -1.908755   -0.958824
     31          1           0       -0.455050   -1.131343   -0.691027
     32          7           0       -5.014692   -0.636375   -0.132609
     33          8           0       -5.193290   -1.711474   -0.700855
     34          8           0       -5.904401    0.084951    0.313199
 ---------------------------------------------------------------------

 SCF Done:  E(RHF) =  -669.535649303     A.U. after   15 cycles
 E2 =    -0.2091084769D+01 EUMP2 =    -0.67162673407165D+03

 The electronic state is 1-A.
 Alpha  occ. eigenvalues --  -20.60706 -20.60701 -15.85760 -11.31107 -11.27681
 Alpha  occ. eigenvalues --  -11.27676 -11.27358 -11.26681 -11.26667 -11.22901
 Alpha  occ. eigenvalues --  -11.22377 -11.22329 -11.22270 -11.22127 -11.21686
 Alpha  occ. eigenvalues --   -1.59783  -1.39336  -1.19277  -1.09397  -1.08668
 Alpha  occ. eigenvalues --   -1.04681  -1.04464  -0.96872  -0.95509  -0.87889
 Alpha  occ. eigenvalues --   -0.86075  -0.82350  -0.80572  -0.79207  -0.77398
 Alpha  occ. eigenvalues --   -0.71977  -0.71106  -0.70383  -0.66019  -0.64926
 Alpha  occ. eigenvalues --   -0.64685  -0.62031  -0.61855  -0.60279  -0.58505
 Alpha  occ. eigenvalues --   -0.56141  -0.55170  -0.53571  -0.53290  -0.53010
 Alpha  occ. eigenvalues --   -0.52770  -0.50808  -0.48861  -0.48734  -0.48723
 Alpha  occ. eigenvalues --   -0.47598  -0.46729  -0.46640  -0.44746  -0.44711
 Alpha  occ. eigenvalues --   -0.37247  -0.36292
 Alpha virt. eigenvalues --    0.05136   0.11361   0.16622   0.19757   0.22372
 Alpha virt. eigenvalues --    0.23589   0.25136   0.25761   0.26700   0.27839
 Alpha virt. eigenvalues --    0.29032   0.30297   0.30739   0.31081   0.32075

 Mulliken charges:
               1
     1  C   -0.299375
     2  C   -0.300232
     3  C   -0.476394
     4  H    0.147715
     5  H    0.148009
     6  H    0.153719
     7  H    0.153938
     8  H    0.155343
     9  H    0.155596
    10  H    0.163056
    11  C   -0.297165
    12  C   -0.307101
    13  C   -0.476295
    14  H    0.152556
    15  H    0.153809
    16  H    0.144535
    17  H    0.152336
    18  H    0.160606
    19  H    0.158216
    20  H    0.159114
    21  C   -0.178042
    22  C   -0.221417
    23  C   -0.170670
    24  C    0.158095
    25  C   -0.170804
    26  C   -0.222452
    27  H    0.238822
    28  H    0.223396
    29  H    0.275223
    30  H    0.275265
    31  H    0.223965
    32  N    0.488017
    33  O   -0.460691
    34  O   -0.460696
 Sum of Mulliken charges =  -0.00000

 Dipole moment (field-independent basis, Debye):
    X=              5.2291    Y=              1.6564    Z=              0.5330  Tot=              5.5110
 Quadrupole moment (field-independent basis, Debye-Ang):
   XX=           -129.3108   YY=            -93.0738   ZZ=            -93.3124
   XY=             -8.1650   XZ=             -3.0076   YZ=              2.3863

 Normal termination of Gaussian 16 at Thu May  6 10:28:20 2021.
