 Gaussian 16, Revision A.03,
 Gaussian 16:  EM64L-G16RevA.03 25-Dec-2016

 -------------
 #p 6-31g* mp2
 -------------

 ------------------------------------------------------
 Input file generated by CHIRIPA (05-May-2021 14:57:25)
 ------------------------------------------------------
 Symbolic Z-matrix:
 Charge =  0 Multiplicity = 1

                         Standard orientation:
 ---------------------------------------------------------------------
 Center     Atomic      Atomic             Coordinates (Angstroms)
 Number     Number       Type             X           Y           Z
 ---------------------------------------------------------------------
      1          6           0       -3.879874   -1.689172    0.632498
      2          6           0       -3.757756   -0.687672    1.601315
      3          6           0       -3.093227    0.506828    1.307852
      4          6           0       -2.560451    0.667098    0.029669
      5          6           0       -2.665689   -0.312022   -0.957013
      6          6           0       -3.334413   -1.498487   -0.641327
      7          1           0       -4.397725   -2.613968    0.869099
      8          1           0       -4.180380   -0.833012    2.591420
      9          1           0       -2.984189    1.298657    2.038972
     10          1           0       -2.233988   -0.138180   -1.935190
     11          1           0       -3.427732   -2.274536   -1.395704
     12          7           0       -1.854724    1.927408   -0.292770
     13          8           0       -1.394134    2.044157   -1.426288
     14          8           0       -1.775527    2.774627    0.594126
     15          6           0        4.410160    1.192916    0.711649
     16          6           0        3.498541    1.559113   -0.284027
     17          6           0        2.533823    0.651770   -0.731908
     18          6           0        2.509185   -0.619121   -0.159615
     19          6           0        3.403774   -1.013791    0.833981
     20          6           0        4.359956   -0.090106    1.266497
     21          1           0        5.156260    1.904109    1.053606
     22          1           0        3.535183    2.554839   -0.716731
     23          1           0        1.816008    0.908957   -1.501332
     24          1           0        3.342513   -2.013606    1.246335
     25          1           0        5.066666   -0.377257    2.039898
     26          7           0        1.492399   -1.588335   -0.625634
     27          8           0        1.491576   -2.701891   -0.105414
     28          8           0        0.715520   -1.216096   -1.502295
 ---------------------------------------------------------------------

 SCF Done:  E(RHF) =  -868.340636468     A.U. after   16 cycles
 E2 =    -0.2599407536D+01 EUMP2 =    -0.87094004400421D+03

 The electronic state is 1-A.
 Alpha  occ. eigenvalues --  -20.60728 -20.60723 -20.60385 -20.60380 -15.85757
 Alpha  occ. eigenvalues --  -15.85413 -11.30832 -11.30390 -11.27440 -11.27260
 Alpha  occ. eigenvalues --  -11.27107 -11.27045 -11.26846 -11.26695 -11.26403
 Alpha  occ. eigenvalues --  -11.26265 -11.25980 -11.25804  -1.59797  -1.59459
 Alpha  occ. eigenvalues --   -1.39357  -1.39018  -1.18992  -1.18565  -1.08453
 Alpha  occ. eigenvalues --   -1.08044  -1.04339  -1.03904  -0.95330  -0.94930
 Alpha  occ. eigenvalues --   -0.85760  -0.85334  -0.82165  -0.81775  -0.77236
 Alpha  occ. eigenvalues --   -0.76840  -0.72016  -0.71649  -0.71121  -0.70750
 Alpha  occ. eigenvalues --   -0.70099  -0.69689  -0.64649  -0.64344  -0.64226
 Alpha  occ. eigenvalues --   -0.63923  -0.61671  -0.61253  -0.54882  -0.54474
 Alpha  occ. eigenvalues --   -0.52709  -0.52427  -0.52256  -0.52005  -0.48757
 Alpha  occ. eigenvalues --   -0.48733  -0.48407  -0.48374  -0.44853  -0.44475
 Alpha  occ. eigenvalues --   -0.36989  -0.36555  -0.35928  -0.35440
 Alpha virt. eigenvalues --    0.05180   0.05709   0.11717   0.12190   0.16806
 Alpha virt. eigenvalues --    0.17183   0.21849   0.22268   0.27828   0.28137
 Alpha virt. eigenvalues --    0.28616   0.29245   0.31351   0.31771   0.32786

 Mulliken charges:
               1
     1  C   -0.169256
     2  C   -0.219882
     3  C   -0.172469
     4  C    0.151394
     5  C   -0.154843
     6  C   -0.216397
     7  H    0.224033
     8  H    0.219710
     9  H    0.271134
    10  H    0.281524
    11  H    0.226120
    12  N    0.488256
    13  O   -0.464147
    14  O   -0.465188
    15  C   -0.170129
    16  C   -0.218075
    17  C   -0.172156
    18  C    0.155261
    19  C   -0.171632
    20  C   -0.219237
    21  H    0.225295
    22  H    0.228183
    23  H    0.287056
    24  H    0.272700
    25  H    0.221543
    26  N    0.489439
    27  O   -0.463302
    28  O   -0.464936
 Sum of Mulliken charges =  -0.00000

 Dipole moment (field-independent basis, Debye):
    X=              1.1562    Y=             -1.0596    Z=              2.5455  Tot=              2.9898
 Quadrupole moment (field-independent basis, Debye-Ang):
   XX=            -74.9474   YY=           -113.2760   ZZ=            -99.5872
   XY=             15.5698   XZ=              1.3504   YZ=             -1.6703

 Normal termination of Gaussian 16 at Fri May  7 06:31:48 2021.
