 Gaussian 16, Revision A.03,
 Gaussian 16:  EM64L-G16RevA.03 25-Dec-2016

 -------------
 #p 6-31g* mp2
 -------------

 ------------------------------------------------------
 Input file generated by CHIRIPA (05-May-2021 14:55:20)
 ------------------------------------------------------
 Symbolic Z-matrix:
 Charge =  0 Multiplicity = 1

                         Standard orientation:
 ---------------------------------------------------------------------
 Center     Atomic      Atomic             Coordinates (Angstroms)
 Number     Number       Type             X           Y           Z
 ---------------------------------------------------------------------
      1          6           0        1.374697   -1.240588    1.855222
      2          6           0        0.858869   -0.274503    0.985094
      3          6           0        1.671449    0.306286    0.006858
      4          6           0        3.001187   -0.104367   -0.073461
      5          6           0        3.544425   -1.064447    0.778847
      6          6           0        2.713468   -1.631787    1.749508
      7          1           0        0.736327   -1.686535    2.612198
      8          1           0       -0.180458    0.031239    1.064880
      9          1           0        1.297973    1.056362   -0.679669
     10          1           0        4.584487   -1.348865    0.674941
     11          1           0        3.116777   -2.381834    2.423909
     12          7           0        3.871157    0.503369   -1.105066
     13          8           0        5.039273    0.124394   -1.155252
     14          8           0        3.368450    1.347182   -1.843919
     15          6           0       -3.793972    0.994676    0.043230
     16          6           0       -2.572791    1.726155    0.601475
     17          6           0       -2.860602    3.191342    0.930391
     18          1           0       -4.142626    1.513161   -0.860407
     19          1           0       -4.613259    1.053490    0.773096
     20          1           0       -1.755609    1.664791   -0.128638
     21          1           0       -2.226887    1.205757    1.503779
     22          1           0       -3.658326    3.269236    1.676161
     23          1           0       -3.184370    3.730877    0.034469
     24          1           0       -1.974082    3.695171    1.328005
     25          6           0       -3.522010   -0.471081   -0.290423
     26          6           0       -4.743192   -1.202560   -0.848669
     27          6           0       -4.455380   -2.667747   -1.177584
     28          1           0       -2.702723   -0.529895   -1.020289
     29          1           0       -3.173356   -0.989565    0.613214
     30          1           0       -5.089095   -0.682162   -1.750972
     31          1           0       -5.560373   -1.141195   -0.118555
     32          1           0       -4.131613   -3.207282   -0.281662
     33          1           0       -3.657656   -2.745641   -1.923354
     34          1           0       -5.341900   -3.171576   -1.575198
 ---------------------------------------------------------------------

 SCF Done:  E(RHF) =  -669.535334198     A.U. after   15 cycles
 E2 =    -0.2091972771D+01 EUMP2 =    -0.67162730696918D+03

 The electronic state is 1-A.
 Alpha  occ. eigenvalues --  -20.60694 -20.60689 -15.85744 -11.31082 -11.27643
 Alpha  occ. eigenvalues --  -11.27621 -11.27362 -11.26664 -11.26533 -11.22744
 Alpha  occ. eigenvalues --  -11.22265 -11.22224 -11.22180 -11.21844 -11.21595
 Alpha  occ. eigenvalues --   -1.59769  -1.39324  -1.19239  -1.09281  -1.08641
 Alpha  occ. eigenvalues --   -1.04638  -1.04313  -0.96715  -0.95486  -0.87739
 Alpha  occ. eigenvalues --   -0.86039  -0.82327  -0.80442  -0.79125  -0.77349
 Alpha  occ. eigenvalues --   -0.71964  -0.71092  -0.70360  -0.65903  -0.64888
 Alpha  occ. eigenvalues --   -0.64642  -0.62015  -0.61705  -0.60083  -0.58346
 Alpha  occ. eigenvalues --   -0.55982  -0.55148  -0.53438  -0.53146  -0.52969
 Alpha  occ. eigenvalues --   -0.52714  -0.50657  -0.48789  -0.48721  -0.48620
 Alpha  occ. eigenvalues --   -0.47468  -0.46587  -0.46541  -0.44736  -0.44569
 Alpha  occ. eigenvalues --   -0.37224  -0.36233
 Alpha virt. eigenvalues --    0.05154   0.11396   0.16641   0.19964   0.22560
 Alpha virt. eigenvalues --    0.23625   0.24650   0.25170   0.27231   0.28208
 Alpha virt. eigenvalues --    0.29264   0.30218   0.31012   0.31376   0.31875

 Mulliken charges:
               1
     1  C   -0.173457
     2  C   -0.226490
     3  C   -0.176223
     4  C    0.159134
     5  C   -0.171692
     6  C   -0.218281
     7  H    0.224977
     8  H    0.239114
     9  H    0.274974
    10  H    0.275068
    11  H    0.222772
    12  N    0.488158
    13  O   -0.460808
    14  O   -0.460919
    15  C   -0.297568
    16  C   -0.307620
    17  C   -0.475098
    18  H    0.154605
    19  H    0.152376
    20  H    0.149541
    21  H    0.146605
    22  H    0.157863
    23  H    0.160034
    24  H    0.162973
    25  C   -0.300583
    26  C   -0.300129
    27  C   -0.476300
    28  H    0.150872
    29  H    0.144143
    30  H    0.154979
    31  H    0.153128
    32  H    0.153822
    33  H    0.157249
    34  H    0.162782
 Sum of Mulliken charges =  -0.00000

 Dipole moment (field-independent basis, Debye):
    X=             -3.3577    Y=             -2.0606    Z=              3.5751  Tot=              5.3199
 Quadrupole moment (field-independent basis, Debye-Ang):
   XX=           -109.6204   YY=            -93.9112   ZZ=            -94.6290
   XY=             -8.7667   XZ=             12.5686   YZ=             -1.7543

 Normal termination of Gaussian 16 at Thu May  6 19:06:02 2021.
