 Gaussian 16, Revision A.03,
 Gaussian 16:  EM64L-G16RevA.03 25-Dec-2016

 -------------
 #p 6-31g* mp2
 -------------

 ------------------------------------------------------
 Input file generated by CHIRIPA (05-May-2021 14:53:13)
 ------------------------------------------------------
 Symbolic Z-matrix:
 Charge =  0 Multiplicity = 1

                         Standard orientation:
 ---------------------------------------------------------------------
 Center     Atomic      Atomic             Coordinates (Angstroms)
 Number     Number       Type             X           Y           Z
 ---------------------------------------------------------------------
      1          6           0       -2.936667    0.395294   -0.347912
      2          6           0       -2.787311    1.886151   -0.652910
      3          6           0       -1.356534    2.272094   -1.029366
      4          1           0       -2.255105    0.124818    0.470171
      5          1           0       -2.618077   -0.184981   -1.224939
      6          1           0       -3.107396    2.463471    0.223939
      7          1           0       -3.469448    2.153150   -1.470233
      8          1           0       -1.030122    1.721704   -1.917694
      9          1           0       -0.666013    2.033788   -0.213895
     10          1           0       -1.272450    3.342144   -1.243335
     11          6           0       -4.361393   -0.005981    0.030059
     12          6           0       -4.510749   -1.496838    0.335056
     13          6           0       -5.941526   -1.882781    0.711512
     14          1           0       -4.679983    0.574294    0.907086
     15          1           0       -5.042956    0.264495   -0.788024
     16          1           0       -3.828613   -1.763837    1.152380
     17          1           0       -4.190664   -2.074158   -0.541792
     18          1           0       -6.632047   -1.644475   -0.103958
     19          1           0       -6.267938   -1.332391    1.599840
     20          1           0       -6.025610   -2.952831    0.925482
     21          6           0        2.255212    2.088190    1.120357
     22          6           0        2.171036    1.892161   -0.262035
     23          6           0        2.498574    0.655079   -0.824972
     24          6           0        2.908384   -0.368656    0.027853
     25          6           0        3.002349   -0.204369    1.408965
     26          6           0        2.669869    1.041145    1.949982
     27          1           0        1.998853    3.052459    1.549145
     28          1           0        1.849316    2.703509   -0.908762
     29          1           0        2.442319    0.475949   -1.891820
     30          1           0        3.326294   -1.032127    2.028072
     31          1           0        2.736174    1.190514    3.023917
     32          7           0        3.257751   -1.682762   -0.556500
     33          8           0        3.616060   -2.568662    0.216437
     34          8           0        3.166659   -1.801975   -1.776388
 ---------------------------------------------------------------------

 SCF Done:  E(RHF) =  -669.534856287     A.U. after   15 cycles
 E2 =    -0.2092170306D+01 EUMP2 =    -0.67162702659345D+03

 The electronic state is 1-A.
 Alpha  occ. eigenvalues --  -20.60769 -20.60764 -15.85821 -11.31198 -11.27745
 Alpha  occ. eigenvalues --  -11.27725 -11.27486 -11.26792 -11.26738 -11.21974
 Alpha  occ. eigenvalues --  -11.21677 -11.21610 -11.21574 -11.21525 -11.21130
 Alpha  occ. eigenvalues --   -1.59843  -1.39396  -1.19367  -1.08768  -1.08645
 Alpha  occ. eigenvalues --   -1.04769  -1.03778  -0.96251  -0.95593  -0.87293
 Alpha  occ. eigenvalues --   -0.86154  -0.82421  -0.79858  -0.78439  -0.77461
 Alpha  occ. eigenvalues --   -0.72040  -0.71165  -0.70466  -0.65285  -0.65013
 Alpha  occ. eigenvalues --   -0.64765  -0.62112  -0.61180  -0.59628  -0.57856
 Alpha  occ. eigenvalues --   -0.55563  -0.55264  -0.53314  -0.53010  -0.52798
 Alpha  occ. eigenvalues --   -0.52474  -0.50174  -0.48799  -0.48794  -0.48155
 Alpha  occ. eigenvalues --   -0.46870  -0.45987  -0.45897  -0.44799  -0.44034
 Alpha  occ. eigenvalues --   -0.37322  -0.36303
 Alpha virt. eigenvalues --    0.05045   0.11236   0.16512   0.21097   0.22669
 Alpha virt. eigenvalues --    0.24085   0.26218   0.26582   0.27339   0.28192
 Alpha virt. eigenvalues --    0.28520   0.30194   0.31140   0.31785   0.31996

 Mulliken charges:
               1
     1  C   -0.298858
     2  C   -0.299099
     3  C   -0.483346
     4  H    0.150259
     5  H    0.152095
     6  H    0.150734
     7  H    0.153065
     8  H    0.154602
     9  H    0.160321
    10  H    0.154399
    11  C   -0.298523
    12  C   -0.300027
    13  C   -0.475887
    14  H    0.148507
    15  H    0.150029
    16  H    0.152316
    17  H    0.154045
    18  H    0.155306
    19  H    0.154430
    20  H    0.161495
    21  C   -0.173544
    22  C   -0.215378
    23  C   -0.171647
    24  C    0.158848
    25  C   -0.171658
    26  C   -0.218247
    27  H    0.225994
    28  H    0.227967
    29  H    0.275562
    30  H    0.275486
    31  H    0.223397
    32  N    0.488074
    33  O   -0.460410
    34  O   -0.460307
 Sum of Mulliken charges =  -0.00000

 Dipole moment (field-independent basis, Debye):
    X=             -1.2391    Y=              4.5718    Z=              2.0622  Tot=              5.1661
 Quadrupole moment (field-independent basis, Debye-Ang):
   XX=           -103.3772   YY=            -98.4994   ZZ=            -89.7153
   XY=             13.4993   XZ=              7.5801   YZ=             -2.0620

 Normal termination of Gaussian 16 at Thu May  6 20:16:15 2021.
