 Gaussian 16, Revision A.03,
 Gaussian 16:  EM64L-G16RevA.03 25-Dec-2016

 -------------
 #p 6-31g* mp2
 -------------

 ------------------------------------------------------
 Input file generated by CHIRIPA (05-May-2021 14:57:22)
 ------------------------------------------------------
 Symbolic Z-matrix:
 Charge =  0 Multiplicity = 1

                         Standard orientation:
 ---------------------------------------------------------------------
 Center     Atomic      Atomic             Coordinates (Angstroms)
 Number     Number       Type             X           Y           Z
 ---------------------------------------------------------------------
      1          6           0        4.281847    2.311357    0.446566
      2          6           0        2.974212    1.880911    0.694211
      3          6           0        2.578404    0.582828    0.358260
      4          6           0        3.520308   -0.262209   -0.226564
      5          6           0        4.830459    0.137218   -0.485892
      6          6           0        5.204171    1.439674   -0.141658
      7          1           0        4.580739    3.321438    0.710758
      8          1           0        2.255799    2.555703    1.150919
      9          1           0        1.572538    0.223616    0.538867
     10          1           0        5.524223   -0.558295   -0.942368
     11          1           0        6.220375    1.771242   -0.335147
     12          7           0        3.112979   -1.638746   -0.586605
     13          8           0        3.961698   -2.363935   -1.100817
     14          8           0        1.952709   -1.966421   -0.347776
     15          6           0       -5.325629    1.044402   -1.358034
     16          6           0       -4.209086    1.795229   -0.975788
     17          6           0       -3.239696    1.246336   -0.131070
     18          6           0       -3.419399   -0.062214    0.314682
     19          6           0       -4.520872   -0.835652   -0.048419
     20          6           0       -5.477690   -0.266332   -0.893948
     21          1           0       -6.073791    1.478729   -2.014546
     22          1           0       -4.088385    2.813405   -1.334667
     23          1           0       -2.365629    1.805214    0.180506
     24          1           0       -4.613709   -1.848054    0.325535
     25          1           0       -6.343798   -0.851779   -1.189164
     26          7           0       -2.399803   -0.654114    1.209377
     27          8           0       -2.581325   -1.809115    1.588402
     28          8           0       -1.438429    0.048161    1.514671
 ---------------------------------------------------------------------

 SCF Done:  E(RHF) =  -868.338570355     A.U. after   16 cycles
 E2 =    -0.2598995894D+01 EUMP2 =    -0.87093756624888D+03

 The electronic state is 1-A.
 Alpha  occ. eigenvalues --  -20.60910 -20.60824 -20.60003 -20.59960 -15.85912
 Alpha  occ. eigenvalues --  -15.85037 -11.31241 -11.30427 -11.27855 -11.27771
 Alpha  occ. eigenvalues --  -11.27543 -11.27090 -11.26873 -11.26854 -11.26843
 Alpha  occ. eigenvalues --  -11.26791 -11.26122 -11.26024  -1.59907  -1.59066
 Alpha  occ. eigenvalues --   -1.39474  -1.38612  -1.19407  -1.18633  -1.08805
 Alpha  occ. eigenvalues --   -1.08042  -1.04814  -1.04030  -0.95650  -0.94855
 Alpha  occ. eigenvalues --   -0.86214  -0.85435  -0.82496  -0.81677  -0.77547
 Alpha  occ. eigenvalues --   -0.76697  -0.72145  -0.71262  -0.71195  -0.70527
 Alpha  occ. eigenvalues --   -0.70395  -0.69743  -0.65072  -0.64823  -0.64286
 Alpha  occ. eigenvalues --   -0.64042  -0.62171  -0.61343  -0.55316  -0.54578
 Alpha  occ. eigenvalues --   -0.53132  -0.52913  -0.52387  -0.52114  -0.48899
 Alpha  occ. eigenvalues --   -0.48861  -0.48034  -0.47993  -0.44879  -0.44012
 Alpha  occ. eigenvalues --   -0.37378  -0.36663  -0.36412  -0.35644
 Alpha virt. eigenvalues --    0.04976   0.05815   0.11244   0.12001   0.16443
 Alpha virt. eigenvalues --    0.17272   0.21284   0.22154   0.27171   0.27733
 Alpha virt. eigenvalues --    0.28379   0.29152   0.30944   0.31658   0.32400

 Mulliken charges:
               1
     1  C   -0.171244
     2  C   -0.221527
     3  C   -0.177395
     4  C    0.156626
     5  C   -0.171362
     6  C   -0.219659
     7  H    0.222252
     8  H    0.223008
     9  H    0.294629
    10  H    0.273392
    11  H    0.220345
    12  N    0.487025
    13  O   -0.465056
    14  O   -0.454283
    15  C   -0.170548
    16  C   -0.218094
    17  C   -0.169923
    18  C    0.160170
    19  C   -0.169594
    20  C   -0.218256
    21  H    0.225833
    22  H    0.222274
    23  H    0.269836
    24  H    0.277557
    25  H    0.224440
    26  N    0.492340
    27  O   -0.451698
    28  O   -0.471089
 Sum of Mulliken charges =  -0.00000

 Dipole moment (field-independent basis, Debye):
    X=             -2.5539    Y=              6.7391    Z=             -1.8254  Tot=              7.4344
 Quadrupole moment (field-independent basis, Debye-Ang):
   XX=            -65.7657   YY=           -104.7962   ZZ=           -108.3913
   XY=             11.6997   XZ=             12.3383   YZ=             -0.6103

 Normal termination of Gaussian 16 at Thu May  6 09:42:28 2021.
