 Gaussian 16, Revision A.03,
 Gaussian 16:  EM64L-G16RevA.03 25-Dec-2016

 -------------
 #p 6-31g* mp2
 -------------

 ------------------------------------------------------
 Input file generated by CHIRIPA (05-May-2021 14:51:10)
 ------------------------------------------------------
 Symbolic Z-matrix:
 Charge =  0 Multiplicity = 1

                         Standard orientation:
 ---------------------------------------------------------------------
 Center     Atomic      Atomic             Coordinates (Angstroms)
 Number     Number       Type             X           Y           Z
 ---------------------------------------------------------------------
      1          6           0       -2.241637   -1.438578    0.430606
      2          6           0       -0.877817   -1.957586   -0.026132
      3          6           0       -0.297549   -3.008090    0.921246
      4          1           0       -2.145836   -1.012346    1.438621
      5          1           0       -2.938808   -2.283834    0.513614
      6          1           0       -0.183805   -1.111419   -0.109587
      7          1           0       -0.976836   -2.382458   -1.033254
      8          1           0       -0.967627   -3.870557    0.997055
      9          1           0       -0.170089   -2.592296    1.925970
     10          1           0        0.677549   -3.365392    0.575732
     11          6           0       -2.834693   -0.387729   -0.506266
     12          6           0       -4.198514    0.131279   -0.049529
     13          6           0       -4.778782    1.181784   -0.996906
     14          1           0       -2.137523    0.457527   -0.589275
     15          1           0       -2.930495   -0.813960   -1.514281
     16          1           0       -4.099494    0.556152    0.957593
     17          1           0       -4.892526   -0.714887    0.033927
     18          1           0       -4.906241    0.765990   -2.001630
     19          1           0       -4.108703    2.044250   -1.072715
     20          1           0       -5.753880    1.539086   -0.651393
     21          6           0        2.941775    0.274955    0.152866
     22          6           0        4.026970    0.045806   -0.899669
     23          6           0        4.825851   -1.234892   -0.655959
     24          1           0        3.407018    0.314951    1.147298
     25          1           0        2.260648   -0.587250    0.160895
     26          1           0        4.705047    0.908812   -0.906670
     27          1           0        3.559111    0.006541   -1.891729
     28          1           0        4.166463   -2.108744   -0.669697
     29          1           0        5.318909   -1.201348    0.320959
     30          1           0        5.596141   -1.379081   -1.419978
     31          6           0        2.134555    1.551352   -0.077206
     32          6           0        1.049361    1.780500    0.975329
     33          6           0        0.250480    3.061198    0.731620
     34          1           0        2.815682    2.413557   -0.085234
     35          1           0        1.669313    1.511355   -1.071637
     36          1           0        1.517220    1.819765    1.967390
     37          1           0        0.371284    0.917495    0.982330
     38          1           0       -0.242579    3.027655   -0.245299
     39          1           0        0.909868    3.935052    0.745357
     40          1           0       -0.519810    3.205387    1.495639
 ---------------------------------------------------------------------

 SCF Done:  E(RHF) =  -470.732946005     A.U. after   11 cycles
 E2 =    -0.1584431306D+01 EUMP2 =    -0.47231737731068D+03

 The electronic state is 1-A.
 Alpha  occ. eigenvalues --  -11.21653 -11.21636 -11.21618 -11.21609 -11.21444
 Alpha  occ. eigenvalues --  -11.21433 -11.21384 -11.21364 -11.21147 -11.21120
 Alpha  occ. eigenvalues --  -11.21079 -11.21078  -1.08514  -1.08427  -1.03580
 Alpha  occ. eigenvalues --   -1.03554  -0.96037  -0.95992  -0.87050  -0.87011
 Alpha  occ. eigenvalues --   -0.79666  -0.79607  -0.78370  -0.78199  -0.65440
 Alpha  occ. eigenvalues --   -0.64819  -0.61053  -0.60877  -0.59384  -0.59381
 Alpha  occ. eigenvalues --   -0.57671  -0.57586  -0.55410  -0.55189  -0.52722
 Alpha  occ. eigenvalues --   -0.52697  -0.52454  -0.52423  -0.50031  -0.49893
 Alpha  occ. eigenvalues --   -0.48020  -0.47913  -0.46871  -0.46603  -0.46083
 Alpha  occ. eigenvalues --   -0.45794  -0.45782  -0.45224  -0.43824  -0.43811
 Alpha virt. eigenvalues --    0.19374   0.22127   0.23618   0.24492   0.26075
 Alpha virt. eigenvalues --    0.26790   0.27116   0.27414   0.28121   0.29532
 Alpha virt. eigenvalues --    0.30801   0.31448   0.31761   0.31812   0.32455

 Mulliken charges:
               1
     1  C   -0.298250
     2  C   -0.309423
     3  C   -0.475822
     4  H    0.150047
     5  H    0.150020
     6  H    0.159465
     7  H    0.152240
     8  H    0.155665
     9  H    0.155927
    10  H    0.160007
    11  C   -0.300951
    12  C   -0.299437
    13  C   -0.475898
    14  H    0.151433
    15  H    0.149674
    16  H    0.152164
    17  H    0.151973
    18  H    0.155054
    19  H    0.155534
    20  H    0.160372
    21  C   -0.304749
    22  C   -0.299376
    23  C   -0.475672
    24  H    0.149765
    25  H    0.155685
    26  H    0.151934
    27  H    0.152120
    28  H    0.154997
    29  H    0.155267
    30  H    0.160329
    31  C   -0.298107
    32  C   -0.307047
    33  C   -0.476060
    34  H    0.150001
    35  H    0.149721
    36  H    0.152405
    37  H    0.157822
    38  H    0.155245
    39  H    0.155798
    40  H    0.160126
 Sum of Mulliken charges =  -0.00000

 Dipole moment (field-independent basis, Debye):
    X=              0.0009    Y=             -0.0018    Z=              0.0083  Tot=              0.0085
 Quadrupole moment (field-independent basis, Debye-Ang):
   XX=            -84.8311   YY=            -85.3381   ZZ=            -84.5037
   XY=              1.7305   XZ=              0.2791   YZ=              1.1807

 Normal termination of Gaussian 16 at Wed May  5 21:24:26 2021.
