 Gaussian 16, Revision A.03,
 Gaussian 16:  EM64L-G16RevA.03 25-Dec-2016

 -------------
 #p 6-31g* mp2
 -------------

 ------------------------------------------------------
 Input file generated by CHIRIPA (05-May-2021 14:53:17)
 ------------------------------------------------------
 Symbolic Z-matrix:
 Charge =  0 Multiplicity = 1

                         Standard orientation:
 ---------------------------------------------------------------------
 Center     Atomic      Atomic             Coordinates (Angstroms)
 Number     Number       Type             X           Y           Z
 ---------------------------------------------------------------------
      1          6           0        4.684564   -0.392956   -0.423524
      2          6           0        5.597679    0.806396   -0.679964
      3          6           0        6.500277    0.612274   -1.898745
      4          1           0        5.300743   -1.292007   -0.285776
      5          1           0        4.066242   -0.571248   -1.314190
      6          1           0        6.213114    0.983228    0.211431
      7          1           0        4.979261    1.702731   -0.816928
      8          1           0        5.900557    0.458202   -2.801629
      9          1           0        7.141420   -0.265389   -1.767426
     10          1           0        7.144596    1.481477   -2.063668
     11          6           0        3.776205   -0.213918    0.791613
     12          6           0        2.863090   -1.413270    1.048053
     13          6           0        1.960492   -1.219147    2.266833
     14          1           0        4.394527   -0.035625    1.682278
     15          1           0        3.160026    0.685133    0.653864
     16          1           0        3.481507   -2.309605    1.185017
     17          1           0        2.247655   -1.590102    0.156657
     18          1           0        1.319348   -0.341484    2.135514
     19          1           0        2.560211   -1.065076    3.169717
     20          1           0        1.316173   -2.088350    2.431756
     21          6           0       -1.936353    2.171142    0.723445
     22          6           0       -3.294540    2.346710    0.438798
     23          6           0       -4.062576    1.282120   -0.042158
     24          6           0       -3.437302    0.050080   -0.227625
     25          6           0       -2.086235   -0.156308    0.046803
     26          6           0       -1.337591    0.922396    0.526886
     27          1           0       -1.347257    3.003624    1.096724
     28          1           0       -3.762203    3.315383    0.590489
     29          1           0       -5.115918    1.390275   -0.270616
     30          1           0       -1.648028   -1.133737   -0.114516
     31          1           0       -0.283002    0.783138    0.747098
     32          7           0       -4.240123   -1.084424   -0.736329
     33          8           0       -3.665631   -2.159883   -0.891194
     34          8           0       -5.428663   -0.876707   -0.970554
 ---------------------------------------------------------------------

 SCF Done:  E(RHF) =  -669.535436651     A.U. after   15 cycles
 E2 =    -0.2091009185D+01 EUMP2 =    -0.67162644583617D+03

 The electronic state is 1-A.
 Alpha  occ. eigenvalues --  -20.60750 -20.60745 -15.85804 -11.31169 -11.27743
 Alpha  occ. eigenvalues --  -11.27735 -11.27486 -11.26758 -11.26734 -11.22357
 Alpha  occ. eigenvalues --  -11.22111 -11.22077 -11.21967 -11.21912 -11.21442
 Alpha  occ. eigenvalues --   -1.59826  -1.39380  -1.19344  -1.09068  -1.08740
 Alpha  occ. eigenvalues --   -1.04748  -1.04161  -0.96614  -0.95574  -0.87628
 Alpha  occ. eigenvalues --   -0.86148  -0.82407  -0.80221  -0.78859  -0.77454
 Alpha  occ. eigenvalues --   -0.72023  -0.71149  -0.70454  -0.65734  -0.64996
 Alpha  occ. eigenvalues --   -0.64763  -0.62174  -0.61495  -0.59977  -0.58208
 Alpha  occ. eigenvalues --   -0.55939  -0.55240  -0.53291  -0.53104  -0.53060
 Alpha  occ. eigenvalues --   -0.52784  -0.50548  -0.48786  -0.48777  -0.48523
 Alpha  occ. eigenvalues --   -0.47262  -0.46404  -0.46318  -0.44785  -0.44402
 Alpha  occ. eigenvalues --   -0.37327  -0.36347
 Alpha virt. eigenvalues --    0.05081   0.11274   0.16544   0.18922   0.22700
 Alpha virt. eigenvalues --    0.23661   0.25498   0.26504   0.27098   0.28260
 Alpha virt. eigenvalues --    0.29033   0.29768   0.31121   0.31466   0.32088

 Mulliken charges:
               1
     1  C   -0.298849
     2  C   -0.299847
     3  C   -0.476114
     4  H    0.152165
     5  H    0.150636
     6  H    0.152587
     7  H    0.150588
     8  H    0.156162
     9  H    0.156456
    10  H    0.161263
    11  C   -0.297559
    12  C   -0.301485
    13  C   -0.479567
    14  H    0.151895
    15  H    0.142659
    16  H    0.157410
    17  H    0.150475
    18  H    0.145519
    19  H    0.160181
    20  H    0.165731
    21  C   -0.171949
    22  C   -0.218507
    23  C   -0.170985
    24  C    0.158639
    25  C   -0.172685
    26  C   -0.223739
    27  H    0.225795
    28  H    0.223344
    29  H    0.275566
    30  H    0.275849
    31  H    0.231240
    32  N    0.488123
    33  O   -0.460453
    34  O   -0.460544
 Sum of Mulliken charges =  -0.00000

 Dipole moment (field-independent basis, Debye):
    X=              3.0041    Y=              3.9217    Z=              1.8060  Tot=              5.2598
 Quadrupole moment (field-independent basis, Debye-Ang):
   XX=           -110.3674   YY=            -92.7041   ZZ=            -96.6647
   XY=            -17.0490   XZ=             -5.5884   YZ=             -1.3003

 Normal termination of Gaussian 16 at Thu May  6 20:32:28 2021.
