 Gaussian 16, Revision A.03,
 Gaussian 16:  EM64L-G16RevA.03 25-Dec-2016

 -------------
 #p 6-31g* mp2
 -------------

 ------------------------------------------------------
 Input file generated by CHIRIPA (05-May-2021 14:53:14)
 ------------------------------------------------------
 Symbolic Z-matrix:
 Charge =  0 Multiplicity = 1

                         Standard orientation:
 ---------------------------------------------------------------------
 Center     Atomic      Atomic             Coordinates (Angstroms)
 Number     Number       Type             X           Y           Z
 ---------------------------------------------------------------------
      1          6           0        2.652889    0.132567    0.231739
      2          6           0        3.347343   -0.750112   -0.805853
      3          6           0        4.024793   -1.971802   -0.184299
      4          1           0        3.390105    0.460113    0.977508
      5          1           0        1.906713   -0.466400    0.771974
      6          1           0        4.091021   -0.149305   -1.344917
      7          1           0        2.608427   -1.075438   -1.549346
      8          1           0        3.291492   -2.594966    0.337750
      9          1           0        4.782510   -1.663571    0.543341
     10          1           0        4.514968   -2.588846   -0.943802
     11          6           0        1.971009    1.357922   -0.374293
     12          6           0        1.276555    2.240601    0.663299
     13          6           0        0.599105    3.462291    0.041745
     14          1           0        2.717186    1.956889   -0.914528
     15          1           0        1.233794    1.030376   -1.120062
     16          1           0        2.015471    2.565927    1.406792
     17          1           0        0.532877    1.639794    1.202362
     18          1           0       -0.158611    3.154059   -0.685895
     19          1           0        1.332407    4.085455   -0.480304
     20          1           0        0.108930    4.079335    0.801248
     21          6           0       -1.289302   -0.905284    2.504024
     22          6           0       -2.329012   -0.054559    2.114419
     23          6           0       -2.624305    0.131987    0.760702
     24          6           0       -1.856183   -0.550990   -0.181011
     25          6           0       -0.813943   -1.405287    0.175641
     26          6           0       -0.536413   -1.576749    1.535099
     27          1           0       -1.066811   -1.044339    3.557854
     28          1           0       -2.915380    0.468202    2.864711
     29          1           0       -3.423608    0.784678    0.431271
     30          1           0       -0.246963   -1.912778   -0.595336
     31          1           0        0.271626   -2.238053    1.834756
     32          7           0       -2.159394   -0.361486   -1.617170
     33          8           0       -1.467868   -0.974691   -2.427361
     34          8           0       -3.082835    0.396663   -1.905446
 ---------------------------------------------------------------------

 SCF Done:  E(RHF) =  -669.534744220     A.U. after   15 cycles
 E2 =    -0.2095980138D+01 EUMP2 =    -0.67163072435824D+03

 The electronic state is 1-A.
 Alpha  occ. eigenvalues --  -20.60933 -20.60928 -15.85980 -11.31359 -11.27922
 Alpha  occ. eigenvalues --  -11.27919 -11.27665 -11.26944 -11.26924 -11.21772
 Alpha  occ. eigenvalues --  -11.21541 -11.21466 -11.21458 -11.21322 -11.20984
 Alpha  occ. eigenvalues --   -1.60003  -1.39555  -1.19546  -1.08930  -1.08510
 Alpha  occ. eigenvalues --   -1.04951  -1.03633  -0.96090  -0.95756  -0.87106
 Alpha  occ. eigenvalues --   -0.86336  -0.82597  -0.79691  -0.78316  -0.77633
 Alpha  occ. eigenvalues --   -0.72194  -0.71331  -0.70633  -0.65286  -0.65119
 Alpha  occ. eigenvalues --   -0.64939  -0.62287  -0.61030  -0.59460  -0.57694
 Alpha  occ. eigenvalues --   -0.55443  -0.55413  -0.53294  -0.53033  -0.52762
 Alpha  occ. eigenvalues --   -0.52507  -0.50046  -0.48956  -0.48951  -0.48010
 Alpha  occ. eigenvalues --   -0.46743  -0.45830  -0.45749  -0.44937  -0.43862
 Alpha  occ. eigenvalues --   -0.37493  -0.36427
 Alpha virt. eigenvalues --    0.04883   0.10995   0.16258   0.19704   0.22900
 Alpha virt. eigenvalues --    0.23676   0.25890   0.26190   0.27991   0.28251
 Alpha virt. eigenvalues --    0.28821   0.30262   0.31249   0.31628   0.32275

 Mulliken charges:
               1
     1  C   -0.304266
     2  C   -0.303343
     3  C   -0.473803
     4  H    0.147831
     5  H    0.148220
     6  H    0.155368
     7  H    0.156049
     8  H    0.144274
     9  H    0.156044
    10  H    0.163604
    11  C   -0.299319
    12  C   -0.304860
    13  C   -0.476078
    14  H    0.150872
    15  H    0.153953
    16  H    0.148820
    17  H    0.154951
    18  H    0.159051
    19  H    0.156063
    20  H    0.157134
    21  C   -0.171662
    22  C   -0.218377
    23  C   -0.171018
    24  C    0.159226
    25  C   -0.169200
    26  C   -0.219581
    27  H    0.227085
    28  H    0.224655
    29  H    0.276533
    30  H    0.277810
    31  H    0.225875
    32  N    0.487763
    33  O   -0.460311
    34  O   -0.459365
 Sum of Mulliken charges =  -0.00000

 Dipole moment (field-independent basis, Debye):
    X=              0.9367    Y=             -0.6755    Z=              5.0071  Tot=              5.1386
 Quadrupole moment (field-independent basis, Debye-Ang):
   XX=            -95.8013   YY=            -93.3223   ZZ=            -96.7976
   XY=             -1.0128   XZ=            -11.1151   YZ=             -1.6394

 Normal termination of Gaussian 16 at Wed May  5 21:53:20 2021.
