 Gaussian 16, Revision A.03,
 Gaussian 16:  EM64L-G16RevA.03 25-Dec-2016

 -------------
 #p 6-31g* mp2
 -------------

 ------------------------------------------------------
 Input file generated by CHIRIPA (05-May-2021 14:55:20)
 ------------------------------------------------------
 Symbolic Z-matrix:
 Charge =  0 Multiplicity = 1

                         Standard orientation:
 ---------------------------------------------------------------------
 Center     Atomic      Atomic             Coordinates (Angstroms)
 Number     Number       Type             X           Y           Z
 ---------------------------------------------------------------------
      1          6           0        1.384475   -0.164530    1.465169
      2          6           0        2.427790   -1.042201    1.777753
      3          6           0        3.594640   -1.060865    1.007908
      4          6           0        3.684921   -0.184357   -0.072311
      5          6           0        2.662807    0.701738   -0.409072
      6          6           0        1.505100    0.703108    0.374676
      7          1           0        0.481589   -0.156749    2.068603
      8          1           0        2.336876   -1.717135    2.624065
      9          1           0        4.417664   -1.730047    1.227554
     10          1           0        2.782575    1.362795   -1.258823
     11          1           0        0.696454    1.385796    0.129577
     12          7           0        4.915373   -0.194962   -0.894670
     13          8           0        4.970308    0.587164   -1.841189
     14          8           0        5.801567   -0.985199   -0.577146
     15          6           0       -4.898136   -0.374845    0.055324
     16          6           0       -6.016439   -0.555436   -0.971695
     17          6           0       -6.890147   -1.777153   -0.685622
     18          1           0       -4.273611   -1.278547    0.070663
     19          1           0       -5.340811   -0.283784    1.056894
     20          1           0       -5.571863   -0.644743   -1.971191
     21          1           0       -6.638261    0.348877   -0.984727
     22          1           0       -7.360533   -1.692249    0.299330
     23          1           0       -6.288075   -2.691515   -0.692739
     24          1           0       -7.683100   -1.887261   -1.431921
     25          6           0       -4.016111    0.842325   -0.217179
     26          6           0       -2.897808    1.022916    0.809841
     27          6           0       -2.024100    2.244632    0.523768
     28          1           0       -3.573436    0.751264   -1.218749
     29          1           0       -4.640636    1.746027   -0.232516
     30          1           0       -2.275986    0.118602    0.822873
     31          1           0       -3.342385    1.112223    1.809337
     32          1           0       -2.626172    3.158995    0.530885
     33          1           0       -1.553714    2.159729   -0.461183
     34          1           0       -1.231147    2.354741    1.270067
 ---------------------------------------------------------------------

 SCF Done:  E(RHF) =  -669.535166546     A.U. after   15 cycles
 E2 =    -0.2091758937D+01 EUMP2 =    -0.67162692548270D+03

 The electronic state is 1-A.
 Alpha  occ. eigenvalues --  -20.60707 -20.60702 -15.85757 -11.31107 -11.27673
 Alpha  occ. eigenvalues --  -11.27646 -11.27395 -11.26693 -11.26573 -11.22783
 Alpha  occ. eigenvalues --  -11.22459 -11.22253 -11.22155 -11.22063 -11.21529
 Alpha  occ. eigenvalues --   -1.59782  -1.39336  -1.19270  -1.09273  -1.08669
 Alpha  occ. eigenvalues --   -1.04675  -1.04407  -0.96875  -0.95508  -0.87905
 Alpha  occ. eigenvalues --   -0.86060  -0.82341  -0.80499  -0.79024  -0.77393
 Alpha  occ. eigenvalues --   -0.71977  -0.71105  -0.70388  -0.65931  -0.64920
 Alpha  occ. eigenvalues --   -0.64714  -0.62181  -0.61663  -0.60245  -0.58448
 Alpha  occ. eigenvalues --   -0.56155  -0.55170  -0.53643  -0.53290  -0.52998
 Alpha  occ. eigenvalues --   -0.52688  -0.50758  -0.48804  -0.48734  -0.48726
 Alpha  occ. eigenvalues --   -0.47505  -0.46577  -0.46460  -0.44745  -0.44638
 Alpha  occ. eigenvalues --   -0.37254  -0.36269
 Alpha virt. eigenvalues --    0.05129   0.11327   0.16613   0.19437   0.22521
 Alpha virt. eigenvalues --    0.23958   0.25505   0.25796   0.26465   0.27916
 Alpha virt. eigenvalues --    0.29210   0.30003   0.31000   0.31202   0.32083

 Mulliken charges:
               1
     1  C   -0.176583
     2  C   -0.218383
     3  C   -0.171576
     4  C    0.159002
     5  C   -0.173139
     6  C   -0.226053
     7  H    0.227189
     8  H    0.223005
     9  H    0.275196
    10  H    0.275520
    11  H    0.236912
    12  N    0.487973
    13  O   -0.460593
    14  O   -0.460730
    15  C   -0.299120
    16  C   -0.300402
    17  C   -0.476194
    18  H    0.150020
    19  H    0.150237
    20  H    0.153362
    21  H    0.153053
    22  H    0.155569
    23  H    0.155769
    24  H    0.162263
    25  C   -0.299080
    26  C   -0.302323
    27  C   -0.485434
    28  H    0.151937
    29  H    0.152587
    30  H    0.148551
    31  H    0.155335
    32  H    0.165245
    33  H    0.154818
    34  H    0.156068
 Sum of Mulliken charges =  -0.00000

 Dipole moment (field-independent basis, Debye):
    X=             -4.6421    Y=              0.0736    Z=              2.8602  Tot=              5.4530
 Quadrupole moment (field-independent basis, Debye-Ang):
   XX=           -125.8145   YY=            -92.7786   ZZ=            -93.7107
   XY=             -1.7587   XZ=             12.1090   YZ=             -2.5964

 Normal termination of Gaussian 16 at Thu May  6 06:09:37 2021.
