 Gaussian 16, Revision A.03,
 Gaussian 16:  EM64L-G16RevA.03 25-Dec-2016

 -------------
 #p 6-31g* mp2
 -------------

 ------------------------------------------------------
 Input file generated by CHIRIPA (05-May-2021 14:55:18)
 ------------------------------------------------------
 Symbolic Z-matrix:
 Charge =  0 Multiplicity = 1

                         Standard orientation:
 ---------------------------------------------------------------------
 Center     Atomic      Atomic             Coordinates (Angstroms)
 Number     Number       Type             X           Y           Z
 ---------------------------------------------------------------------
      1          6           0       -1.919571    1.986535   -1.304765
      2          6           0       -0.901887    1.040526   -1.143806
      3          6           0       -1.162008   -0.182815   -0.519048
      4          6           0       -2.457042   -0.428197   -0.065215
      5          6           0       -3.492179    0.494080   -0.210775
      6          6           0       -3.209195    1.710779   -0.838558
      7          1           0       -1.708622    2.934276   -1.791267
      8          1           0        0.100591    1.251966   -1.504883
      9          1           0       -0.392852   -0.933057   -0.381373
     10          1           0       -4.481606    0.254692    0.159555
     11          1           0       -4.001501    2.443589   -0.962191
     12          7           0       -2.744522   -1.719777    0.597789
     13          8           0       -3.893800   -1.911801    0.988844
     14          8           0       -1.815127   -2.515638    0.713843
     15          6           0        3.647280   -0.240055    0.248650
     16          6           0        3.520780   -1.328633   -0.817642
     17          6           0        4.654262   -2.352833   -0.754211
     18          1           0        4.612357    0.271085    0.129041
     19          1           0        3.663263   -0.709607    1.241958
     20          1           0        3.503647   -0.857068   -1.808576
     21          1           0        2.555808   -1.837112   -0.695600
     22          1           0        4.670170   -2.849925    0.221108
     23          1           0        5.623396   -1.864312   -0.898190
     24          1           0        4.544103   -3.121824   -1.525170
     25          6           0        2.521454    0.791296    0.198035
     26          6           0        2.647955    1.879874    1.264328
     27          6           0        1.514472    2.904074    1.200897
     28          1           0        2.505471    1.260849   -0.795272
     29          1           0        1.556376    0.280156    0.317644
     30          1           0        3.612926    2.388354    1.142286
     31          1           0        2.665087    1.408309    2.255261
     32          1           0        0.545339    2.415553    1.344876
     33          1           0        1.498564    3.401167    0.225577
     34          1           0        1.624631    3.673065    1.971856
 ---------------------------------------------------------------------

 SCF Done:  E(RHF) =  -669.533915656     A.U. after   15 cycles
 E2 =    -0.2094429509D+01 EUMP2 =    -0.67162834516574D+03

 The electronic state is 1-A.
 Alpha  occ. eigenvalues --  -20.60763 -20.60757 -15.85813 -11.31160 -11.27704
 Alpha  occ. eigenvalues --  -11.27679 -11.27418 -11.26734 -11.26630 -11.22224
 Alpha  occ. eigenvalues --  -11.22164 -11.22092 -11.21888 -11.21635 -11.21345
 Alpha  occ. eigenvalues --   -1.59838  -1.39392  -1.19322  -1.09057  -1.08710
 Alpha  occ. eigenvalues --   -1.04728  -1.04038  -0.96506  -0.95557  -0.87520
 Alpha  occ. eigenvalues --   -0.86114  -0.82419  -0.80137  -0.78986  -0.77376
 Alpha  occ. eigenvalues --   -0.72033  -0.71161  -0.70431  -0.65715  -0.64955
 Alpha  occ. eigenvalues --   -0.64698  -0.62097  -0.61427  -0.59863  -0.58125
 Alpha  occ. eigenvalues --   -0.55791  -0.55211  -0.53169  -0.53104  -0.52952
 Alpha  occ. eigenvalues --   -0.52757  -0.50434  -0.48795  -0.48791  -0.48409
 Alpha  occ. eigenvalues --   -0.47160  -0.46372  -0.46331  -0.44800  -0.44331
 Alpha  occ. eigenvalues --   -0.37285  -0.36241
 Alpha virt. eigenvalues --    0.05044   0.11273   0.16477   0.20009   0.22693
 Alpha virt. eigenvalues --    0.23259   0.24842   0.25241   0.27245   0.28643
 Alpha virt. eigenvalues --    0.29993   0.30417   0.31095   0.31425   0.31875

 Mulliken charges:
               1
     1  C   -0.172718
     2  C   -0.215786
     3  C   -0.179477
     4  C    0.158409
     5  C   -0.171689
     6  C   -0.218256
     7  H    0.225782
     8  H    0.231692
     9  H    0.277845
    10  H    0.275291
    11  H    0.223309
    12  N    0.488191
    13  O   -0.460300
    14  O   -0.461162
    15  C   -0.297377
    16  C   -0.303014
    17  C   -0.475935
    18  H    0.151403
    19  H    0.154959
    20  H    0.149155
    21  H    0.152978
    22  H    0.158851
    23  H    0.155483
    24  H    0.162721
    25  C   -0.308549
    26  C   -0.298258
    27  C   -0.479921
    28  H    0.141954
    29  H    0.151775
    30  H    0.153588
    31  H    0.157107
    32  H    0.162335
    33  H    0.146638
    34  H    0.162976
 Sum of Mulliken charges =  -0.00000

 Dipole moment (field-independent basis, Debye):
    X=              1.1401    Y=              4.5038    Z=             -2.2364  Tot=              5.1562
 Quadrupole moment (field-independent basis, Debye-Ang):
   XX=            -95.0093   YY=            -99.2000   ZZ=            -94.6148
   XY=            -12.6962   XZ=              5.0462   YZ=              0.5297

 Normal termination of Gaussian 16 at Thu May  6 12:21:18 2021.
