 Gaussian 16, Revision A.03,
 Gaussian 16:  EM64L-G16RevA.03 25-Dec-2016

 -------------
 #p 6-31g* mp2
 -------------

 ------------------------------------------------------
 Input file generated by CHIRIPA (05-May-2021 14:53:13)
 ------------------------------------------------------
 Symbolic Z-matrix:
 Charge =  0 Multiplicity = 1

                         Standard orientation:
 ---------------------------------------------------------------------
 Center     Atomic      Atomic             Coordinates (Angstroms)
 Number     Number       Type             X           Y           Z
 ---------------------------------------------------------------------
      1          6           0        3.220573    1.154116    0.238131
      2          6           0        2.107671    1.257521    1.281559
      3          6           0        1.556536    2.677051    1.419330
      4          1           0        4.034397    1.840158    0.510126
      5          1           0        2.835896    1.494958   -0.733077
      6          1           0        2.493933    0.915280    2.250212
      7          1           0        1.296485    0.571012    1.007152
      8          1           0        1.145248    3.024815    0.466176
      9          1           0        2.349500    3.371038    1.716299
     10          1           0        0.762128    2.728143    2.170439
     11          6           0        3.781719   -0.258886    0.088908
     12          6           0        4.894621   -0.362291   -0.954520
     13          6           0        5.445756   -1.781820   -1.092291
     14          1           0        4.166396   -0.599728    1.060116
     15          1           0        2.967895   -0.944928   -0.183086
     16          1           0        5.705807    0.324218   -0.680113
     17          1           0        4.508359   -0.020050   -1.923173
     18          1           0        4.652792   -2.475808   -1.389259
     19          1           0        5.857044   -2.129585   -0.139136
     20          1           0        6.240164   -1.832913   -1.843400
     21          6           0       -3.589676    1.811160   -1.110911
     22          6           0       -4.491707    0.825644   -0.696638
     23          6           0       -4.029580   -0.375480   -0.150480
     24          6           0       -2.652669   -0.558603   -0.032702
     25          6           0       -1.728854    0.404187   -0.436297
     26          6           0       -2.213555    1.597661   -0.979650
     27          1           0       -3.957435    2.741250   -1.534089
     28          1           0       -5.560962    0.988713   -0.797373
     29          1           0       -4.705755   -1.155288    0.178314
     30          1           0       -0.668666    0.212795   -0.323209
     31          1           0       -1.510704    2.361259   -1.300533
     32          7           0       -2.151488   -1.826131    0.544006
     33          8           0       -0.933616   -1.963116    0.637073
     34          8           0       -2.986023   -2.658632    0.892042
 ---------------------------------------------------------------------

 SCF Done:  E(RHF) =  -669.535656026     A.U. after   15 cycles
 E2 =    -0.2091740780D+01 EUMP2 =    -0.67162739680563D+03

 The electronic state is 1-A.
 Alpha  occ. eigenvalues --  -20.60823 -20.60817 -15.85869 -11.31212 -11.27780
 Alpha  occ. eigenvalues --  -11.27768 -11.27520 -11.26796 -11.26785 -11.21725
 Alpha  occ. eigenvalues --  -11.21470 -11.21462 -11.21432 -11.21187 -11.20842
 Alpha  occ. eigenvalues --   -1.59892  -1.39447  -1.19385  -1.08784  -1.08423
 Alpha  occ. eigenvalues --   -1.04787  -1.03553  -0.96006  -0.95622  -0.87020
 Alpha  occ. eigenvalues --   -0.86187  -0.82454  -0.79613  -0.78194  -0.77504
 Alpha  occ. eigenvalues --   -0.72089  -0.71211  -0.70506  -0.65123  -0.65037
 Alpha  occ. eigenvalues --   -0.64761  -0.62185  -0.60917  -0.59372  -0.57595
 Alpha  occ. eigenvalues --   -0.55357  -0.55242  -0.53112  -0.52895  -0.52704
 Alpha  occ. eigenvalues --   -0.52415  -0.49949  -0.48852  -0.48843  -0.47912
 Alpha  occ. eigenvalues --   -0.46651  -0.45737  -0.45647  -0.44849  -0.43784
 Alpha  occ. eigenvalues --   -0.37365  -0.36382
 Alpha virt. eigenvalues --    0.05004   0.11238   0.16507   0.19426   0.23000
 Alpha virt. eigenvalues --    0.24070   0.25794   0.26161   0.27620   0.28309
 Alpha virt. eigenvalues --    0.29209   0.30593   0.31529   0.31705   0.32540

 Mulliken charges:
               1
     1  C   -0.297960
     2  C   -0.309067
     3  C   -0.475627
     4  H    0.149972
     5  H    0.143023
     6  H    0.158233
     7  H    0.158837
     8  H    0.144216
     9  H    0.157786
    10  H    0.162804
    11  C   -0.300424
    12  C   -0.299501
    13  C   -0.476037
    14  H    0.151938
    15  H    0.157589
    16  H    0.150613
    17  H    0.149631
    18  H    0.158326
    19  H    0.156127
    20  H    0.159027
    21  C   -0.170615
    22  C   -0.218721
    23  C   -0.170357
    24  C    0.156913
    25  C   -0.175366
    26  C   -0.221381
    27  H    0.225832
    28  H    0.223554
    29  H    0.275648
    30  H    0.285067
    31  H    0.224471
    32  N    0.487797
    33  O   -0.462609
    34  O   -0.459735
 Sum of Mulliken charges =  -0.00000

 Dipole moment (field-independent basis, Debye):
    X=             -1.7433    Y=              4.3568    Z=             -1.9415  Tot=              5.0784
 Quadrupole moment (field-independent basis, Debye-Ang):
   XX=            -80.5056   YY=           -100.9249   ZZ=            -94.8064
   XY=             -8.9501   XZ=              5.8444   YZ=              0.7146

 Normal termination of Gaussian 16 at Thu May  6 08:56:18 2021.
