 Gaussian 16, Revision A.03,
 Gaussian 16:  EM64L-G16RevA.03 25-Dec-2016

 -------------
 #p 6-31g* mp2
 -------------

 ------------------------------------------------------
 Input file generated by CHIRIPA (05-May-2021 14:53:14)
 ------------------------------------------------------
 Symbolic Z-matrix:
 Charge =  0 Multiplicity = 1

                         Standard orientation:
 ---------------------------------------------------------------------
 Center     Atomic      Atomic             Coordinates (Angstroms)
 Number     Number       Type             X           Y           Z
 ---------------------------------------------------------------------
      1          6           0       -2.905951   -0.732960   -0.428102
      2          6           0       -2.337030   -2.028543    0.151362
      3          6           0       -0.970851   -2.387932   -0.433606
      4          1           0       -2.987106   -0.831379   -1.519281
      5          1           0       -2.198434    0.086433   -0.239931
      6          1           0       -3.046044   -2.844983   -0.036630
      7          1           0       -2.257400   -1.927099    1.241309
      8          1           0       -0.244982   -1.593132   -0.233587
      9          1           0       -1.038108   -2.516232   -1.518786
     10          1           0       -0.582751   -3.317428   -0.005497
     11          6           0       -4.271339   -0.360378    0.146901
     12          6           0       -4.840260    0.935205   -0.432563
     13          6           0       -6.206439    1.294594    0.152405
     14          1           0       -4.978856   -1.179772   -0.041271
     15          1           0       -4.190184   -0.261959    1.238080
     16          1           0       -4.919890    0.833760   -1.522510
     17          1           0       -4.131245    1.751645   -0.244571
     18          1           0       -6.139182    1.422894    1.237585
     19          1           0       -6.932308    0.499794   -0.047615
     20          1           0       -6.594539    2.224090   -0.275704
     21          6           0        3.737455   -1.916504    0.071393
     22          6           0        4.400340   -0.887650   -0.605782
     23          6           0        3.892056    0.414650   -0.591292
     24          6           0        2.713350    0.653655    0.113562
     25          6           0        2.029857   -0.350157    0.798024
     26          6           0        2.556412   -1.644953    0.769903
     27          1           0        4.139400   -2.925248    0.054842
     28          1           0        5.317739   -1.095622   -1.149078
     29          1           0        4.384903    1.229915   -1.106910
     30          1           0        1.117300   -0.112092    1.330925
     31          1           0        2.039476   -2.442008    1.296709
     32          7           0        2.165581    2.028370    0.136117
     33          8           0        1.125492    2.212975    0.764425
     34          8           0        2.786702    2.895235   -0.474940
 ---------------------------------------------------------------------

 SCF Done:  E(RHF) =  -669.534594440     A.U. after   15 cycles
 E2 =    -0.2092591901D+01 EUMP2 =    -0.67162718634067D+03

 The electronic state is 1-A.
 Alpha  occ. eigenvalues --  -20.60825 -20.60817 -15.85875 -11.31231 -11.27778
 Alpha  occ. eigenvalues --  -11.27773 -11.27505 -11.26801 -11.26775 -11.21789
 Alpha  occ. eigenvalues --  -11.21389 -11.21338 -11.21310 -11.21223 -11.20828
 Alpha  occ. eigenvalues --   -1.59897  -1.39451  -1.19400  -1.08789  -1.08374
 Alpha  occ. eigenvalues --   -1.04811  -1.03522  -0.95990  -0.95627  -0.87014
 Alpha  occ. eigenvalues --   -0.86193  -0.82466  -0.79596  -0.78149  -0.77510
 Alpha  occ. eigenvalues --   -0.72094  -0.71219  -0.70509  -0.65086  -0.64981
 Alpha  occ. eigenvalues --   -0.64794  -0.62194  -0.60900  -0.59380  -0.57584
 Alpha  occ. eigenvalues --   -0.55378  -0.55231  -0.53212  -0.52938  -0.52629
 Alpha  occ. eigenvalues --   -0.52335  -0.49910  -0.48850  -0.48847  -0.47901
 Alpha  occ. eigenvalues --   -0.46616  -0.45704  -0.45592  -0.44853  -0.43763
 Alpha  occ. eigenvalues --   -0.37372  -0.36305
 Alpha virt. eigenvalues --    0.04986   0.11177   0.16444   0.20515   0.23008
 Alpha virt. eigenvalues --    0.24203   0.26390   0.26837   0.27477   0.28333
 Alpha virt. eigenvalues --    0.29412   0.29940   0.31522   0.31863   0.32137

 Mulliken charges:
               1
     1  C   -0.301170
     2  C   -0.299564
     3  C   -0.481996
     4  H    0.149914
     5  H    0.157327
     6  H    0.152348
     7  H    0.148557
     8  H    0.158753
     9  H    0.158404
    10  H    0.151802
    11  C   -0.298072
    12  C   -0.301010
    13  C   -0.475794
    14  H    0.147903
    15  H    0.149755
    16  H    0.151361
    17  H    0.158011
    18  H    0.155442
    19  H    0.153539
    20  H    0.161067
    21  C   -0.171628
    22  C   -0.218044
    23  C   -0.171538
    24  C    0.158172
    25  C   -0.174468
    26  C   -0.212952
    27  H    0.225847
    28  H    0.223621
    29  H    0.275634
    30  H    0.275804
    31  H    0.225906
    32  N    0.488361
    33  O   -0.461446
    34  O   -0.459844
 Sum of Mulliken charges =  -0.00000

 Dipole moment (field-independent basis, Debye):
    X=              1.9687    Y=             -4.7497    Z=             -0.1188  Tot=              5.1429
 Quadrupole moment (field-independent basis, Debye-Ang):
   XX=            -82.2867   YY=           -101.3217   ZZ=            -93.3219
   XY=            -10.4216   XZ=             -1.8191   YZ=             -1.3341

 Normal termination of Gaussian 16 at Wed May  5 23:26:40 2021.
