 Gaussian 16, Revision A.03,
 Gaussian 16:  EM64L-G16RevA.03 25-Dec-2016

 -------------
 #p 6-31g* mp2
 -------------

 ------------------------------------------------------
 Input file generated by CHIRIPA (05-May-2021 14:51:13)
 ------------------------------------------------------
 Symbolic Z-matrix:
 Charge =  0 Multiplicity = 1

                         Standard orientation:
 ---------------------------------------------------------------------
 Center     Atomic      Atomic             Coordinates (Angstroms)
 Number     Number       Type             X           Y           Z
 ---------------------------------------------------------------------
      1          6           0        5.309114   -0.550519   -0.063532
      2          6           0        6.488351    0.328493   -0.481529
      3          6           0        7.706060   -0.485441   -0.920263
      4          1           0        5.624724   -1.211263    0.755463
      5          1           0        5.031897   -1.203425   -0.902734
      6          1           0        6.762370    0.980520    0.357750
      7          1           0        6.169842    0.987355   -1.299495
      8          1           0        7.455351   -1.124471   -1.773133
      9          1           0        8.051246   -1.131344   -0.106471
     10          1           0        8.537298    0.162756   -1.214789
     11          6           0        4.084249    0.248699    0.377699
     12          6           0        2.905012   -0.630314    0.795696
     13          6           0        1.687302    0.183621    1.234430
     14          1           0        4.361466    0.901605    1.216901
     15          1           0        3.768639    0.909443   -0.441295
     16          1           0        3.223521   -1.289176    1.613662
     17          1           0        2.630993   -1.282341   -0.043583
     18          1           0        1.342117    0.829524    0.420638
     19          1           0        1.938012    0.822650    2.087300
     20          1           0        0.856065   -0.464576    1.528956
     21          6           0       -5.441320    0.251878   -0.294018
     22          6           0       -6.282715   -0.995194   -0.020429
     23          6           0       -7.770259   -0.777489   -0.299017
     24          1           0       -5.814017    1.080600    0.323444
     25          1           0       -5.578586    0.555859   -1.340990
     26          1           0       -6.142826   -1.297542    1.025341
     27          1           0       -5.907850   -1.821096   -0.638473
     28          1           0       -7.929344   -0.498119   -1.345556
     29          1           0       -8.165656    0.028411    0.327711
     30          1           0       -8.353080   -1.681539   -0.096849
     31          6           0       -3.952043    0.049943   -0.020149
     32          6           0       -3.110648    1.297015   -0.293738
     33          6           0       -1.623104    1.079310   -0.015150
     34          1           0       -3.814778   -0.254039    1.026823
     35          1           0       -3.579346   -0.778779   -0.637611
     36          1           0       -3.485513    2.122917    0.324306
     37          1           0       -3.250537    1.599362   -1.339507
     38          1           0       -1.227707    0.273410   -0.641878
     39          1           0       -1.464019    0.799939    1.031389
     40          1           0       -1.040283    1.983360   -0.217318
 ---------------------------------------------------------------------

 SCF Done:  E(RHF) =  -470.732730840     A.U. after   11 cycles
 E2 =    -0.1582545442D+01 EUMP2 =    -0.47231527628281D+03

 The electronic state is 1-A.
 Alpha  occ. eigenvalues --  -11.21588 -11.21573 -11.21536 -11.21509 -11.21382
 Alpha  occ. eigenvalues --  -11.21358 -11.21323 -11.21296 -11.21061 -11.21049
 Alpha  occ. eigenvalues --  -11.20984 -11.20891  -1.08405  -1.08373  -1.03522
 Alpha  occ. eigenvalues --   -1.03439  -0.96025  -0.95838  -0.87108  -0.86792
 Alpha  occ. eigenvalues --   -0.79686  -0.79408  -0.78230  -0.78173  -0.65034
 Alpha  occ. eigenvalues --   -0.65006  -0.60903  -0.60861  -0.59342  -0.59283
 Alpha  occ. eigenvalues --   -0.57621  -0.57457  -0.55258  -0.55199  -0.52863
 Alpha  occ. eigenvalues --   -0.52641  -0.52271  -0.52188  -0.49894  -0.49817
 Alpha  occ. eigenvalues --   -0.47874  -0.47834  -0.46599  -0.46555  -0.45783
 Alpha  occ. eigenvalues --   -0.45709  -0.45683  -0.45644  -0.43761  -0.43663
 Alpha virt. eigenvalues --    0.22513   0.22987   0.23623   0.24808   0.26494
 Alpha virt. eigenvalues --    0.26512   0.26937   0.27363   0.27676   0.29170
 Alpha virt. eigenvalues --    0.29935   0.30813   0.31670   0.31852   0.32388

 Mulliken charges:
               1
     1  C   -0.298171
     2  C   -0.299582
     3  C   -0.475663
     4  H    0.149555
     5  H    0.149356
     6  H    0.151855
     7  H    0.151834
     8  H    0.155108
     9  H    0.155133
    10  H    0.160137
    11  C   -0.298409
    12  C   -0.300089
    13  C   -0.477808
    14  H    0.149327
    15  H    0.149461
    16  H    0.151191
    17  H    0.151306
    18  H    0.161347
    19  H    0.153500
    20  H    0.160757
    21  C   -0.298189
    22  C   -0.299597
    23  C   -0.475683
    24  H    0.149638
    25  H    0.149457
    26  H    0.151877
    27  H    0.151852
    28  H    0.155147
    29  H    0.155171
    30  H    0.160193
    31  C   -0.298301
    32  C   -0.301440
    33  C   -0.474314
    34  H    0.149288
    35  H    0.149386
    36  H    0.151658
    37  H    0.151288
    38  H    0.154852
    39  H    0.158417
    40  H    0.159157
 Sum of Mulliken charges =  -0.00000

 Dipole moment (field-independent basis, Debye):
    X=             -0.0133    Y=              0.0118    Z=              0.0059  Tot=              0.0187
 Quadrupole moment (field-independent basis, Debye-Ang):
   XX=            -87.1186   YY=            -84.9401   ZZ=            -83.0624
   XY=              0.4254   XZ=              0.3042   YZ=              0.1625

 Normal termination of Gaussian 16 at Wed May  5 16:50:08 2021.
