 Gaussian 16, Revision A.03,
 Gaussian 16:  EM64L-G16RevA.03 25-Dec-2016

 -------------
 #p 6-31g* mp2
 -------------

 ------------------------------------------------------
 Input file generated by CHIRIPA (05-May-2021 14:55:22)
 ------------------------------------------------------
 Symbolic Z-matrix:
 Charge =  0 Multiplicity = 1

                         Standard orientation:
 ---------------------------------------------------------------------
 Center     Atomic      Atomic             Coordinates (Angstroms)
 Number     Number       Type             X           Y           Z
 ---------------------------------------------------------------------
      1          6           0       -3.366732    2.384664   -0.818518
      2          6           0       -2.956775    1.343985   -1.658425
      3          6           0       -2.601708    0.100601   -1.126945
      4          6           0       -2.668540   -0.068071    0.255217
      5          6           0       -3.072987    0.949292    1.118168
      6          6           0       -3.423430    2.184349    0.564660
      7          1           0       -3.640761    3.347320   -1.239941
      8          1           0       -2.911787    1.496694   -2.732995
      9          1           0       -2.280801   -0.722256   -1.754116
     10          1           0       -3.107754    0.766944    2.185388
     11          1           0       -3.741437    2.990751    1.219359
     12          7           0       -2.295094   -1.379979    0.829532
     13          8           0       -2.362483   -1.503149    2.050566
     14          8           0       -1.942070   -2.260240    0.047771
     15          6           0        3.781559    0.516905   -0.162547
     16          6           0        5.108300    0.587389    0.594271
     17          6           0        5.669936    2.007371    0.671790
     18          1           0        3.924299    0.912207   -1.177587
     19          1           0        3.051516    1.174616    0.329234
     20          1           0        5.835217   -0.071321    0.102021
     21          1           0        4.962430    0.191697    1.607566
     22          1           0        4.966007    2.672745    1.182047
     23          1           0        5.843752    2.408233   -0.332052
     24          1           0        6.618571    2.034686    1.216957
     25          6           0        3.207467   -0.896162   -0.248495
     26          6           0        1.880726   -0.966645   -1.005313
     27          6           0        1.319090   -2.386628   -1.082832
     28          1           0        3.937511   -1.553872   -0.740276
     29          1           0        3.064727   -1.291463    0.766546
     30          1           0        2.026596   -0.570953   -2.018608
     31          1           0        1.153809   -0.307936   -0.513063
     32          1           0        1.145275   -2.787489   -0.078990
     33          1           0        2.023020   -3.052001   -1.593089
     34          1           0        0.370455   -2.413942   -1.627998
 ---------------------------------------------------------------------

 SCF Done:  E(RHF) =  -669.535745305     A.U. after   15 cycles
 E2 =    -0.2091893889D+01 EUMP2 =    -0.67162763919433D+03

 The electronic state is 1-A.
 Alpha  occ. eigenvalues --  -20.60905 -20.60871 -15.85916 -11.31269 -11.27833
 Alpha  occ. eigenvalues --  -11.27824 -11.27564 -11.26839 -11.26829 -11.21366
 Alpha  occ. eigenvalues --  -11.21102 -11.21076 -11.20925 -11.20920 -11.20019
 Alpha  occ. eigenvalues --   -1.59952  -1.39507  -1.19433  -1.08833  -1.08043
 Alpha  occ. eigenvalues --   -1.04831  -1.03076  -0.95686  -0.95474  -0.86495
 Alpha  occ. eigenvalues --   -0.86231  -0.82505  -0.79157  -0.77858  -0.77557
 Alpha  occ. eigenvalues --   -0.72148  -0.71272  -0.70540  -0.65091  -0.64835
 Alpha  occ. eigenvalues --   -0.64675  -0.62183  -0.60471  -0.58889  -0.57111
 Alpha  occ. eigenvalues --   -0.55334  -0.54767  -0.53162  -0.52925  -0.52153
 Alpha  occ. eigenvalues --   -0.51918  -0.49436  -0.48907  -0.48884  -0.47455
 Alpha  occ. eigenvalues --   -0.46216  -0.45389  -0.45327  -0.44861  -0.43298
 Alpha  occ. eigenvalues --   -0.37407  -0.36429
 Alpha virt. eigenvalues --    0.04959   0.11183   0.16435   0.21125   0.23179
 Alpha virt. eigenvalues --    0.24389   0.26735   0.26963   0.27664   0.27874
 Alpha virt. eigenvalues --    0.28987   0.30549   0.31612   0.31774   0.32129

 Mulliken charges:
               1
     1  C   -0.170587
     2  C   -0.218541
     3  C   -0.170368
     4  C    0.158011
     5  C   -0.171108
     6  C   -0.218514
     7  H    0.225956
     8  H    0.223972
     9  H    0.276323
    10  H    0.275686
    11  H    0.223717
    12  N    0.488732
    13  O   -0.460160
    14  O   -0.458828
    15  C   -0.297504
    16  C   -0.299473
    17  C   -0.475342
    18  H    0.147241
    19  H    0.147739
    20  H    0.151860
    21  H    0.152944
    22  H    0.153996
    23  H    0.153963
    24  H    0.159834
    25  C   -0.298042
    26  C   -0.300843
    27  C   -0.473800
    28  H    0.148963
    29  H    0.152542
    30  H    0.145403
    31  H    0.146327
    32  H    0.166737
    33  H    0.147795
    34  H    0.165367
 Sum of Mulliken charges =  -0.00000

 Dipole moment (field-independent basis, Debye):
    X=             -1.4958    Y=              4.5241    Z=             -1.9531  Tot=              5.1497
 Quadrupole moment (field-independent basis, Debye-Ang):
   XX=            -88.7966   YY=            -96.0375   ZZ=            -91.0445
   XY=            -13.5865   XZ=              3.8276   YZ=              2.9957

 Normal termination of Gaussian 16 at Thu May  6 19:13:02 2021.
