 Gaussian 16, Revision A.03,
 Gaussian 16:  EM64L-G16RevA.03 25-Dec-2016

 -------------
 #p 6-31g* mp2
 -------------

 ------------------------------------------------------
 Input file generated by CHIRIPA (05-May-2021 14:57:26)
 ------------------------------------------------------
 Symbolic Z-matrix:
 Charge =  0 Multiplicity = 1

                         Standard orientation:
 ---------------------------------------------------------------------
 Center     Atomic      Atomic             Coordinates (Angstroms)
 Number     Number       Type             X           Y           Z
 ---------------------------------------------------------------------
      1          6           0        3.722587    1.934904   -0.567718
      2          6           0        3.436638    0.979542   -1.548554
      3          6           0        2.896978   -0.260899   -1.195535
      4          6           0        2.654773   -0.513658    0.153813
      5          6           0        2.928916    0.417600    1.154260
      6          6           0        3.468262    1.651383    0.778185
      7          1           0        4.141686    2.895922   -0.850907
      8          1           0        3.633115    1.196979   -2.594576
      9          1           0        2.666115   -1.018678   -1.934380
     10          1           0        2.722157    0.171885    2.188809
     11          1           0        3.689340    2.391425    1.542062
     12          7           0        2.083625   -1.823333    0.539742
     13          8           0        1.879445   -2.021562    1.735423
     14          8           0        1.850954   -2.626829   -0.360756
     15          6           0       -3.318684   -2.133637   -0.449865
     16          6           0       -4.307250   -1.237775   -0.029521
     17          6           0       -4.002906    0.111645    0.172937
     18          6           0       -2.693821    0.532871   -0.055436
     19          6           0       -1.686892   -0.335310   -0.474538
     20          6           0       -2.013961   -1.680344   -0.670643
     21          1           0       -3.563932   -3.180195   -0.604672
     22          1           0       -5.321363   -1.586996    0.142716
     23          1           0       -4.748812    0.826711    0.498087
     24          1           0       -0.684898    0.042439   -0.638040
     25          1           0       -1.244193   -2.373827   -0.997116
     26          7           0       -2.359597    1.959119    0.155534
     27          8           0       -1.198757    2.305206   -0.052581
     28          8           0       -3.264801    2.703921    0.525012
 ---------------------------------------------------------------------

 SCF Done:  E(RHF) =  -868.340284991     A.U. after   16 cycles
 E2 =    -0.2599735410D+01 EUMP2 =    -0.87094002040085D+03

 The electronic state is 1-A.
 Alpha  occ. eigenvalues --  -20.61339 -20.61268 -20.60557 -20.60543 -15.86323
 Alpha  occ. eigenvalues --  -15.85594 -11.31347 -11.30739 -11.27906 -11.27803
 Alpha  occ. eigenvalues --  -11.27470 -11.27275 -11.27223 -11.26895 -11.26789
 Alpha  occ. eigenvalues --  -11.26710 -11.26266 -11.26053  -1.60377  -1.59631
 Alpha  occ. eigenvalues --   -1.39937  -1.39191  -1.19459  -1.18858  -1.08912
 Alpha  occ. eigenvalues --   -1.08289  -1.04797  -1.04215  -0.95808  -0.95175
 Alpha  occ. eigenvalues --   -0.86218  -0.85619  -0.82653  -0.82005  -0.77753
 Alpha  occ. eigenvalues --   -0.77091  -0.72542  -0.71832  -0.71696  -0.70947
 Alpha  occ. eigenvalues --   -0.70545  -0.69966  -0.65108  -0.64790  -0.64503
 Alpha  occ. eigenvalues --   -0.64182  -0.62160  -0.61558  -0.55289  -0.54715
 Alpha  occ. eigenvalues --   -0.53149  -0.52886  -0.52567  -0.52255  -0.49325
 Alpha  occ. eigenvalues --   -0.49267  -0.48588  -0.48555  -0.45402  -0.44648
 Alpha  occ. eigenvalues --   -0.37384  -0.36817  -0.36363  -0.35806
 Alpha virt. eigenvalues --    0.04711   0.05409   0.11252   0.11850   0.16281
 Alpha virt. eigenvalues --    0.16977   0.21413   0.22014   0.27229   0.27547
 Alpha virt. eigenvalues --    0.28384   0.28719   0.31114   0.31698   0.32519

 Mulliken charges:
               1
     1  C   -0.165986
     2  C   -0.215725
     3  C   -0.176400
     4  C    0.154009
     5  C   -0.167521
     6  C   -0.213482
     7  H    0.228697
     8  H    0.224390
     9  H    0.272040
    10  H    0.276509
    11  H    0.226954
    12  N    0.487457
    13  O   -0.455115
    14  O   -0.470342
    15  C   -0.170880
    16  C   -0.218187
    17  C   -0.172436
    18  C    0.158378
    19  C   -0.175967
    20  C   -0.220838
    21  H    0.226808
    22  H    0.221771
    23  H    0.273155
    24  H    0.270557
    25  H    0.240883
    26  N    0.488010
    27  O   -0.464783
    28  O   -0.461957
 Sum of Mulliken charges =  -0.00000

 Dipole moment (field-independent basis, Debye):
    X=              1.1054    Y=             -0.3347    Z=             -2.0088  Tot=              2.3171
 Quadrupole moment (field-independent basis, Debye-Ang):
   XX=            -83.7355   YY=           -115.3012   ZZ=           -100.8656
   XY=             24.6583   XZ=             -2.4038   YZ=              3.0621

 Normal termination of Gaussian 16 at Wed May  5 21:13:49 2021.
