 Gaussian 16, Revision A.03,
 Gaussian 16:  EM64L-G16RevA.03 25-Dec-2016

 -------------
 #p 6-31g* mp2
 -------------

 ------------------------------------------------------
 Input file generated by CHIRIPA (05-May-2021 14:55:23)
 ------------------------------------------------------
 Symbolic Z-matrix:
 Charge =  0 Multiplicity = 1

                         Standard orientation:
 ---------------------------------------------------------------------
 Center     Atomic      Atomic             Coordinates (Angstroms)
 Number     Number       Type             X           Y           Z
 ---------------------------------------------------------------------
      1          6           0        1.017117   -1.116725   -0.805085
      2          6           0        2.020765   -2.049822   -0.524832
      3          6           0        3.288888   -1.627141   -0.115255
      4          6           0        3.519790   -0.257568    0.004091
      5          6           0        2.540509    0.696555   -0.267846
      6          6           0        1.279730    0.251074   -0.675926
      7          1           0        0.034861   -1.453930   -1.122673
      8          1           0        1.819661   -3.112702   -0.624275
      9          1           0        4.084125   -2.327935    0.108138
     10          1           0        2.770943    1.749457   -0.159614
     11          1           0        0.502196    0.977991   -0.892901
     12          7           0        4.858408    0.201975    0.436899
     13          8           0        5.036536    1.414166    0.534358
     14          8           0        5.704142   -0.658730    0.670480
     15          6           0       -3.732422    0.941023    0.365761
     16          6           0       -2.772435    1.497899   -0.686046
     17          6           0       -1.797317    2.525772   -0.111228
     18          1           0       -4.294897    1.770680    0.815470
     19          1           0       -3.150392    0.482042    1.176915
     20          1           0       -3.356132    1.954469   -1.495650
     21          1           0       -2.212317    0.666801   -1.133438
     22          1           0       -1.190077    2.078832    0.682564
     23          1           0       -2.340391    3.373817    0.318295
     24          1           0       -1.120359    2.910791   -0.880220
     25          6           0       -4.713453   -0.087760   -0.193624
     26          6           0       -5.673440   -0.644636    0.858184
     27          6           0       -6.648558   -1.672509    0.283366
     28          1           0       -5.295483    0.371221   -1.004778
     29          1           0       -4.150978   -0.917416   -0.643332
     30          1           0       -6.233558    0.186463    1.305576
     31          1           0       -5.089743   -1.101207    1.667787
     32          1           0       -6.105484   -2.520555   -0.146158
     33          1           0       -7.255797   -1.225570   -0.510427
     34          1           0       -7.325516   -2.057528    1.052357
 ---------------------------------------------------------------------

 SCF Done:  E(RHF) =  -669.535219863     A.U. after   15 cycles
 E2 =    -0.2091796516D+01 EUMP2 =    -0.67162701637912D+03

 The electronic state is 1-A.
 Alpha  occ. eigenvalues --  -20.60721 -20.60716 -15.85773 -11.31132 -11.27701
 Alpha  occ. eigenvalues --  -11.27678 -11.27435 -11.26723 -11.26620 -11.22786
 Alpha  occ. eigenvalues --  -11.22294 -11.22256 -11.22248 -11.22169 -11.21639
 Alpha  occ. eigenvalues --   -1.59797  -1.39350  -1.19299  -1.09324  -1.08697
 Alpha  occ. eigenvalues --   -1.04708  -1.04424  -0.96876  -0.95535  -0.87894
 Alpha  occ. eigenvalues --   -0.86094  -0.82365  -0.80502  -0.79095  -0.77415
 Alpha  occ. eigenvalues --   -0.71992  -0.71120  -0.70419  -0.66015  -0.64948
 Alpha  occ. eigenvalues --   -0.64723  -0.62248  -0.61625  -0.60241  -0.58464
 Alpha  occ. eigenvalues --   -0.56165  -0.55196  -0.53608  -0.53296  -0.53027
 Alpha  occ. eigenvalues --   -0.52704  -0.50779  -0.48808  -0.48747  -0.48745
 Alpha  occ. eigenvalues --   -0.47546  -0.46644  -0.46545  -0.44758  -0.44673
 Alpha  occ. eigenvalues --   -0.37285  -0.36295
 Alpha virt. eigenvalues --    0.05112   0.11300   0.16579   0.19022   0.22596
 Alpha virt. eigenvalues --    0.23823   0.24851   0.26088   0.26404   0.28609
 Alpha virt. eigenvalues --    0.28926   0.30137   0.30778   0.31328   0.32069

 Mulliken charges:
               1
     1  C   -0.174878
     2  C   -0.218348
     3  C   -0.171386
     4  C    0.158968
     5  C   -0.174079
     6  C   -0.226874
     7  H    0.225410
     8  H    0.222999
     9  H    0.275336
    10  H    0.275825
    11  H    0.239932
    12  N    0.488019
    13  O   -0.460427
    14  O   -0.460699
    15  C   -0.299262
    16  C   -0.301207
    17  C   -0.487128
    18  H    0.153828
    19  H    0.151118
    20  H    0.157545
    21  H    0.141904
    22  H    0.158532
    23  H    0.165422
    24  H    0.156577
    25  C   -0.297943
    26  C   -0.300402
    27  C   -0.476015
    28  H    0.151608
    29  H    0.145676
    30  H    0.154055
    31  H    0.152658
    32  H    0.154412
    33  H    0.156301
    34  H    0.162523
 Sum of Mulliken charges =  -0.00000

 Dipole moment (field-independent basis, Debye):
    X=             -4.9812    Y=             -1.5314    Z=             -1.4515  Tot=              5.4097
 Quadrupole moment (field-independent basis, Debye-Ang):
   XX=           -127.3265   YY=            -89.1823   ZZ=            -95.6773
   XY=             -7.5247   XZ=             -5.5520   YZ=             -0.2501

 Normal termination of Gaussian 16 at Wed May  5 17:34:40 2021.
