 Gaussian 16, Revision A.03,
 Gaussian 16:  EM64L-G16RevA.03 25-Dec-2016

 -------------
 #p 6-31g* mp2
 -------------

 ------------------------------------------------------
 Input file generated by CHIRIPA (05-May-2021 14:57:26)
 ------------------------------------------------------
 Symbolic Z-matrix:
 Charge =  0 Multiplicity = 1

                         Standard orientation:
 ---------------------------------------------------------------------
 Center     Atomic      Atomic             Coordinates (Angstroms)
 Number     Number       Type             X           Y           Z
 ---------------------------------------------------------------------
      1          6           0        4.051346    2.491095   -0.519157
      2          6           0        5.223088    1.730412   -0.449139
      3          6           0        5.162853    0.353805   -0.212766
      4          6           0        3.908435   -0.232156   -0.050362
      5          6           0        2.723123    0.498728   -0.114647
      6          6           0        2.807296    1.873913   -0.351983
      7          1           0        4.107436    3.559924   -0.703152
      8          1           0        6.190616    2.207046   -0.578584
      9          1           0        6.054203   -0.258917   -0.153727
     10          1           0        1.773204   -0.004621    0.018441
     11          1           0        1.895652    2.462172   -0.405854
     12          7           0        3.831996   -1.688756    0.200385
     13          8           0        2.714559   -2.181166    0.340043
     14          8           0        4.890967   -2.310447    0.252515
     15          6           0       -1.529024    0.010903    0.894099
     16          6           0       -2.484864    0.815055    1.523569
     17          6           0       -3.813136    0.812652    1.087408
     18          6           0       -4.152284   -0.009728    0.014114
     19          6           0       -3.222939   -0.822132   -0.633657
     20          6           0       -1.900459   -0.803688   -0.180611
     21          1           0       -0.499440    0.019000    1.239478
     22          1           0       -2.199263    1.448674    2.358437
     23          1           0       -4.573392    1.425311    1.556532
     24          1           0       -3.537774   -1.443246   -1.463426
     25          1           0       -1.160267   -1.429240   -0.671372
     26          7           0       -5.555401   -0.020763   -0.456568
     27          8           0       -5.828750   -0.754152   -1.404227
     28          8           0       -6.355246    0.704187    0.131082
 ---------------------------------------------------------------------

 SCF Done:  E(RHF) =  -868.337745131     A.U. after   16 cycles
 E2 =    -0.2599557086D+01 EUMP2 =    -0.87093730221728D+03

 The electronic state is 1-A.
 Alpha  occ. eigenvalues --  -20.61646 -20.61603 -20.60850 -20.60843 -15.86678
 Alpha  occ. eigenvalues --  -15.85902 -11.32037 -11.31315 -11.28696 -11.28524
 Alpha  occ. eigenvalues --  -11.28260 -11.27884 -11.27836 -11.27677 -11.27613
 Alpha  occ. eigenvalues --  -11.27530 -11.26951 -11.26856  -1.60695  -1.59923
 Alpha  occ. eigenvalues --   -1.40254  -1.39475  -1.20186  -1.19486  -1.09567
 Alpha  occ. eigenvalues --   -1.08888  -1.05595  -1.04881  -0.96417  -0.95716
 Alpha  occ. eigenvalues --   -0.86988  -0.86282  -0.83255  -0.82535  -0.78326
 Alpha  occ. eigenvalues --   -0.77560  -0.72898  -0.72119  -0.72014  -0.71328
 Alpha  occ. eigenvalues --   -0.71246  -0.70610  -0.65837  -0.65592  -0.65138
 Alpha  occ. eigenvalues --   -0.64870  -0.62961  -0.62211  -0.56075  -0.55426
 Alpha  occ. eigenvalues --   -0.53904  -0.53669  -0.53223  -0.52963  -0.49668
 Alpha  occ. eigenvalues --   -0.49635  -0.48882  -0.48871  -0.45661  -0.44869
 Alpha  occ. eigenvalues --   -0.38131  -0.37501  -0.37194  -0.36479
 Alpha virt. eigenvalues --    0.04213   0.04938   0.10442   0.11148   0.15739
 Alpha virt. eigenvalues --    0.16349   0.18646   0.21865   0.25032   0.26901
 Alpha virt. eigenvalues --    0.27477   0.29259   0.30622   0.30849   0.31882

 Mulliken charges:
               1
     1  C   -0.170280
     2  C   -0.217853
     3  C   -0.169768
     4  C    0.160750
     5  C   -0.177404
     6  C   -0.219490
     7  H    0.228688
     8  H    0.226651
     9  H    0.277964
    10  H    0.269580
    11  H    0.224692
    12  N    0.488072
    13  O   -0.466317
    14  O   -0.455480
    15  C   -0.178038
    16  C   -0.218698
    17  C   -0.171340
    18  C    0.159000
    19  C   -0.171014
    20  C   -0.220726
    21  H    0.225146
    22  H    0.222885
    23  H    0.275673
    24  H    0.277343
    25  H    0.231717
    26  N    0.487939
    27  O   -0.459260
    28  O   -0.460430
 Sum of Mulliken charges =  -0.00000

 Dipole moment (field-independent basis, Debye):
    X=              5.4172    Y=              5.1890    Z=              0.6992  Tot=              7.5339
 Quadrupole moment (field-independent basis, Debye-Ang):
   XX=           -137.4096   YY=           -105.6748   ZZ=           -103.4614
   XY=             19.1479   XZ=            -11.6322   YZ=              2.6308

 Normal termination of Gaussian 16 at Thu May  6 13:06:17 2021.
