 Gaussian 16, Revision A.03,
 Gaussian 16:  EM64L-G16RevA.03 25-Dec-2016

 -------------
 #p 6-31g* mp2
 -------------

 ------------------------------------------------------
 Input file generated by CHIRIPA (05-May-2021 14:55:24)
 ------------------------------------------------------
 Symbolic Z-matrix:
 Charge =  0 Multiplicity = 1

                         Standard orientation:
 ---------------------------------------------------------------------
 Center     Atomic      Atomic             Coordinates (Angstroms)
 Number     Number       Type             X           Y           Z
 ---------------------------------------------------------------------
      1          6           0        2.578472    2.008365   -1.245982
      2          6           0        1.370491    1.352685   -0.986394
      3          6           0        1.362309    0.093908   -0.378149
      4          6           0        2.586007   -0.482575   -0.041222
      5          6           0        3.806061    0.145451   -0.286864
      6          6           0        3.790266    1.403722   -0.896005
      7          1           0        2.575515    2.986017   -1.718829
      8          1           0        0.427883    1.819860   -1.257102
      9          1           0        0.441701   -0.435973   -0.165722
     10          1           0        4.729757   -0.345531   -0.005545
     11          1           0        4.729927    1.910597   -1.096403
     12          7           0        2.590037   -1.814918    0.603174
     13          8           0        3.681576   -2.301460    0.890328
     14          8           0        1.501581   -2.347439    0.808896
     15          6           0       -2.634269    0.667653    0.323869
     16          6           0       -2.743282    1.955444    1.140995
     17          6           0       -1.384662    2.605980    1.403195
     18          1           0       -1.982881   -0.041035    0.853398
     19          1           0       -2.142093    0.889471   -0.633186
     20          1           0       -3.236350    1.731523    2.095646
     21          1           0       -3.394640    2.661077    0.609553
     22          1           0       -0.889525    2.857606    0.459732
     23          1           0       -0.730336    1.922772    1.954269
     24          1           0       -1.485933    3.525017    1.988839
     25          6           0       -3.984208    0.005600    0.053542
     26          6           0       -3.875196   -1.282191   -0.763584
     27          6           0       -5.233815   -1.932729   -1.025784
     28          1           0       -4.476384   -0.216218    1.010597
     29          1           0       -4.635597    0.714288   -0.475986
     30          1           0       -3.223837   -1.987823   -0.232141
     31          1           0       -3.382127   -1.058270   -1.718235
     32          1           0       -5.888142   -1.249519   -1.576858
     33          1           0       -5.728953   -2.184354   -0.082320
     34          1           0       -5.132544   -2.851763   -1.611428
 ---------------------------------------------------------------------

 SCF Done:  E(RHF) =  -669.534955689     A.U. after   15 cycles
 E2 =    -0.2092897235D+01 EUMP2 =    -0.67162785292345D+03

 The electronic state is 1-A.
 Alpha  occ. eigenvalues --  -20.60724 -20.60718 -15.85774 -11.31099 -11.27674
 Alpha  occ. eigenvalues --  -11.27619 -11.27412 -11.26693 -11.26645 -11.22179
 Alpha  occ. eigenvalues --  -11.22083 -11.21820 -11.21750 -11.21700 -11.21191
 Alpha  occ. eigenvalues --   -1.59798  -1.39353  -1.19273  -1.08920  -1.08680
 Alpha  occ. eigenvalues --   -1.04674  -1.03937  -0.96416  -0.95518  -0.87432
 Alpha  occ. eigenvalues --   -0.86073  -0.82362  -0.80029  -0.78764  -0.77374
 Alpha  occ. eigenvalues --   -0.71994  -0.71120  -0.70383  -0.65586  -0.64925
 Alpha  occ. eigenvalues --   -0.64676  -0.62069  -0.61301  -0.59772  -0.58030
 Alpha  occ. eigenvalues --   -0.55727  -0.55177  -0.53164  -0.53062  -0.52909
 Alpha  occ. eigenvalues --   -0.52556  -0.50353  -0.48757  -0.48750  -0.48306
 Alpha  occ. eigenvalues --   -0.47041  -0.46254  -0.46156  -0.44766  -0.44220
 Alpha  occ. eigenvalues --   -0.37258  -0.36237
 Alpha virt. eigenvalues --    0.05113   0.11303   0.16561   0.19581   0.22934
 Alpha virt. eigenvalues --    0.23860   0.24799   0.25476   0.27284   0.28451
 Alpha virt. eigenvalues --    0.29753   0.30329   0.31316   0.31524   0.32050

 Mulliken charges:
               1
     1  C   -0.171904
     2  C   -0.219014
     3  C   -0.175937
     4  C    0.158278
     5  C   -0.170677
     6  C   -0.218688
     7  H    0.225157
     8  H    0.225736
     9  H    0.281729
    10  H    0.275172
    11  H    0.223038
    12  N    0.487913
    13  O   -0.460610
    14  O   -0.461280
    15  C   -0.306638
    16  C   -0.299801
    17  C   -0.477573
    18  H    0.156964
    19  H    0.139886
    20  H    0.156940
    21  H    0.152482
    22  H    0.145259
    23  H    0.160967
    24  H    0.163350
    25  C   -0.297583
    26  C   -0.302252
    27  C   -0.476055
    28  H    0.153362
    29  H    0.149846
    30  H    0.158736
    31  H    0.149474
    32  H    0.154250
    33  H    0.156762
    34  H    0.162712
 Sum of Mulliken charges =  -0.00000

 Dipole moment (field-independent basis, Debye):
    X=             -0.1841    Y=              4.6305    Z=             -2.1536  Tot=              5.1101
 Quadrupole moment (field-independent basis, Debye-Ang):
   XX=            -90.0802   YY=           -100.0116   ZZ=            -94.5861
   XY=             12.0740   XZ=             -6.1722   YZ=              0.3818

 Normal termination of Gaussian 16 at Thu May  6 14:22:09 2021.
