 Gaussian 16, Revision A.03,
 Gaussian 16:  EM64L-G16RevA.03 25-Dec-2016

 -------------
 #p 6-31g* mp2
 -------------

 ------------------------------------------------------
 Input file generated by CHIRIPA (05-May-2021 14:55:19)
 ------------------------------------------------------
 Symbolic Z-matrix:
 Charge =  0 Multiplicity = 1

                         Standard orientation:
 ---------------------------------------------------------------------
 Center     Atomic      Atomic             Coordinates (Angstroms)
 Number     Number       Type             X           Y           Z
 ---------------------------------------------------------------------
      1          6           0       -4.124797    1.147526   -0.934131
      2          6           0       -4.269192   -0.237953   -1.061096
      3          6           0       -3.344129   -1.105143   -0.472209
      4          6           0       -2.281886   -0.550117    0.239742
      5          6           0       -2.110794    0.825816    0.384060
      6          6           0       -3.047958    1.674060   -0.213228
      7          1           0       -4.848108    1.813821   -1.394856
      8          1           0       -5.104495   -0.649680   -1.620375
      9          1           0       -3.431889   -2.181665   -0.554779
     10          1           0       -1.267754    1.206592    0.947719
     11          1           0       -2.933301    2.749629   -0.112977
     12          7           0       -1.296159   -1.458144    0.867618
     13          8           0       -0.369075   -0.944129    1.489664
     14          8           0       -1.469294   -2.666677    0.725813
     15          6           0        2.662841    0.962620    0.230338
     16          6           0        2.705845    2.427780   -0.204910
     17          6           0        1.768388    3.315538    0.614147
     18          1           0        1.632937    0.590554    0.141962
     19          1           0        2.929235    0.895444    1.294253
     20          1           0        2.440795    2.492028   -1.268036
     21          1           0        3.735802    2.796345   -0.115671
     22          1           0        2.034805    3.281155    1.675487
     23          1           0        0.732440    2.975108    0.516574
     24          1           0        1.815004    4.358701    0.286281
     25          6           0        3.594685    0.062565   -0.579166
     26          6           0        3.551681   -1.402595   -0.143918
     27          6           0        4.489138   -2.290353   -0.962976
     28          1           0        3.328291    0.129741   -1.643081
     29          1           0        4.624590    0.434631   -0.490791
     30          1           0        2.521724   -1.771160   -0.233157
     31          1           0        3.816731   -1.466843    0.919208
     32          1           0        5.525086   -1.949923   -0.865402
     33          1           0        4.222721   -2.255971   -2.024314
     34          1           0        4.442522   -3.333516   -0.635109
 ---------------------------------------------------------------------

 SCF Done:  E(RHF) =  -669.536017143     A.U. after   15 cycles
 E2 =    -0.2092338448D+01 EUMP2 =    -0.67162835559102D+03

 The electronic state is 1-A.
 Alpha  occ. eigenvalues --  -20.60967 -20.60952 -15.85976 -11.31295 -11.27857
 Alpha  occ. eigenvalues --  -11.27845 -11.27589 -11.26864 -11.26852 -11.21304
 Alpha  occ. eigenvalues --  -11.21150 -11.20684 -11.20595 -11.20573 -11.20292
 Alpha  occ. eigenvalues --   -1.60018  -1.39573  -1.19463  -1.08868  -1.07781
 Alpha  occ. eigenvalues --   -1.04857  -1.02987  -0.95711  -0.95464  -0.86499
 Alpha  occ. eigenvalues --   -0.86257  -0.82543  -0.79041  -0.77677  -0.77422
 Alpha  occ. eigenvalues --   -0.72196  -0.71330  -0.70572  -0.65118  -0.64867
 Alpha  occ. eigenvalues --   -0.64419  -0.62213  -0.60395  -0.58857  -0.57035
 Alpha  occ. eigenvalues --   -0.55364  -0.54779  -0.53188  -0.52949  -0.52201
 Alpha  occ. eigenvalues --   -0.51892  -0.49470  -0.48960  -0.48958  -0.47345
 Alpha  occ. eigenvalues --   -0.46066  -0.45402  -0.45030  -0.44509  -0.43189
 Alpha  occ. eigenvalues --   -0.37441  -0.36455
 Alpha virt. eigenvalues --    0.04875   0.11150   0.16356   0.20131   0.23279
 Alpha virt. eigenvalues --    0.24242   0.26053   0.27473   0.27752   0.28506
 Alpha virt. eigenvalues --    0.29380   0.30949   0.31471   0.32148   0.32475

 Mulliken charges:
               1
     1  C   -0.170563
     2  C   -0.218611
     3  C   -0.170597
     4  C    0.158453
     5  C   -0.176958
     6  C   -0.219676
     7  H    0.226108
     8  H    0.223876
     9  H    0.275763
    10  H    0.282542
    11  H    0.224429
    12  N    0.487470
    13  O   -0.458454
    14  O   -0.459025
    15  C   -0.302697
    16  C   -0.299528
    17  C   -0.474292
    18  H    0.161283
    19  H    0.152269
    20  H    0.148767
    21  H    0.151579
    22  H    0.158780
    23  H    0.142795
    24  H    0.158245
    25  C   -0.298863
    26  C   -0.299861
    27  C   -0.475734
    28  H    0.144912
    29  H    0.145960
    30  H    0.162866
    31  H    0.154163
    32  H    0.151618
    33  H    0.151729
    34  H    0.161252
 Sum of Mulliken charges =  -0.00000

 Dipole moment (field-independent basis, Debye):
    X=             -3.6149    Y=              3.0369    Z=             -2.0972  Tot=              5.1661
 Quadrupole moment (field-independent basis, Debye-Ang):
   XX=            -78.3003   YY=            -96.3192   ZZ=            -95.8207
   XY=             -2.7116   XZ=              6.7065   YZ=              3.2416

 Normal termination of Gaussian 16 at Thu May  6 10:47:45 2021.
