 Gaussian 16, Revision A.03,
 Gaussian 16:  EM64L-G16RevA.03 25-Dec-2016

 -------------
 #p 6-31g* mp2
 -------------

 ------------------------------------------------------
 Input file generated by CHIRIPA (05-May-2021 14:51:11)
 ------------------------------------------------------
 Symbolic Z-matrix:
 Charge =  0 Multiplicity = 1

                         Standard orientation:
 ---------------------------------------------------------------------
 Center     Atomic      Atomic             Coordinates (Angstroms)
 Number     Number       Type             X           Y           Z
 ---------------------------------------------------------------------
      1          6           0        4.365202   -0.683597   -0.045804
      2          6           0        5.787631   -0.213163   -0.351376
      3          6           0        6.649340   -1.307206   -0.982503
      4          1           0        4.409277   -1.551235    0.626659
      5          1           0        3.894117   -1.032163   -0.975307
      6          1           0        6.255414    0.135702    0.578187
      7          1           0        5.740158    0.653574   -1.023038
      8          1           0        6.208248   -1.649815   -1.924127
      9          1           0        6.726431   -2.170630   -0.313805
     10          1           0        7.662082   -0.949367   -1.192658
     11          6           0        3.491554    0.398981    0.585456
     12          6           0        2.069125   -0.071454    0.891028
     13          6           0        1.207416    1.022589    1.522154
     14          1           0        3.962639    0.747546    1.514959
     15          1           0        3.447479    1.266619   -0.087008
     16          1           0        2.116598   -0.938191    1.562689
     17          1           0        1.601342   -0.420319   -0.038535
     18          1           0        1.130325    1.886014    0.853456
     19          1           0        1.648508    1.365199    2.463779
     20          1           0        0.194674    0.664751    1.732310
     21          6           0       -3.731327    0.851882   -0.472575
     22          6           0       -2.228706    1.116234   -0.371402
     23          6           0       -1.850113    2.540050   -0.780313
     24          1           0       -4.061463    1.038840   -1.503595
     25          1           0       -4.266699    1.571333    0.162374
     26          1           0       -1.696244    0.395609   -1.005279
     27          1           0       -1.902072    0.928439    0.659452
     28          1           0       -2.355163    3.271569   -0.141249
     29          1           0       -2.148166    2.735712   -1.815438
     30          1           0       -0.771447    2.707282   -0.700473
     31          6           0       -4.125430   -0.567266   -0.067077
     32          6           0       -5.628050   -0.831617   -0.168249
     33          6           0       -6.006643   -2.255434    0.240662
     34          1           0       -3.590057   -1.286717   -0.702025
     35          1           0       -3.795293   -0.754224    0.963943
     36          1           0       -5.954683   -0.643823   -1.199104
     37          1           0       -6.160512   -0.110992    0.465627
     38          1           0       -5.708590   -2.451095    1.275787
     39          1           0       -5.501593   -2.986954   -0.398403
     40          1           0       -7.085308   -2.422665    0.160821
 ---------------------------------------------------------------------

 SCF Done:  E(RHF) =  -470.732733955     A.U. after   11 cycles
 E2 =    -0.1583110436D+01 EUMP2 =    -0.47231584439096D+03

 The electronic state is 1-A.
 Alpha  occ. eigenvalues --  -11.21599 -11.21596 -11.21585 -11.21551 -11.21400
 Alpha  occ. eigenvalues --  -11.21391 -11.21340 -11.21329 -11.21069 -11.21067
 Alpha  occ. eigenvalues --  -11.21034 -11.21022  -1.08434  -1.08403  -1.03563
 Alpha  occ. eigenvalues --   -1.03469  -0.96026  -0.95908  -0.87001  -0.86970
 Alpha  occ. eigenvalues --   -0.79624  -0.79542  -0.78239  -0.78227  -0.65065
 Alpha  occ. eigenvalues --   -0.65043  -0.60983  -0.60904  -0.59487  -0.59193
 Alpha  occ. eigenvalues --   -0.57646  -0.57523  -0.55285  -0.55200  -0.52731
 Alpha  occ. eigenvalues --   -0.52622  -0.52476  -0.52301  -0.49904  -0.49884
 Alpha  occ. eigenvalues --   -0.48043  -0.47758  -0.46652  -0.46554  -0.45786
 Alpha  occ. eigenvalues --   -0.45762  -0.45718  -0.45666  -0.43793  -0.43695
 Alpha virt. eigenvalues --    0.21285   0.23062   0.23459   0.25182   0.25882
 Alpha virt. eigenvalues --    0.26537   0.26626   0.27253   0.27889   0.29211
 Alpha virt. eigenvalues --    0.29639   0.30892   0.31174   0.31960   0.32764

 Mulliken charges:
               1
     1  C   -0.298237
     2  C   -0.299645
     3  C   -0.475697
     4  H    0.149658
     5  H    0.149452
     6  H    0.151931
     7  H    0.151931
     8  H    0.155153
     9  H    0.155175
    10  H    0.160247
    11  C   -0.298477
    12  C   -0.299931
    13  C   -0.480764
    14  H    0.149554
    15  H    0.149423
    16  H    0.151797
    17  H    0.152458
    18  H    0.157087
    19  H    0.154488
    20  H    0.164626
    21  C   -0.297979
    22  C   -0.302545
    23  C   -0.478193
    24  H    0.149405
    25  H    0.149441
    26  H    0.151232
    27  H    0.156245
    28  H    0.155148
    29  H    0.154698
    30  H    0.162707
    31  C   -0.298192
    32  C   -0.299605
    33  C   -0.475704
    34  H    0.149455
    35  H    0.149209
    36  H    0.151956
    37  H    0.151944
    38  H    0.155148
    39  H    0.155160
    40  H    0.160240
 Sum of Mulliken charges =  -0.00000

 Dipole moment (field-independent basis, Debye):
    X=              0.0013    Y=              0.0007    Z=              0.0110  Tot=              0.0111
 Quadrupole moment (field-independent basis, Debye-Ang):
   XX=            -85.5546   YY=            -86.0858   ZZ=            -83.2546
   XY=             -0.0537   XZ=              0.5825   YZ=             -0.0244

 Normal termination of Gaussian 16 at Wed May  5 21:27:47 2021.
