 Gaussian 16, Revision A.03,
 Gaussian 16:  EM64L-G16RevA.03 25-Dec-2016

 -------------
 #p 6-31g* mp2
 -------------

 ------------------------------------------------------
 Input file generated by CHIRIPA (05-May-2021 14:51:13)
 ------------------------------------------------------
 Symbolic Z-matrix:
 Charge =  0 Multiplicity = 1

                         Standard orientation:
 ---------------------------------------------------------------------
 Center     Atomic      Atomic             Coordinates (Angstroms)
 Number     Number       Type             X           Y           Z
 ---------------------------------------------------------------------
      1          6           0        4.049442   -0.176490   -0.259264
      2          6           0        3.595088   -1.588934    0.110259
      3          6           0        4.588131   -2.664074   -0.332158
      4          1           0        4.195322   -0.117799   -1.346563
      5          1           0        5.029355    0.017471    0.198498
      6          1           0        2.615690   -1.779670   -0.346924
      7          1           0        3.450088   -1.644215    1.196783
      8          1           0        5.565070   -2.501631    0.134537
      9          1           0        4.725931   -2.637855   -1.417941
     10          1           0        4.243580   -3.666064   -0.058002
     11          6           0        3.067125    0.909310    0.176420
     12          6           0        3.521480    2.321754   -0.193103
     13          6           0        2.528436    3.396894    0.249314
     14          1           0        2.087212    0.715349   -0.281342
     15          1           0        2.921245    0.850619    1.263719
     16          1           0        3.666479    2.377036   -1.279627
     17          1           0        4.500877    2.512490    0.264080
     18          1           0        2.390637    3.370675    1.335097
     19          1           0        1.551497    3.234451   -0.217381
     20          1           0        2.872987    4.398884   -0.024842
     21          6           0       -4.285947   -0.379152    0.273318
     22          6           0       -5.213990    0.471211   -0.594786
     23          6           0       -6.666379    0.435588   -0.118244
     24          1           0       -4.646722   -1.416828    0.277205
     25          1           0       -4.340753   -0.025283    1.312148
     26          1           0       -5.156401    0.116732   -1.631919
     27          1           0       -4.850854    1.506945   -0.596762
     28          1           0       -6.744391    0.809039    0.907937
     29          1           0       -7.051674   -0.589072   -0.133101
     30          1           0       -7.312347    1.050174   -0.752962
     31          6           0       -2.830620   -0.353668   -0.190474
     32          6           0       -1.902578   -1.204031    0.677630
     33          6           0       -0.450189   -1.168408    0.201088
     34          1           0       -2.775814   -0.707537   -1.229304
     35          1           0       -2.469845    0.684008   -0.194361
     36          1           0       -2.265713   -2.239765    0.679606
     37          1           0       -1.960167   -0.849552    1.714763
     38          1           0       -0.064893   -0.143748    0.215945
     39          1           0       -0.372176   -1.541859   -0.825093
     40          1           0        0.195780   -1.782995    0.835806
 ---------------------------------------------------------------------

 SCF Done:  E(RHF) =  -470.732757064     A.U. after   11 cycles
 E2 =    -0.1583334846D+01 EUMP2 =    -0.47231609190955D+03

 The electronic state is 1-A.
 Alpha  occ. eigenvalues --  -11.21603 -11.21586 -11.21564 -11.21494 -11.21407
 Alpha  occ. eigenvalues --  -11.21348 -11.21329 -11.21264 -11.21073 -11.21072
 Alpha  occ. eigenvalues --  -11.21030 -11.21013  -1.08435  -1.08366  -1.03530
 Alpha  occ. eigenvalues --   -1.03478  -0.95991  -0.95926  -0.87007  -0.86952
 Alpha  occ. eigenvalues --   -0.79634  -0.79532  -0.78293  -0.78115  -0.65077
 Alpha  occ. eigenvalues --   -0.64992  -0.60966  -0.60850  -0.59422  -0.59230
 Alpha  occ. eigenvalues --   -0.57659  -0.57488  -0.55353  -0.55152  -0.52765
 Alpha  occ. eigenvalues --   -0.52574  -0.52479  -0.52288  -0.50026  -0.49794
 Alpha  occ. eigenvalues --   -0.48000  -0.47797  -0.46726  -0.46504  -0.45933
 Alpha  occ. eigenvalues --   -0.45729  -0.45681  -0.45386  -0.43769  -0.43686
 Alpha virt. eigenvalues --    0.22090   0.22991   0.23989   0.24184   0.25451
 Alpha virt. eigenvalues --    0.26650   0.26789   0.27606   0.27961   0.29596
 Alpha virt. eigenvalues --    0.29830   0.30973   0.31778   0.31946   0.32237

 Mulliken charges:
               1
     1  C   -0.297744
     2  C   -0.304915
     3  C   -0.475503
     4  H    0.149099
     5  H    0.149012
     6  H    0.160143
     7  H    0.150844
     8  H    0.154817
     9  H    0.154859
    10  H    0.159802
    11  C   -0.304364
    12  C   -0.299038
    13  C   -0.475764
    14  H    0.157307
    15  H    0.148871
    16  H    0.151728
    17  H    0.151753
    18  H    0.155003
    19  H    0.154237
    20  H    0.160369
    21  C   -0.298233
    22  C   -0.299638
    23  C   -0.475704
    24  H    0.149661
    25  H    0.149614
    26  H    0.151840
    27  H    0.151959
    28  H    0.155226
    29  H    0.155169
    30  H    0.160253
    31  C   -0.298455
    32  C   -0.300602
    33  C   -0.480232
    34  H    0.149263
    35  H    0.149437
    36  H    0.151722
    37  H    0.152038
    38  H    0.159660
    39  H    0.153399
    40  H    0.163104
 Sum of Mulliken charges =  -0.00000

 Dipole moment (field-independent basis, Debye):
    X=             -0.0176    Y=             -0.0075    Z=              0.0008  Tot=              0.0191
 Quadrupole moment (field-independent basis, Debye-Ang):
   XX=            -86.3387   YY=            -85.0056   ZZ=            -83.7270
   XY=              0.8130   XZ=              0.9164   YZ=              0.3197

 Normal termination of Gaussian 16 at Thu May  6 02:22:52 2021.
