 Gaussian 16, Revision A.03,
 Gaussian 16:  EM64L-G16RevA.03 25-Dec-2016

 -------------
 #p 6-31g* mp2
 -------------

 ------------------------------------------------------
 Input file generated by CHIRIPA (05-May-2021 14:55:25)
 ------------------------------------------------------
 Symbolic Z-matrix:
 Charge =  0 Multiplicity = 1

                         Standard orientation:
 ---------------------------------------------------------------------
 Center     Atomic      Atomic             Coordinates (Angstroms)
 Number     Number       Type             X           Y           Z
 ---------------------------------------------------------------------
      1          6           0        1.440684    1.783417    1.589978
      2          6           0        1.064030    0.513812    2.040265
      3          6           0        1.440057   -0.631260    1.331773
      4          6           0        2.196074   -0.469251    0.171824
      5          6           0        2.586817    0.782049   -0.302368
      6          6           0        2.199538    1.913254    0.422158
      7          1           0        1.144207    2.667550    2.146580
      8          1           0        0.474699    0.409959    2.946878
      9          1           0        1.162117   -1.626179    1.657816
     10          1           0        3.174338    0.853756   -1.209614
     11          1           0        2.493483    2.897984    0.070096
     12          7           0        2.600113   -1.674148   -0.586712
     13          8           0        3.266125   -1.504555   -1.605684
     14          8           0        2.243136   -2.765323   -0.147918
     15          6           0       -2.229477    0.679842   -0.855361
     16          6           0       -1.830413    2.091235   -0.423269
     17          6           0       -0.837144    2.745062   -1.384374
     18          1           0       -1.327205    0.057730   -0.931689
     19          1           0       -2.666196    0.722030   -1.862779
     20          1           0       -1.395844    2.046584    0.583594
     21          1           0       -2.733760    2.710009   -0.347776
     22          1           0       -1.265148    2.818873   -2.389345
     23          1           0        0.080369    2.151679   -1.452683
     24          1           0       -0.565497    3.753287   -1.056428
     25          6           0       -3.222000    0.013072    0.095453
     26          6           0       -3.621065   -1.398320   -0.336640
     27          6           0       -4.614332   -2.052147    0.624465
     28          1           0       -2.785281   -0.029115    1.102871
     29          1           0       -4.124272    0.635185    0.171780
     30          1           0       -2.717717   -2.017094   -0.412133
     31          1           0       -4.055632   -1.353669   -1.343502
     32          1           0       -5.531847   -1.458765    0.692774
     33          1           0       -4.186329   -2.125959    1.629435
     34          1           0       -4.885981   -3.060373    0.296519
 ---------------------------------------------------------------------

 SCF Done:  E(RHF) =  -669.534395100     A.U. after   15 cycles
 E2 =    -0.2095100495D+01 EUMP2 =    -0.67162949559527D+03

 The electronic state is 1-A.
 Alpha  occ. eigenvalues --  -20.60884 -20.60879 -15.85940 -11.31362 -11.27914
 Alpha  occ. eigenvalues --  -11.27886 -11.27630 -11.26951 -11.26900 -11.21830
 Alpha  occ. eigenvalues --  -11.21674 -11.21580 -11.21495 -11.21291 -11.21169
 Alpha  occ. eigenvalues --   -1.59959  -1.39511  -1.19534  -1.08925  -1.08582
 Alpha  occ. eigenvalues --   -1.04940  -1.03696  -0.96161  -0.95736  -0.87186
 Alpha  occ. eigenvalues --   -0.86316  -0.82566  -0.79769  -0.78409  -0.77606
 Alpha  occ. eigenvalues --   -0.72154  -0.71286  -0.70615  -0.65262  -0.65172
 Alpha  occ. eigenvalues --   -0.64912  -0.62271  -0.61159  -0.59538  -0.57773
 Alpha  occ. eigenvalues --   -0.55545  -0.55414  -0.53184  -0.53021  -0.52840
 Alpha  occ. eigenvalues --   -0.52545  -0.50109  -0.48918  -0.48907  -0.48067
 Alpha  occ. eigenvalues --   -0.46821  -0.45943  -0.45880  -0.44905  -0.43962
 Alpha  occ. eigenvalues --   -0.37429  -0.36437
 Alpha virt. eigenvalues --    0.04884   0.11042   0.16316   0.20745   0.22850
 Alpha virt. eigenvalues --    0.24111   0.26067   0.26720   0.27149   0.28333
 Alpha virt. eigenvalues --    0.28546   0.30481   0.31165   0.31486   0.31949

 Mulliken charges:
               1
     1  C   -0.168700
     2  C   -0.217903
     3  C   -0.172021
     4  C    0.159844
     5  C   -0.173966
     6  C   -0.215503
     7  H    0.227111
     8  H    0.224539
     9  H    0.276183
    10  H    0.276695
    11  H    0.225826
    12  N    0.487910
    13  O   -0.459660
    14  O   -0.460041
    15  C   -0.298979
    16  C   -0.299309
    17  C   -0.479354
    18  H    0.152504
    19  H    0.151010
    20  H    0.147126
    21  H    0.150517
    22  H    0.156404
    23  H    0.161081
    24  H    0.150833
    25  C   -0.297147
    26  C   -0.300923
    27  C   -0.475364
    28  H    0.143385
    29  H    0.149183
    30  H    0.155539
    31  H    0.153531
    32  H    0.154631
    33  H    0.152533
    34  H    0.162483
 Sum of Mulliken charges =  -0.00000

 Dipole moment (field-independent basis, Debye):
    X=             -1.2933    Y=              4.1591    Z=              2.6707  Tot=              5.1092
 Quadrupole moment (field-independent basis, Debye-Ang):
   XX=           -100.4190   YY=            -98.0113   ZZ=            -92.0441
   XY=             11.2936   XZ=              4.8917   YZ=             -2.3661

 Normal termination of Gaussian 16 at Thu May  6 11:05:43 2021.
