 Gaussian 16, Revision A.03,
 Gaussian 16:  EM64L-G16RevA.03 25-Dec-2016

 -------------
 #p 6-31g* mp2
 -------------

 ------------------------------------------------------
 Input file generated by CHIRIPA (05-May-2021 14:55:25)
 ------------------------------------------------------
 Symbolic Z-matrix:
 Charge =  0 Multiplicity = 1

                         Standard orientation:
 ---------------------------------------------------------------------
 Center     Atomic      Atomic             Coordinates (Angstroms)
 Number     Number       Type             X           Y           Z
 ---------------------------------------------------------------------
      1          6           0        4.845753    0.893670    0.004157
      2          6           0        3.626900    1.569613   -0.114240
      3          6           0        2.421257    0.862005   -0.130558
      4          6           0        2.471603   -0.527173   -0.025969
      5          6           0        3.669985   -1.229294    0.093188
      6          6           0        4.863375   -0.501167    0.107311
      7          1           0        5.777567    1.451326    0.015980
      8          1           0        3.610182    2.652812   -0.194519
      9          1           0        1.463550    1.360007   -0.221162
     10          1           0        3.654694   -2.309599    0.171446
     11          1           0        5.808473   -1.028764    0.199370
     12          7           0        1.201729   -1.287146   -0.042082
     13          8           0        1.273063   -2.510576    0.051555
     14          8           0        0.159113   -0.644994   -0.148043
     15          6           0       -3.081447    1.078590    0.407488
     16          6           0       -2.739007    2.278585   -0.476104
     17          6           0       -2.039001    3.398923    0.293718
     18          1           0       -3.721745    1.411964    1.235633
     19          1           0       -2.158894    0.691575    0.861922
     20          1           0       -3.661755    2.662366   -0.929829
     21          1           0       -2.099607    1.942281   -1.302351
     22          1           0       -1.103421    3.038139    0.733180
     23          1           0       -2.674444    3.762315    1.107818
     24          1           0       -1.803370    4.246764   -0.357052
     25          6           0       -3.781643   -0.049676   -0.347807
     26          6           0       -4.124081   -1.249670    0.535785
     27          6           0       -4.824088   -2.370007   -0.234037
     28          1           0       -4.704196    0.337339   -0.802241
     29          1           0       -3.141344   -0.383048   -1.175952
     30          1           0       -4.763482   -0.913367    1.362032
     31          1           0       -3.201334   -1.633451    0.989510
     32          1           0       -4.188644   -2.733399   -1.048137
     33          1           0       -5.759668   -2.009224   -0.673499
     34          1           0       -5.059719   -3.217849    0.416733
 ---------------------------------------------------------------------

 SCF Done:  E(RHF) =  -669.536491489     A.U. after   15 cycles
 E2 =    -0.2091634680D+01 EUMP2 =    -0.67162812616883D+03

 The electronic state is 1-A.
 Alpha  occ. eigenvalues --  -20.61047 -20.61036 -15.86075 -11.31347 -11.27904
 Alpha  occ. eigenvalues --  -11.27901 -11.27633 -11.26902 -11.26890 -11.20827
 Alpha  occ. eigenvalues --  -11.20706 -11.20314 -11.20160 -11.20083 -11.19959
 Alpha  occ. eigenvalues --   -1.60103  -1.39660  -1.19511  -1.08924  -1.07304
 Alpha  occ. eigenvalues --   -1.04900  -1.02574  -0.95775  -0.95036  -0.86303
 Alpha  occ. eigenvalues --   -0.86071  -0.82611  -0.78641  -0.77673  -0.77081
 Alpha  occ. eigenvalues --   -0.72311  -0.71412  -0.70620  -0.65176  -0.64902
 Alpha  occ. eigenvalues --   -0.63870  -0.62249  -0.59961  -0.58449  -0.56646
 Alpha  occ. eigenvalues --   -0.55406  -0.54314  -0.53234  -0.52987  -0.51807
 Alpha  occ. eigenvalues --   -0.51487  -0.49116  -0.49045  -0.48930  -0.46971
 Alpha  occ. eigenvalues --   -0.45648  -0.45140  -0.44652  -0.44387  -0.42765
 Alpha  occ. eigenvalues --   -0.37487  -0.36499
 Alpha virt. eigenvalues --    0.04836   0.11153   0.16330   0.20371   0.23123
 Alpha virt. eigenvalues --    0.24783   0.26846   0.27494   0.28334   0.28944
 Alpha virt. eigenvalues --    0.29171   0.30710   0.31509   0.32333   0.32903

 Mulliken charges:
               1
     1  C   -0.170373
     2  C   -0.218972
     3  C   -0.172676
     4  C    0.157521
     5  C   -0.170447
     6  C   -0.218656
     7  H    0.226268
     8  H    0.224553
     9  H    0.277947
    10  H    0.275884
    11  H    0.224003
    12  N    0.493118
    13  O   -0.458437
    14  O   -0.466496
    15  C   -0.303062
    16  C   -0.298970
    17  C   -0.475936
    18  H    0.142090
    19  H    0.168944
    20  H    0.148546
    21  H    0.154000
    22  H    0.149225
    23  H    0.155322
    24  H    0.154928
    25  C   -0.296680
    26  C   -0.301412
    27  C   -0.475459
    28  H    0.141665
    29  H    0.158622
    30  H    0.145307
    31  H    0.164176
    32  H    0.158278
    33  H    0.150038
    34  H    0.157140
 Sum of Mulliken charges =  -0.00000

 Dipole moment (field-independent basis, Debye):
    X=              4.7875    Y=              2.4794    Z=              0.0490  Tot=              5.3917
 Quadrupole moment (field-independent basis, Debye-Ang):
   XX=            -72.3154   YY=            -95.3436   ZZ=            -95.8428
   XY=              1.3039   XZ=             -0.0597   YZ=             -0.8567

 Normal termination of Gaussian 16 at Wed May  5 19:12:38 2021.
