 Gaussian 16, Revision A.03,
 Gaussian 16:  EM64L-G16RevA.03 25-Dec-2016

 -------------
 #p 6-31g* mp2
 -------------

 ------------------------------------------------------
 Input file generated by CHIRIPA (05-May-2021 14:57:23)
 ------------------------------------------------------
 Symbolic Z-matrix:
 Charge =  0 Multiplicity = 1

                         Standard orientation:
 ---------------------------------------------------------------------
 Center     Atomic      Atomic             Coordinates (Angstroms)
 Number     Number       Type             X           Y           Z
 ---------------------------------------------------------------------
      1          6           0        3.465940    2.531603    0.484005
      2          6           0        2.639979    1.658049    1.198996
      3          6           0        2.608330    0.295645    0.886906
      4          6           0        3.419267   -0.161172   -0.150875
      5          6           0        4.252773    0.684119   -0.881656
      6          6           0        4.268287    2.042712   -0.552213
      7          1           0        3.484259    3.588471    0.733184
      8          1           0        2.015799    2.034929    2.004233
      9          1           0        1.978234   -0.402736    1.424178
     10          1           0        4.863741    0.278919   -1.679121
     11          1           0        4.910718    2.718808   -1.109188
     12          7           0        3.394302   -1.601471   -0.490457
     13          8           0        4.118233   -1.979016   -1.409163
     14          8           0        2.651277   -2.325561    0.168516
     15          6           0       -5.322435    1.120927   -1.056782
     16          6           0       -4.221368    1.844353   -0.586860
     17          6           0       -3.163440    1.191498    0.052765
     18          6           0       -3.239788   -0.191941    0.206250
     19          6           0       -4.323212   -0.940535   -0.251013
     20          6           0       -5.369760   -0.266761   -0.887658
     21          1           0       -6.139838    1.636205   -1.552500
     22          1           0       -4.181914    2.922128   -0.716815
     23          1           0       -2.299034    1.726996    0.426211
     24          1           0       -4.334088   -2.014085   -0.106831
     25          1           0       -6.223606   -0.831156   -1.251595
     26          7           0       -2.125831   -0.894162    0.881814
     27          8           0       -2.217117   -2.113673    1.004675
     28          8           0       -1.182520   -0.211753    1.275667
 ---------------------------------------------------------------------

 SCF Done:  E(RHF) =  -868.338486653     A.U. after   16 cycles
 E2 =    -0.2599095728D+01 EUMP2 =    -0.87093758238061D+03

 The electronic state is 1-A.
 Alpha  occ. eigenvalues --  -20.61020 -20.60958 -20.59844 -20.59787 -15.86036
 Alpha  occ. eigenvalues --  -15.84870 -11.31357 -11.30245 -11.27956 -11.27889
 Alpha  occ. eigenvalues --  -11.27655 -11.26948 -11.26940 -11.26902 -11.26707
 Alpha  occ. eigenvalues --  -11.26672 -11.25977 -11.25823  -1.60041  -1.58900
 Alpha  occ. eigenvalues --   -1.39604  -1.38446  -1.19523  -1.18461  -1.08924
 Alpha  occ. eigenvalues --   -1.07880  -1.04924  -1.03848  -0.95770  -0.94690
 Alpha  occ. eigenvalues --   -0.86324  -0.85261  -0.82612  -0.81506  -0.77661
 Alpha  occ. eigenvalues --   -0.76523  -0.72273  -0.71351  -0.71086  -0.70636
 Alpha  occ. eigenvalues --   -0.70229  -0.69582  -0.65183  -0.64929  -0.64113
 Alpha  occ. eigenvalues --   -0.63866  -0.62276  -0.61159  -0.55425  -0.54424
 Alpha  occ. eigenvalues --   -0.53249  -0.53019  -0.52217  -0.51937  -0.49026
 Alpha  occ. eigenvalues --   -0.48978  -0.47870  -0.47824  -0.45016  -0.43847
 Alpha  occ. eigenvalues --   -0.37497  -0.36524  -0.36512  -0.35450
 Alpha virt. eigenvalues --    0.04874   0.05989   0.11132   0.12184   0.16378
 Alpha virt. eigenvalues --    0.17432   0.21235   0.22270   0.27147   0.27889
 Alpha virt. eigenvalues --    0.28399   0.29227   0.30830   0.31767   0.32402

 Mulliken charges:
               1
     1  C   -0.172359
     2  C   -0.221908
     3  C   -0.168361
     4  C    0.154927
     5  C   -0.172050
     6  C   -0.220144
     7  H    0.220647
     8  H    0.224174
     9  H    0.293986
    10  H    0.272537
    11  H    0.218991
    12  N    0.487138
    13  O   -0.466499
    14  O   -0.452957
    15  C   -0.170538
    16  C   -0.218323
    17  C   -0.170382
    18  C    0.159061
    19  C   -0.170024
    20  C   -0.218415
    21  H    0.226062
    22  H    0.222517
    23  H    0.271678
    24  H    0.277687
    25  H    0.224664
    26  N    0.490762
    27  O   -0.451815
    28  O   -0.471057
 Sum of Mulliken charges =  -0.00000

 Dipole moment (field-independent basis, Debye):
    X=             -4.2341    Y=              7.2750    Z=             -1.0621  Tot=              8.4842
 Quadrupole moment (field-independent basis, Debye-Ang):
   XX=            -77.1714   YY=           -104.4347   ZZ=           -104.7627
   XY=             12.9208   XZ=              9.2857   YZ=             -0.2244

 Normal termination of Gaussian 16 at Wed May  5 19:22:34 2021.
