 Gaussian 16, Revision A.03,
 Gaussian 16:  EM64L-G16RevA.03 25-Dec-2016

 -------------
 #p 6-31g* mp2
 -------------

 ------------------------------------------------------
 Input file generated by CHIRIPA (05-May-2021 14:57:27)
 ------------------------------------------------------
 Symbolic Z-matrix:
 Charge =  0 Multiplicity = 1

                         Standard orientation:
 ---------------------------------------------------------------------
 Center     Atomic      Atomic             Coordinates (Angstroms)
 Number     Number       Type             X           Y           Z
 ---------------------------------------------------------------------
      1          6           0        1.429575    1.396332   -0.717462
      2          6           0        1.253324    0.130549   -0.148912
      3          6           0        2.358070   -0.635649    0.234525
      4          6           0        3.630527   -0.102783    0.034037
      5          6           0        3.838700    1.154990   -0.529844
      6          6           0        2.719426    1.903618   -0.905781
      7          1           0        0.565739    1.984709   -1.012413
      8          1           0        0.252778   -0.265955   -0.001471
      9          1           0        2.250361   -1.618540    0.676954
     10          1           0        4.848426    1.523497   -0.664286
     11          1           0        2.859317    2.886332   -1.347086
     12          7           0        4.807762   -0.904623    0.435995
     13          8           0        5.918387   -0.412586    0.248782
     14          8           0        4.597563   -2.009959    0.930652
     15          6           0       -2.934864    2.323533    0.792556
     16          6           0       -2.500991    1.886218   -0.463243
     17          6           0       -2.773264    0.584644   -0.894892
     18          6           0       -3.485001   -0.256840   -0.041297
     19          6           0       -3.930715    0.149432    1.215514
     20          6           0       -3.647085    1.455276    1.626456
     21          1           0       -2.718944    3.336286    1.119828
     22          1           0       -1.947673    2.558337   -1.112966
     23          1           0       -2.449231    0.220115   -1.862124
     24          1           0       -4.480212   -0.543554    1.841008
     25          1           0       -3.985278    1.792179    2.602247
     26          7           0       -3.779256   -1.637018   -0.487304
     27          8           0       -4.408052   -2.358962    0.283442
     28          8           0       -3.375526   -1.970723   -1.599185
 ---------------------------------------------------------------------

 SCF Done:  E(RHF) =  -868.336996747     A.U. after   16 cycles
 E2 =    -0.2601094804D+01 EUMP2 =    -0.87093809155108D+03

 The electronic state is 1-A.
 Alpha  occ. eigenvalues --  -20.61635 -20.61623 -20.60854 -20.60844 -15.86697
 Alpha  occ. eigenvalues --  -15.85905 -11.32276 -11.31341 -11.28930 -11.28804
 Alpha  occ. eigenvalues --  -11.28610 -11.28011 -11.27923 -11.27864 -11.27806
 Alpha  occ. eigenvalues --  -11.27740 -11.27008 -11.26892  -1.60709  -1.59925
 Alpha  occ. eigenvalues --   -1.40254  -1.39476  -1.20474  -1.19521  -1.09810
 Alpha  occ. eigenvalues --   -1.08926  -1.05906  -1.04921  -0.96605  -0.95749
 Alpha  occ. eigenvalues --   -0.87279  -0.86328  -0.83440  -0.82566  -0.78463
 Alpha  occ. eigenvalues --   -0.77583  -0.72898  -0.72124  -0.72048  -0.71519
 Alpha  occ. eigenvalues --   -0.71248  -0.70717  -0.66105  -0.65892  -0.65178
 Alpha  occ. eigenvalues --   -0.64939  -0.63227  -0.62262  -0.56351  -0.55541
 Alpha  occ. eigenvalues --   -0.54223  -0.53936  -0.53263  -0.52986  -0.49678
 Alpha  occ. eigenvalues --   -0.49647  -0.48888  -0.48873  -0.45612  -0.44865
 Alpha  occ. eigenvalues --   -0.38439  -0.37558  -0.37495  -0.36516
 Alpha virt. eigenvalues --    0.04064   0.04931   0.09999   0.11143   0.15402
 Alpha virt. eigenvalues --    0.16399   0.19013   0.21851   0.24956   0.26811
 Alpha virt. eigenvalues --    0.27461   0.28770   0.29638   0.31282   0.32299

 Mulliken charges:
               1
     1  C   -0.172241
     2  C   -0.221091
     3  C   -0.170691
     4  C    0.159101
     5  C   -0.170979
     6  C   -0.218985
     7  H    0.215561
     8  H    0.227991
     9  H    0.278380
    10  H    0.275833
    11  H    0.221671
    12  N    0.487888
    13  O   -0.460480
    14  O   -0.458632
    15  C   -0.169609
    16  C   -0.223772
    17  C   -0.178664
    18  C    0.157334
    19  C   -0.169089
    20  C   -0.217908
    21  H    0.229184
    22  H    0.219871
    23  H    0.278328
    24  H    0.279901
    25  H    0.228400
    26  N    0.487627
    27  O   -0.456256
    28  O   -0.458673
 Sum of Mulliken charges =  -0.00000

 Dipole moment (field-independent basis, Debye):
    X=             -3.3875    Y=              7.5495    Z=              0.3416  Tot=              8.2817
 Quadrupole moment (field-independent basis, Debye-Ang):
   XX=           -138.9452   YY=           -105.9414   ZZ=           -101.6004
   XY=             -3.7387   XZ=            -14.7076   YZ=             -2.3030

 Normal termination of Gaussian 16 at Thu May  6 19:49:19 2021.
