 Gaussian 16, Revision A.03,
 Gaussian 16:  EM64L-G16RevA.03 25-Dec-2016

 -------------
 #p 6-31g* mp2
 -------------

 ------------------------------------------------------
 Input file generated by CHIRIPA (05-May-2021 14:53:13)
 ------------------------------------------------------
 Symbolic Z-matrix:
 Charge =  0 Multiplicity = 1

                         Standard orientation:
 ---------------------------------------------------------------------
 Center     Atomic      Atomic             Coordinates (Angstroms)
 Number     Number       Type             X           Y           Z
 ---------------------------------------------------------------------
      1          6           0        3.371642   -0.675960   -0.177028
      2          6           0        1.916894   -0.210600   -0.248660
      3          6           0        0.930949   -1.371298   -0.384623
      4          1           0        3.608972   -1.256804   -1.078826
      5          1           0        3.489049   -1.359729    0.675069
      6          1           0        1.802573    0.473173   -1.099542
      7          1           0        1.683056    0.369367    0.653324
      8          1           0        1.015792   -2.050891    0.469518
      9          1           0        1.135988   -1.946495   -1.293308
     10          1           0       -0.103067   -1.016018   -0.434086
     11          6           0        4.369227    0.472970   -0.040969
     12          6           0        5.823976    0.007611    0.030663
     13          6           0        6.809921    1.168309    0.166626
     14          1           0        4.251821    1.156740   -0.893066
     15          1           0        4.131898    1.053815    0.860829
     16          1           0        6.057814   -0.572356   -0.871321
     17          1           0        5.938297   -0.676162    0.881545
     18          1           0        6.604882    1.743506    1.075311
     19          1           0        6.725078    1.847902   -0.687515
     20          1           0        7.843937    0.813028    0.216089
     21          6           0       -2.488773   -2.376871    0.301838
     22          6           0       -2.399816   -1.539869    1.418992
     23          6           0       -2.693901   -0.177403    1.310598
     24          6           0       -3.075499    0.316745    0.064207
     25          6           0       -3.173382   -0.491620   -1.067276
     26          6           0       -2.874592   -1.851003   -0.935549
     27          1           0       -2.258492   -3.434070    0.395104
     28          1           0       -2.100443   -1.945511    2.381217
     29          1           0       -2.633199    0.493130    2.159196
     30          1           0       -3.474543   -0.058228   -2.013262
     31          1           0       -2.944532   -2.498666   -1.804851
     32          7           0       -3.389325    1.757495   -0.062896
     33          8           0       -3.723207    2.168332   -1.172117
     34          8           0       -3.295478    2.448635    0.949109
 ---------------------------------------------------------------------

 SCF Done:  E(RHF) =  -669.534093903     A.U. after   15 cycles
 E2 =    -0.2093364052D+01 EUMP2 =    -0.67162745795528D+03

 The electronic state is 1-A.
 Alpha  occ. eigenvalues --  -20.60818 -20.60813 -15.85872 -11.31274 -11.27830
 Alpha  occ. eigenvalues --  -11.27820 -11.27505 -11.26802 -11.26788 -11.21668
 Alpha  occ. eigenvalues --  -11.21662 -11.21490 -11.21408 -11.21123 -11.21098
 Alpha  occ. eigenvalues --   -1.59893  -1.39445  -1.19445  -1.08820  -1.08501
 Alpha  occ. eigenvalues --   -1.04829  -1.03603  -0.96064  -0.95643  -0.87086
 Alpha  occ. eigenvalues --   -0.86217  -0.82471  -0.79676  -0.78318  -0.77526
 Alpha  occ. eigenvalues --   -0.72086  -0.71218  -0.70514  -0.65141  -0.65067
 Alpha  occ. eigenvalues --   -0.64815  -0.62169  -0.61012  -0.59523  -0.57722
 Alpha  occ. eigenvalues --   -0.55372  -0.55303  -0.53842  -0.52905  -0.52537
 Alpha  occ. eigenvalues --   -0.51907  -0.50015  -0.48849  -0.48842  -0.47966
 Alpha  occ. eigenvalues --   -0.46713  -0.45860  -0.45789  -0.44844  -0.43825
 Alpha  occ. eigenvalues --   -0.37321  -0.36446
 Alpha virt. eigenvalues --    0.04993   0.11197   0.16484   0.21301   0.22794
 Alpha virt. eigenvalues --    0.24266   0.26521   0.27245   0.27380   0.27820
 Alpha virt. eigenvalues --    0.28451   0.30921   0.31266   0.31808   0.32062

 Mulliken charges:
               1
     1  C   -0.298137
     2  C   -0.299486
     3  C   -0.480603
     4  H    0.148733
     5  H    0.147248
     6  H    0.153973
     7  H    0.151985
     8  H    0.146432
     9  H    0.150112
    10  H    0.173878
    11  C   -0.298428
    12  C   -0.299544
    13  C   -0.475764
    14  H    0.150876
    15  H    0.150282
    16  H    0.151505
    17  H    0.150963
    18  H    0.155618
    19  H    0.155946
    20  H    0.160037
    21  C   -0.168967
    22  C   -0.216047
    23  C   -0.172262
    24  C    0.159064
    25  C   -0.172489
    26  C   -0.218802
    27  H    0.226291
    28  H    0.223633
    29  H    0.275891
    30  H    0.276068
    31  H    0.224091
    32  N    0.488203
    33  O   -0.460182
    34  O   -0.460117
 Sum of Mulliken charges =  -0.00000

 Dipole moment (field-independent basis, Debye):
    X=              1.0021    Y=             -5.0526    Z=              0.4464  Tot=              5.1703
 Quadrupole moment (field-independent basis, Debye-Ang):
   XX=           -102.9759   YY=            -99.1153   ZZ=            -88.9589
   XY=             15.9337   XZ=             -0.3589   YZ=              0.3786

 Normal termination of Gaussian 16 at Wed May  5 15:33:39 2021.
