 Gaussian 16, Revision A.03,
 Gaussian 16:  EM64L-G16RevA.03 25-Dec-2016

 -------------
 #p 6-31g* mp2
 -------------

 ------------------------------------------------------
 Input file generated by CHIRIPA (05-May-2021 14:51:11)
 ------------------------------------------------------
 Symbolic Z-matrix:
 Charge =  0 Multiplicity = 1

                         Standard orientation:
 ---------------------------------------------------------------------
 Center     Atomic      Atomic             Coordinates (Angstroms)
 Number     Number       Type             X           Y           Z
 ---------------------------------------------------------------------
      1          6           0        2.536958    1.365366    0.437391
      2          6           0        1.055024    1.712437    0.583669
      3          6           0        0.819428    2.939328    1.465161
      4          1           0        2.966190    1.190830    1.433504
      5          1           0        3.068709    2.229146    0.014874
      6          1           0        0.525987    0.847775    1.004496
      7          1           0        0.629225    1.885979   -0.412922
      8          1           0        1.321600    3.817146    1.045806
      9          1           0        1.217775    2.773043    2.471277
     10          1           0       -0.246676    3.169555    1.556143
     11          6           0        2.788602    0.141103   -0.441007
     12          6           0        4.270537   -0.205967   -0.587285
     13          6           0        4.506133   -1.432858   -1.468776
     14          1           0        2.256851   -0.722677   -0.018490
     15          1           0        2.359370    0.315639   -1.437120
     16          1           0        4.696336   -0.379510    0.409306
     17          1           0        4.799574    0.658695   -1.008112
     18          1           0        4.107786   -1.266573   -2.474893
     19          1           0        4.003961   -2.310677   -1.049421
     20          1           0        5.572237   -1.663085   -1.559759
     21          6           0       -3.320193   -0.364500   -0.009388
     22          6           0       -3.487563    0.508060   -1.253820
     23          6           0       -4.807625    1.279530   -1.261702
     24          1           0       -4.159601   -1.070672    0.051100
     25          1           0       -3.380453    0.270065    0.885650
     26          1           0       -3.425622   -0.127766   -2.146292
     27          1           0       -2.647558    1.212110   -1.311457
     28          1           0       -4.874669    1.937230   -0.389041
     29          1           0       -5.657154    0.589742   -1.228620
     30          1           0       -4.906554    1.896743   -2.160101
     31          6           0       -2.005368   -1.141970    0.013004
     32          6           0       -1.837998   -2.014530    1.257436
     33          6           0       -0.517935   -2.785999    1.265318
     34          1           0       -1.945108   -1.776534   -0.882034
     35          1           0       -1.165959   -0.435797   -0.047484
     36          1           0       -2.678003   -2.718580    1.315072
     37          1           0       -1.899939   -1.378704    2.149908
     38          1           0        0.331594   -2.096211    1.232236
     39          1           0       -0.450892   -3.443700    0.392657
     40          1           0       -0.419006   -3.403212    2.163716
 ---------------------------------------------------------------------

 SCF Done:  E(RHF) =  -470.733001530     A.U. after   11 cycles
 E2 =    -0.1584075869D+01 EUMP2 =    -0.47231707739921D+03

 The electronic state is 1-A.
 Alpha  occ. eigenvalues --  -11.21698 -11.21621 -11.21594 -11.21574 -11.21458
 Alpha  occ. eigenvalues --  -11.21391 -11.21345 -11.21252 -11.21157 -11.21105
 Alpha  occ. eigenvalues --  -11.21068 -11.21053  -1.08499  -1.08385  -1.03588
 Alpha  occ. eigenvalues --   -1.03516  -0.96031  -0.95960  -0.87052  -0.86975
 Alpha  occ. eigenvalues --   -0.79680  -0.79573  -0.78409  -0.78095  -0.65228
 Alpha  occ. eigenvalues --   -0.64943  -0.61045  -0.60858  -0.59406  -0.59325
 Alpha  occ. eigenvalues --   -0.57677  -0.57544  -0.55369  -0.55202  -0.52728
 Alpha  occ. eigenvalues --   -0.52665  -0.52495  -0.52351  -0.50038  -0.49851
 Alpha  occ. eigenvalues --   -0.48048  -0.47903  -0.46814  -0.46601  -0.46178
 Alpha  occ. eigenvalues --   -0.45767  -0.45702  -0.45101  -0.43832  -0.43755
 Alpha virt. eigenvalues --    0.19995   0.22542   0.23646   0.24518   0.25408
 Alpha virt. eigenvalues --    0.26179   0.26971   0.27718   0.28451   0.29548
 Alpha virt. eigenvalues --    0.30736   0.31593   0.31808   0.32020   0.32265

 Mulliken charges:
               1
     1  C   -0.297510
     2  C   -0.306927
     3  C   -0.475273
     4  H    0.149667
     5  H    0.149915
     6  H    0.157487
     7  H    0.152565
     8  H    0.155736
     9  H    0.155478
    10  H    0.159982
    11  C   -0.304399
    12  C   -0.299377
    13  C   -0.475884
    14  H    0.154713
    15  H    0.150098
    16  H    0.151978
    17  H    0.152010
    18  H    0.155228
    19  H    0.155820
    20  H    0.160255
    21  C   -0.297605
    22  C   -0.300202
    23  C   -0.475643
    24  H    0.149374
    25  H    0.148960
    26  H    0.151859
    27  H    0.152340
    28  H    0.155030
    29  H    0.155175
    30  H    0.160069
    31  C   -0.307031
    32  C   -0.299391
    33  C   -0.481205
    34  H    0.149065
    35  H    0.159602
    36  H    0.152117
    37  H    0.151299
    38  H    0.158511
    39  H    0.155786
    40  H    0.160326
 Sum of Mulliken charges =  -0.00000

 Dipole moment (field-independent basis, Debye):
    X=              0.0424    Y=              0.0172    Z=             -0.0076  Tot=              0.0464
 Quadrupole moment (field-independent basis, Debye-Ang):
   XX=            -85.5762   YY=            -84.9551   ZZ=            -84.2733
   XY=              1.2466   XZ=              0.2388   YZ=             -0.5282

 Normal termination of Gaussian 16 at Thu May  6 00:39:28 2021.
