 Gaussian 16, Revision A.03,
 Gaussian 16:  EM64L-G16RevA.03 25-Dec-2016

 -------------
 #p 6-31g* mp2
 -------------

 ------------------------------------------------------
 Input file generated by CHIRIPA (05-May-2021 14:57:24)
 ------------------------------------------------------
 Symbolic Z-matrix:
 Charge =  0 Multiplicity = 1

                         Standard orientation:
 ---------------------------------------------------------------------
 Center     Atomic      Atomic             Coordinates (Angstroms)
 Number     Number       Type             X           Y           Z
 ---------------------------------------------------------------------
      1          6           0       -5.795585   -2.015758   -0.037943
      2          6           0       -6.378802   -0.744459   -0.024596
      3          6           0       -5.580453    0.403136   -0.039201
      4          6           0       -4.196075    0.241894   -0.067258
      5          6           0       -3.585149   -1.011049   -0.081140
      6          6           0       -4.403076   -2.144768   -0.066123
      7          1           0       -6.423366   -2.901848   -0.026438
      8          1           0       -7.459964   -0.641243   -0.002713
      9          1           0       -6.005619    1.399407   -0.029382
     10          1           0       -2.504456   -1.082066   -0.102972
     11          1           0       -3.947381   -3.130811   -0.076543
     12          7           0       -3.340536    1.449457   -0.082938
     13          8           0       -2.123376    1.280493   -0.107640
     14          8           0       -3.903324    2.542043   -0.070228
     15          6           0        1.970641    0.737157    0.461479
     16          6           0        2.274305   -0.627570    0.504258
     17          6           0        3.582015   -1.071151    0.285909
     18          6           0        4.565856   -0.118284    0.026312
     19          6           0        4.294764    1.248238   -0.022857
     20          6           0        2.980061    1.669063    0.198522
     21          1           0        0.952064    1.072903    0.632275
     22          1           0        1.492399   -1.353555    0.708253
     23          1           0        3.844857   -2.121668    0.313249
     24          1           0        5.095520    1.948168   -0.228542
     25          1           0        2.747142    2.729557    0.164693
     26          7           0        5.953972   -0.575838   -0.206448
     27          8           0        6.802744    0.283705   -0.433183
     28          8           0        6.166922   -1.785349   -0.157744
 ---------------------------------------------------------------------

 SCF Done:  E(RHF) =  -868.339718629     A.U. after   16 cycles
 E2 =    -0.2598220156D+01 EUMP2 =    -0.87093793878528D+03

 The electronic state is 1-A.
 Alpha  occ. eigenvalues --  -20.61815 -20.61752 -20.60315 -20.60306 -15.86831
 Alpha  occ. eigenvalues --  -15.85365 -11.31974 -11.30579 -11.28558 -11.28482
 Alpha  occ. eigenvalues --  -11.28190 -11.27486 -11.27446 -11.27198 -11.27138
 Alpha  occ. eigenvalues --  -11.26664 -11.26131 -11.26015  -1.60845  -1.59394
 Alpha  occ. eigenvalues --   -1.40410  -1.38952  -1.20119  -1.18734  -1.09548
 Alpha  occ. eigenvalues --   -1.08114  -1.05493  -1.04135  -0.96425  -0.94976
 Alpha  occ. eigenvalues --   -0.86899  -0.85517  -0.83273  -0.81833  -0.78349
 Alpha  occ. eigenvalues --   -0.76941  -0.73071  -0.72148  -0.71584  -0.71224
 Alpha  occ. eigenvalues --   -0.70717  -0.69711  -0.65777  -0.65490  -0.64371
 Alpha  occ. eigenvalues --   -0.64131  -0.62851  -0.61503  -0.55985  -0.54457
 Alpha  occ. eigenvalues --   -0.53826  -0.53583  -0.52454  -0.52219  -0.49829
 Alpha  occ. eigenvalues --   -0.49774  -0.48349  -0.48328  -0.45861  -0.44392
 Alpha  occ. eigenvalues --   -0.38073  -0.37085  -0.36641  -0.35764
 Alpha virt. eigenvalues --    0.04178   0.05620   0.10575   0.11907   0.15718
 Alpha virt. eigenvalues --    0.17166   0.20482   0.22113   0.26359   0.27160
 Alpha virt. eigenvalues --    0.28138   0.29120   0.30612   0.31638   0.31935

 Mulliken charges:
               1
     1  C   -0.169866
     2  C   -0.218245
     3  C   -0.170200
     4  C    0.158372
     5  C   -0.169705
     6  C   -0.217973
     7  H    0.228389
     8  H    0.226097
     9  H    0.277100
    10  H    0.269484
    11  H    0.224782
    12  N    0.493479
    13  O   -0.474677
    14  O   -0.455215
    15  C   -0.176287
    16  C   -0.220308
    17  C   -0.171579
    18  C    0.157048
    19  C   -0.171242
    20  C   -0.220557
    21  H    0.248757
    22  H    0.216539
    23  H    0.271960
    24  H    0.273983
    25  H    0.226340
    26  N    0.488322
    27  O   -0.461634
    28  O   -0.463164
 Sum of Mulliken charges =  -0.00000

 Dipole moment (field-independent basis, Debye):
    X=             -8.4456    Y=             -2.5234    Z=              0.8791  Tot=              8.8583
 Quadrupole moment (field-independent basis, Debye-Ang):
   XX=           -120.7443   YY=           -101.2419   ZZ=           -106.5033
   XY=             24.7108   XZ=              3.3289   YZ=             -0.3323

 Normal termination of Gaussian 16 at Thu May  6 14:38:37 2021.
