 Gaussian 16, Revision A.03,
 Gaussian 16:  EM64L-G16RevA.03 25-Dec-2016

 -------------
 #p 6-31g* mp2
 -------------

 ------------------------------------------------------
 Input file generated by CHIRIPA (05-May-2021 14:57:23)
 ------------------------------------------------------
 Symbolic Z-matrix:
 Charge =  0 Multiplicity = 1

                         Standard orientation:
 ---------------------------------------------------------------------
 Center     Atomic      Atomic             Coordinates (Angstroms)
 Number     Number       Type             X           Y           Z
 ---------------------------------------------------------------------
      1          6           0        6.113217    1.003676   -0.425351
      2          6           0        4.935930    1.571580   -0.923347
      3          6           0        3.696287    0.981058   -0.660445
      4          6           0        3.670617   -0.182139    0.107411
      5          6           0        4.826082   -0.771929    0.617646
      6          6           0        6.054639   -0.164207    0.342203
      7          1           0        7.071896    1.469088   -0.634451
      8          1           0        4.978399    2.478536   -1.519729
      9          1           0        2.769432    1.399558   -1.033562
     10          1           0        4.751885   -1.676411    1.209106
     11          1           0        6.967318   -0.607466    0.730255
     12          7           0        2.364130   -0.816403    0.392373
     13          8           0        2.368415   -1.840858    1.071423
     14          8           0        1.360560   -0.277073   -0.068722
     15          6           0       -4.235132    2.508994    0.516043
     16          6           0       -5.330240    1.641450    0.448009
     17          6           0       -5.148570    0.292341    0.129497
     18          6           0       -3.852183   -0.157453   -0.116179
     19          6           0       -2.740974    0.682130   -0.056140
     20          6           0       -2.946267    2.027414    0.264196
     21          1           0       -4.385433    3.555528    0.764179
     22          1           0       -6.332324    2.012675    0.643112
     23          1           0       -5.978606   -0.401140    0.069994
     24          1           0       -1.753993    0.282822   -0.255741
     25          1           0       -2.093930    2.698869    0.316315
     26          7           0       -3.647353   -1.583669   -0.454339
     27          8           0       -2.495149   -1.955241   -0.666461
     28          8           0       -4.642890   -2.302959   -0.500862
 ---------------------------------------------------------------------

 SCF Done:  E(RHF) =  -868.337942360     A.U. after   16 cycles
 E2 =    -0.2599118827D+01 EUMP2 =    -0.87093706118656D+03

 The electronic state is 1-A.
 Alpha  occ. eigenvalues --  -20.60916 -20.60878 -20.59717 -20.59649 -15.85957
 Alpha  occ. eigenvalues --  -15.84740 -11.31325 -11.30201 -11.27921 -11.27866
 Alpha  occ. eigenvalues --  -11.27630 -11.26922 -11.26887 -11.26885 -11.26673
 Alpha  occ. eigenvalues --  -11.26648 -11.25932 -11.25841  -1.59950  -1.58769
 Alpha  occ. eigenvalues --   -1.39512  -1.38311  -1.19493  -1.18420  -1.08883
 Alpha  occ. eigenvalues --   -1.07819  -1.04900  -1.03830  -0.95718  -0.94617
 Alpha  occ. eigenvalues --   -0.86298  -0.85231  -0.82559  -0.81438  -0.77606
 Alpha  occ. eigenvalues --   -0.76442  -0.72177  -0.71271  -0.70953  -0.70604
 Alpha  occ. eigenvalues --   -0.70101  -0.69533  -0.65151  -0.64903  -0.64073
 Alpha  occ. eigenvalues --   -0.63849  -0.62252  -0.61140  -0.55396  -0.54382
 Alpha  occ. eigenvalues --   -0.53224  -0.52995  -0.52181  -0.51919  -0.48921
 Alpha  occ. eigenvalues --   -0.48890  -0.47749  -0.47686  -0.44916  -0.43695
 Alpha  occ. eigenvalues --   -0.37470  -0.36504  -0.36458  -0.35445
 Alpha virt. eigenvalues --    0.04941   0.06072   0.11151   0.12200   0.16432
 Alpha virt. eigenvalues --    0.17510   0.21251   0.22283   0.27178   0.27889
 Alpha virt. eigenvalues --    0.28337   0.29246   0.30844   0.31767   0.32363

 Mulliken charges:
               1
     1  C   -0.170758
     2  C   -0.218332
     3  C   -0.170763
     4  C    0.158613
     5  C   -0.170304
     6  C   -0.218421
     7  H    0.225956
     8  H    0.222865
     9  H    0.271992
    10  H    0.277129
    11  H    0.224315
    12  N    0.492897
    13  O   -0.453365
    14  O   -0.469326
    15  C   -0.171295
    16  C   -0.219814
    17  C   -0.171306
    18  C    0.156023
    19  C   -0.176996
    20  C   -0.221308
    21  H    0.221219
    22  H    0.219612
    23  H    0.273089
    24  H    0.298289
    25  H    0.220790
    26  N    0.486513
    27  O   -0.450624
    28  O   -0.466691
 Sum of Mulliken charges =  -0.00000

 Dipole moment (field-independent basis, Debye):
    X=              4.3168    Y=              7.0597    Z=              0.2006  Tot=              8.2773
 Quadrupole moment (field-independent basis, Debye-Ang):
   XX=            -61.3216   YY=           -105.8004   ZZ=           -105.4495
   XY=            -12.8307   XZ=             -6.6534   YZ=             -2.7506

 Normal termination of Gaussian 16 at Thu May  6 00:15:44 2021.
