 Gaussian 16, Revision A.03,
 Gaussian 16:  EM64L-G16RevA.03 25-Dec-2016

 -------------
 #p 6-31g* mp2
 -------------

 ------------------------------------------------------
 Input file generated by CHIRIPA (05-May-2021 14:51:10)
 ------------------------------------------------------
 Symbolic Z-matrix:
 Charge =  0 Multiplicity = 1

                         Standard orientation:
 ---------------------------------------------------------------------
 Center     Atomic      Atomic             Coordinates (Angstroms)
 Number     Number       Type             X           Y           Z
 ---------------------------------------------------------------------
      1          6           0        3.110862   -0.232850    0.821800
      2          6           0        1.645466    0.018482    0.464821
      3          6           0        0.702497   -0.202689    1.647904
      4          1           0        3.220179   -1.261279    1.192380
      5          1           0        3.398185    0.429940    1.649778
      6          1           0        1.361385   -0.643609   -0.363158
      7          1           0        1.539658    1.046371    0.094867
      8          1           0        0.957899    0.467952    2.474712
      9          1           0        0.778612   -1.231630    2.014085
     10          1           0       -0.339919   -0.017545    1.370507
     11          6           0        4.065830   -0.015824   -0.350661
     12          6           0        5.531225   -0.267157    0.006318
     13          6           0        6.474194   -0.045986   -1.176765
     14          1           0        3.778506   -0.678615   -1.178639
     15          1           0        3.956512    1.012604   -0.721241
     16          1           0        5.637033   -1.295045    0.376272
     17          1           0        5.815307    0.394935    0.834297
     18          1           0        6.398079    0.982955   -1.542946
     19          1           0        6.218792   -0.716627   -2.003573
     20          1           0        7.516610   -0.231130   -0.899368
     21          6           0       -3.730101   -0.516961   -0.625536
     22          6           0       -3.887113   -1.747804    0.267973
     23          6           0       -4.170331   -3.022957   -0.526740
     24          1           0       -4.644185   -0.384562   -1.220403
     25          1           0       -2.914613   -0.693201   -1.340598
     26          1           0       -4.701150   -1.568753    0.982045
     27          1           0       -2.972624   -1.877178    0.860922
     28          1           0       -3.355108   -3.228986   -1.227857
     29          1           0       -5.093456   -2.918808   -1.106045
     30          1           0       -4.278997   -3.890502    0.131604
     31          6           0       -3.446590    0.765636    0.154396
     32          6           0       -3.289578    1.996480   -0.739112
     33          6           0       -3.006361    3.271632    0.055601
     34          1           0       -4.262078    0.941875    0.869459
     35          1           0       -2.532507    0.633236    0.749263
     36          1           0       -4.204067    2.125854   -1.332061
     37          1           0       -2.475542    1.817427   -1.453185
     38          1           0       -2.083235    3.167482    0.634906
     39          1           0       -3.821583    3.477661    0.756718
     40          1           0       -2.897694    4.139176   -0.602743
 ---------------------------------------------------------------------

 SCF Done:  E(RHF) =  -470.733380599     A.U. after   11 cycles
 E2 =    -0.1582751346D+01 EUMP2 =    -0.47231613194476D+03

 The electronic state is 1-A.
 Alpha  occ. eigenvalues --  -11.21671 -11.21628 -11.21599 -11.21589 -11.21447
 Alpha  occ. eigenvalues --  -11.21402 -11.21386 -11.21343 -11.21142 -11.21092
 Alpha  occ. eigenvalues --  -11.21068 -11.21065  -1.08476  -1.08429  -1.03578
 Alpha  occ. eigenvalues --   -1.03523  -0.96035  -0.95970  -0.87052  -0.86986
 Alpha  occ. eigenvalues --   -0.79644  -0.79583  -0.78286  -0.78244  -0.65103
 Alpha  occ. eigenvalues --   -0.65085  -0.60983  -0.60913  -0.59415  -0.59337
 Alpha  occ. eigenvalues --   -0.57682  -0.57551  -0.55310  -0.55268  -0.52771
 Alpha  occ. eigenvalues --   -0.52659  -0.52479  -0.52357  -0.49967  -0.49912
 Alpha  occ. eigenvalues --   -0.47986  -0.47892  -0.46676  -0.46611  -0.45838
 Alpha  occ. eigenvalues --   -0.45776  -0.45752  -0.45697  -0.43804  -0.43756
 Alpha virt. eigenvalues --    0.20447   0.23070   0.24126   0.24632   0.25919
 Alpha virt. eigenvalues --    0.26606   0.27052   0.27582   0.27899   0.28989
 Alpha virt. eigenvalues --    0.31042   0.31444   0.31765   0.31849   0.32044

 Mulliken charges:
               1
     1  C   -0.298551
     2  C   -0.298904
     3  C   -0.485016
     4  H    0.149828
     5  H    0.149750
     6  H    0.151649
     7  H    0.151920
     8  H    0.155842
     9  H    0.155706
    10  H    0.167386
    11  C   -0.298293
    12  C   -0.299695
    13  C   -0.475738
    14  H    0.149524
    15  H    0.149748
    16  H    0.152004
    17  H    0.152021
    18  H    0.155237
    19  H    0.155208
    20  H    0.160361
    21  C   -0.297798
    22  C   -0.300746
    23  C   -0.475665
    24  H    0.149754
    25  H    0.149438
    26  H    0.151994
    27  H    0.152918
    28  H    0.155060
    29  H    0.155162
    30  H    0.160267
    31  C   -0.307486
    32  C   -0.299221
    33  C   -0.475914
    34  H    0.149944
    35  H    0.157512
    36  H    0.152020
    37  H    0.152073
    38  H    0.155249
    39  H    0.155256
    40  H    0.160194
 Sum of Mulliken charges =  -0.00000

 Dipole moment (field-independent basis, Debye):
    X=              0.0125    Y=              0.0006    Z=              0.0056  Tot=              0.0137
 Quadrupole moment (field-independent basis, Debye-Ang):
   XX=            -84.3993   YY=            -84.8047   ZZ=            -85.4809
   XY=             -0.3900   XZ=              0.4725   YZ=             -0.0663

 Normal termination of Gaussian 16 at Thu May  6 03:49:25 2021.
