 Gaussian 16, Revision A.03,
 Gaussian 16:  EM64L-G16RevA.03 25-Dec-2016

 -------------
 #p 6-31g* mp2
 -------------

 ------------------------------------------------------
 Input file generated by CHIRIPA (05-May-2021 14:51:08)
 ------------------------------------------------------
 Symbolic Z-matrix:
 Charge =  0 Multiplicity = 1

                         Standard orientation:
 ---------------------------------------------------------------------
 Center     Atomic      Atomic             Coordinates (Angstroms)
 Number     Number       Type             X           Y           Z
 ---------------------------------------------------------------------
      1          6           0        4.665224   -0.728673    0.030639
      2          6           0        6.185957   -0.886870    0.012504
      3          6           0        6.629750   -2.346359    0.116114
      4          1           0        4.268104   -1.169402    0.955300
      5          1           0        4.233783   -1.303940   -0.800218
      6          1           0        6.614506   -0.310356    0.842319
      7          1           0        6.579521   -0.445543   -0.912133
      8          1           0        6.229634   -2.930865   -0.718668
      9          1           0        6.264818   -2.794910    1.045752
     10          1           0        7.720411   -2.436350    0.101300
     11          6           0        4.206064    0.724711   -0.072194
     12          6           0        2.685330    0.882908   -0.054060
     13          6           0        2.241537    2.342397   -0.157669
     14          1           0        4.637504    1.299978    0.758662
     15          1           0        4.603184    1.165439   -0.996856
     16          1           0        2.291766    0.441581    0.870577
     17          1           0        2.256781    0.306394   -0.883874
     18          1           0        2.606470    2.790947   -1.087308
     19          1           0        2.641653    2.926903    0.677112
     20          1           0        1.150876    2.432388   -0.142855
     21          6           0       -4.665168   -0.711338   -0.127298
     22          6           0       -6.148600   -0.943333    0.161825
     23          6           0       -6.592720   -2.375061   -0.139351
     24          1           0       -4.462569   -0.945548   -1.181360
     25          1           0       -4.068068   -1.414665    0.469525
     26          1           0       -6.742667   -0.238845   -0.434327
     27          1           0       -6.347729   -0.708361    1.215272
     28          1           0       -6.025401   -3.089713    0.465647
     29          1           0       -6.422583   -2.617530   -1.193325
     30          1           0       -7.656443   -2.518798    0.074409
     31          6           0       -4.206119    0.715300    0.168854
     32          6           0       -2.722687    0.947296   -0.120270
     33          6           0       -2.278567    2.379023    0.180906
     34          1           0       -4.803219    1.418627   -0.427970
     35          1           0       -4.408718    0.949510    1.222915
     36          1           0       -2.523558    0.712323   -1.173716
     37          1           0       -2.128621    0.242808    0.475883
     38          1           0       -2.448705    2.621492    1.234880
     39          1           0       -2.845886    3.093676   -0.424091
     40          1           0       -1.214844    2.522761   -0.032854
 ---------------------------------------------------------------------

 SCF Done:  E(RHF) =  -470.733346413     A.U. after   11 cycles
 E2 =    -0.1582215665D+01 EUMP2 =    -0.47231556207786D+03

 The electronic state is 1-A.
 Alpha  occ. eigenvalues --  -11.21604 -11.21603 -11.21601 -11.21601 -11.21405
 Alpha  occ. eigenvalues --  -11.21405 -11.21346 -11.21346 -11.21076 -11.21072
 Alpha  occ. eigenvalues --  -11.21071 -11.21071  -1.08434  -1.08427  -1.03545
 Alpha  occ. eigenvalues --   -1.03519  -0.96014  -0.95954  -0.87045  -0.86957
 Alpha  occ. eigenvalues --   -0.79617  -0.79569  -0.78245  -0.78239  -0.65062
 Alpha  occ. eigenvalues --   -0.65058  -0.60931  -0.60921  -0.59629  -0.59157
 Alpha  occ. eigenvalues --   -0.57746  -0.57429  -0.55271  -0.55260  -0.52972
 Alpha  occ. eigenvalues --   -0.52535  -0.52457  -0.52199  -0.49924  -0.49916
 Alpha  occ. eigenvalues --   -0.47990  -0.47827  -0.46629  -0.46621  -0.45792
 Alpha  occ. eigenvalues --   -0.45777  -0.45710  -0.45707  -0.43941  -0.43616
 Alpha virt. eigenvalues --    0.21711   0.23005   0.23351   0.24994   0.26617
 Alpha virt. eigenvalues --    0.26650   0.26697   0.27456   0.27626   0.28713
 Alpha virt. eigenvalues --    0.29845   0.31367   0.31459   0.31816   0.32048

 Mulliken charges:
               1
     1  C   -0.298229
     2  C   -0.299652
     3  C   -0.475704
     4  H    0.149608
     5  H    0.149565
     6  H    0.151933
     7  H    0.151953
     8  H    0.155193
     9  H    0.155160
    10  H    0.160256
    11  C   -0.298562
    12  C   -0.298757
    13  C   -0.484348
    14  H    0.149555
    15  H    0.149675
    16  H    0.151877
    17  H    0.152064
    18  H    0.155404
    19  H    0.155577
    20  H    0.167405
    21  C   -0.298247
    22  C   -0.299657
    23  C   -0.475706
    24  H    0.149644
    25  H    0.149570
    26  H    0.151935
    27  H    0.151942
    28  H    0.155191
    29  H    0.155175
    30  H    0.160254
    31  C   -0.298489
    32  C   -0.298970
    33  C   -0.484186
    34  H    0.149570
    35  H    0.149664
    36  H    0.151884
    37  H    0.152163
    38  H    0.155475
    39  H    0.155578
    40  H    0.167236
 Sum of Mulliken charges =  -0.00000

 Dipole moment (field-independent basis, Debye):
    X=             -0.0012    Y=             -0.0008    Z=             -0.0002  Tot=              0.0015
 Quadrupole moment (field-independent basis, Debye-Ang):
   XX=            -85.2123   YY=            -86.7267   ZZ=            -82.8112
   XY=             -0.0551   XZ=              0.1339   YZ=             -0.2879

 Normal termination of Gaussian 16 at Thu May  6 14:50:50 2021.
