 Gaussian 16, Revision A.03,
 Gaussian 16:  EM64L-G16RevA.03 25-Dec-2016

 -------------
 #p 6-31g* mp2
 -------------

 ------------------------------------------------------
 Input file generated by CHIRIPA (05-May-2021 14:55:24)
 ------------------------------------------------------
 Symbolic Z-matrix:
 Charge =  0 Multiplicity = 1

                         Standard orientation:
 ---------------------------------------------------------------------
 Center     Atomic      Atomic             Coordinates (Angstroms)
 Number     Number       Type             X           Y           Z
 ---------------------------------------------------------------------
      1          6           0        1.128368   -1.606439    1.608371
      2          6           0        0.541840   -0.556103    0.894719
      3          6           0        1.321365    0.272890    0.082525
      4          6           0        2.690503    0.021829    0.006882
      5          6           0        3.304260   -1.016591    0.705649
      6          6           0        2.505279   -1.832931    1.511729
      7          1           0        0.515258   -2.245506    2.236928
      8          1           0       -0.527236   -0.377857    0.967863
      9          1           0        0.893223    1.093133   -0.480781
     10          1           0        4.372612   -1.169521    0.612616
     11          1           0        2.963502   -2.647891    2.064827
     12          7           0        3.526050    0.892750   -0.849716
     13          8           0        4.730029    0.650665   -0.899371
     14          8           0        2.961151    1.800970   -1.455241
     15          6           0       -3.462810   -0.579993   -0.126725
     16          6           0       -3.045298   -1.423117   -1.332050
     17          6           0       -3.442814   -2.892828   -1.191606
     18          1           0       -3.007930   -0.999201    0.781181
     19          1           0       -4.551036   -0.655444    0.005439
     20          1           0       -1.958359   -1.344991   -1.462735
     21          1           0       -3.501069   -1.001739   -2.237218
     22          1           0       -4.528006   -2.989815   -1.084121
     23          1           0       -2.976531   -3.335017   -0.305237
     24          1           0       -3.134753   -3.477193   -2.064231
     25          6           0       -3.072343    0.891568   -0.252307
     26          6           0       -3.489856    1.734692    0.953019
     27          6           0       -3.092340    3.204403    0.812574
     28          1           0       -1.984117    0.967020   -0.384470
     29          1           0       -3.527223    1.310776   -1.160213
     30          1           0       -3.034084    1.313315    1.858187
     31          1           0       -4.576794    1.656567    1.083703
     32          1           0       -3.558623    3.646592   -0.073795
     33          1           0       -2.007148    3.301390    0.705089
     34          1           0       -3.400401    3.788770    1.685199
 ---------------------------------------------------------------------

 SCF Done:  E(RHF) =  -669.535110211     A.U. after   15 cycles
 E2 =    -0.2092856233D+01 EUMP2 =    -0.67162796644415D+03

 The electronic state is 1-A.
 Alpha  occ. eigenvalues --  -20.60765 -20.60760 -15.85818 -11.31194 -11.27766
 Alpha  occ. eigenvalues --  -11.27763 -11.27503 -11.26779 -11.26732 -11.22428
 Alpha  occ. eigenvalues --  -11.22392 -11.22345 -11.22309 -11.21739 -11.21655
 Alpha  occ. eigenvalues --   -1.59840  -1.39393  -1.19366  -1.09337  -1.08756
 Alpha  occ. eigenvalues --   -1.04773  -1.04283  -0.96744  -0.95593  -0.87745
 Alpha  occ. eigenvalues --   -0.86170  -0.82433  -0.80343  -0.79147  -0.77479
 Alpha  occ. eigenvalues --   -0.72036  -0.71163  -0.70480  -0.66233  -0.65017
 Alpha  occ. eigenvalues --   -0.64623  -0.62077  -0.61685  -0.60094  -0.58339
 Alpha  occ. eigenvalues --   -0.56068  -0.55250  -0.53374  -0.53151  -0.53094
 Alpha  occ. eigenvalues --   -0.52820  -0.50695  -0.48796  -0.48791  -0.48647
 Alpha  occ. eigenvalues --   -0.47395  -0.46659  -0.46630  -0.44797  -0.44584
 Alpha  occ. eigenvalues --   -0.37344  -0.36367
 Alpha virt. eigenvalues --    0.05051   0.11237   0.16463   0.18418   0.22988
 Alpha virt. eigenvalues --    0.23323   0.24718   0.25406   0.27005   0.28693
 Alpha virt. eigenvalues --    0.29599   0.30770   0.31272   0.31435   0.31697

 Mulliken charges:
               1
     1  C   -0.172806
     2  C   -0.226104
     3  C   -0.176025
     4  C    0.159364
     5  C   -0.170885
     6  C   -0.218451
     7  H    0.225656
     8  H    0.236740
     9  H    0.276473
    10  H    0.275691
    11  H    0.223511
    12  N    0.488271
    13  O   -0.460490
    14  O   -0.460355
    15  C   -0.301380
    16  C   -0.302147
    17  C   -0.475156
    18  H    0.139998
    19  H    0.155793
    20  H    0.152885
    21  H    0.156614
    22  H    0.157067
    23  H    0.151422
    24  H    0.164133
    25  C   -0.304282
    26  C   -0.300661
    27  C   -0.475892
    28  H    0.141925
    29  H    0.158125
    30  H    0.147676
    31  H    0.155952
    32  H    0.158740
    33  H    0.155237
    34  H    0.163361
 Sum of Mulliken charges =  -0.00000

 Dipole moment (field-independent basis, Debye):
    X=             -3.1339    Y=             -3.0181    Z=              2.9295  Tot=              5.2452
 Quadrupole moment (field-independent basis, Debye-Ang):
   XX=           -105.8448   YY=            -94.7771   ZZ=            -94.8048
   XY=            -11.5429   XZ=             10.0816   YZ=             -0.8158

 Normal termination of Gaussian 16 at Wed May  5 22:23:05 2021.
