 Gaussian 16, Revision A.03,
 Gaussian 16:  EM64L-G16RevA.03 25-Dec-2016

 -------------
 #p 6-31g* mp2
 -------------

 ------------------------------------------------------
 Input file generated by CHIRIPA (05-May-2021 14:55:21)
 ------------------------------------------------------
 Symbolic Z-matrix:
 Charge =  0 Multiplicity = 1

                         Standard orientation:
 ---------------------------------------------------------------------
 Center     Atomic      Atomic             Coordinates (Angstroms)
 Number     Number       Type             X           Y           Z
 ---------------------------------------------------------------------
      1          6           0        1.094755    0.097938    0.899522
      2          6           0        1.543339    0.861586   -0.183131
      3          6           0        2.849959    0.719100   -0.659565
      4          6           0        3.684945   -0.200536   -0.026826
      5          6           0        3.267428   -0.975843    1.053854
      6          6           0        1.956712   -0.816727    1.513476
      7          1           0        0.078150    0.215084    1.263097
      8          1           0        0.876134    1.572697   -0.661882
      9          1           0        3.223196    1.297526   -1.495947
     10          1           0        3.955729   -1.676593    1.510591
     11          1           0        1.611056   -1.411123    2.354464
     12          7           0        5.070373   -0.360183   -0.522306
     13          8           0        5.786412   -1.177240    0.052450
     14          8           0        5.414001    0.334766   -1.476037
     15          6           0       -5.117155   -0.019225   -0.282155
     16          6           0       -5.269312   -1.539863   -0.232200
     17          6           0       -6.660505   -2.009100   -0.659041
     18          1           0       -5.875647    0.440295    0.366287
     19          1           0       -5.325677    0.329817   -1.302979
     20          1           0       -5.059214   -1.886077    0.787903
     21          1           0       -4.510246   -1.995823   -0.880686
     22          1           0       -6.876320   -1.691812   -1.684396
     23          1           0       -7.428407   -1.581443   -0.006326
     24          1           0       -6.747270   -3.099270   -0.615884
     25          6           0       -3.731766    0.465240    0.141776
     26          6           0       -3.579608    1.985877    0.091821
     27          6           0       -2.188415    2.455115    0.518663
     28          1           0       -3.523244    0.116198    1.162601
     29          1           0       -2.973273    0.005721   -0.506665
     30          1           0       -4.338673    2.441838    0.740308
     31          1           0       -3.789706    2.332091   -0.928281
     32          1           0       -1.420514    2.027458   -0.134053
     33          1           0       -1.972600    2.137827    1.544018
     34          1           0       -2.101651    3.545284    0.475506
 ---------------------------------------------------------------------

 SCF Done:  E(RHF) =  -669.535346772     A.U. after   15 cycles
 E2 =    -0.2091558606D+01 EUMP2 =    -0.67162690537737D+03

 The electronic state is 1-A.
 Alpha  occ. eigenvalues --  -20.60695 -20.60690 -15.85749 -11.31092 -11.27666
 Alpha  occ. eigenvalues --  -11.27661 -11.27348 -11.26663 -11.26640 -11.22665
 Alpha  occ. eigenvalues --  -11.22483 -11.22393 -11.22255 -11.22136 -11.21595
 Alpha  occ. eigenvalues --   -1.59772  -1.39326  -1.19261  -1.09330  -1.08654
 Alpha  occ. eigenvalues --   -1.04669  -1.04434  -0.96915  -0.95492  -0.87937
 Alpha  occ. eigenvalues --   -0.86064  -0.82330  -0.80520  -0.79112  -0.77388
 Alpha  occ. eigenvalues --   -0.71967  -0.71095  -0.70357  -0.65963  -0.64913
 Alpha  occ. eigenvalues --   -0.64705  -0.62098  -0.61762  -0.60287  -0.58495
 Alpha  occ. eigenvalues --   -0.56224  -0.55145  -0.53587  -0.53350  -0.52991
 Alpha  occ. eigenvalues --   -0.52740  -0.50845  -0.48821  -0.48724  -0.48716
 Alpha  occ. eigenvalues --   -0.47530  -0.46655  -0.46550  -0.44737  -0.44669
 Alpha  occ. eigenvalues --   -0.37230  -0.36275
 Alpha virt. eigenvalues --    0.05150   0.11368   0.16641   0.19584   0.22369
 Alpha virt. eigenvalues --    0.23779   0.24753   0.25813   0.26665   0.27288
 Alpha virt. eigenvalues --    0.29274   0.30139   0.30800   0.31546   0.31794

 Mulliken charges:
               1
     1  C   -0.174155
     2  C   -0.223823
     3  C   -0.171102
     4  C    0.158394
     5  C   -0.170984
     6  C   -0.219236
     7  H    0.230952
     8  H    0.227443
     9  H    0.275350
    10  H    0.275169
    11  H    0.223055
    12  N    0.488000
    13  O   -0.460711
    14  O   -0.460725
    15  C   -0.298701
    16  C   -0.300396
    17  C   -0.476224
    18  H    0.151661
    19  H    0.151830
    20  H    0.151503
    21  H    0.152763
    22  H    0.156477
    23  H    0.156085
    24  H    0.162091
    25  C   -0.300483
    26  C   -0.299305
    27  C   -0.483133
    28  H    0.146883
    29  H    0.148658
    30  H    0.156518
    31  H    0.155776
    32  H    0.148509
    33  H    0.154347
    34  H    0.167514
 Sum of Mulliken charges =  -0.00000

 Dipole moment (field-independent basis, Debye):
    X=             -5.1864    Y=              0.6080    Z=              1.7296  Tot=              5.5009
 Quadrupole moment (field-independent basis, Debye-Ang):
   XX=           -131.1172   YY=            -92.9431   ZZ=            -91.9501
   XY=              1.7311   XZ=              6.8117   YZ=             -3.2572

 Normal termination of Gaussian 16 at Thu May  6 12:30:15 2021.
