 Gaussian 16, Revision A.03,
 Gaussian 16:  EM64L-G16RevA.03 25-Dec-2016

 -------------
 #p 6-31g* mp2
 -------------

 ------------------------------------------------------
 Input file generated by CHIRIPA (05-May-2021 14:51:13)
 ------------------------------------------------------
 Symbolic Z-matrix:
 Charge =  0 Multiplicity = 1

                         Standard orientation:
 ---------------------------------------------------------------------
 Center     Atomic      Atomic             Coordinates (Angstroms)
 Number     Number       Type             X           Y           Z
 ---------------------------------------------------------------------
      1          6           0        3.291415   -0.137232   -0.086038
      2          6           0        2.305698    0.021020    1.072108
      3          6           0        0.858275    0.165164    0.600957
      4          1           0        3.206210    0.731587   -0.753001
      5          1           0        3.009173   -1.016873   -0.680988
      6          1           0        2.590531    0.899298    1.665499
      7          1           0        2.393395   -0.848185    1.736494
      8          1           0        0.550580   -0.714789    0.026841
      9          1           0        0.748836    1.042623   -0.044557
     10          1           0        0.170581    0.277034    1.445008
     11          6           0        4.742478   -0.282441    0.369000
     12          6           0        5.728195   -0.440693   -0.789147
     13          6           0        7.175618   -0.584837   -0.317996
     14          1           0        5.024720    0.597200    0.963950
     15          1           0        4.827683   -1.151260    1.035963
     16          1           0        5.640497    0.428512   -1.453532
     17          1           0        5.443362   -1.318972   -1.382537
     18          1           0        7.285057   -1.462297    0.327518
     19          1           0        7.483313    0.295116    0.256120
     20          1           0        7.863312   -0.696707   -1.162047
     21          6           0       -4.561508   -0.221889    0.175533
     22          6           0       -4.756478   -1.565385   -0.528021
     23          6           0       -5.849278   -2.417768    0.117755
     24          1           0       -4.313669   -0.400394    1.230832
     25          1           0       -5.511598    0.330057    0.166629
     26          1           0       -3.805948   -2.114045   -0.519010
     27          1           0       -5.003694   -1.383664   -1.581813
     28          1           0       -6.810270   -1.893752    0.095319
     29          1           0       -5.605719   -2.628283    1.164160
     30          1           0       -5.971910   -3.373673   -0.400962
     31          6           0       -3.472385    0.641561   -0.458495
     32          6           0       -3.277414    1.985059    0.245059
     33          6           0       -2.184615    2.837441   -0.400716
     34          1           0       -2.522294    0.089617   -0.449591
     35          1           0       -3.720223    0.820067   -1.513794
     36          1           0       -3.030198    1.803338    1.298852
     37          1           0       -4.227944    2.533718    0.236049
     38          1           0       -2.428173    3.047955   -1.447122
     39          1           0       -1.223623    2.313425   -0.378280
     40          1           0       -2.061984    3.793347    0.118001
 ---------------------------------------------------------------------

 SCF Done:  E(RHF) =  -470.733181081     A.U. after   11 cycles
 E2 =    -0.1582781337D+01 EUMP2 =    -0.47231596241816D+03

 The electronic state is 1-A.
 Alpha  occ. eigenvalues --  -11.21670 -11.21625 -11.21558 -11.21518 -11.21446
 Alpha  occ. eigenvalues --  -11.21385 -11.21331 -11.21260 -11.21177 -11.21089
 Alpha  occ. eigenvalues --  -11.21039 -11.20936  -1.08476  -1.08356  -1.03589
 Alpha  occ. eigenvalues --   -1.03454  -0.96047  -0.95900  -0.87072  -0.86916
 Alpha  occ. eigenvalues --   -0.79677  -0.79501  -0.78290  -0.78161  -0.65111
 Alpha  occ. eigenvalues --   -0.64984  -0.61052  -0.60811  -0.59399  -0.59275
 Alpha  occ. eigenvalues --   -0.57663  -0.57513  -0.55492  -0.55054  -0.52738
 Alpha  occ. eigenvalues --   -0.52604  -0.52508  -0.52299  -0.50149  -0.49674
 Alpha  occ. eigenvalues --   -0.48029  -0.47790  -0.46730  -0.46469  -0.45870
 Alpha  occ. eigenvalues --   -0.45747  -0.45696  -0.45563  -0.43826  -0.43712
 Alpha virt. eigenvalues --    0.21430   0.22936   0.23727   0.24762   0.25872
 Alpha virt. eigenvalues --    0.26315   0.26983   0.27633   0.27793   0.29090
 Alpha virt. eigenvalues --    0.30337   0.31106   0.31392   0.31828   0.32411

 Mulliken charges:
               1
     1  C   -0.298702
     2  C   -0.300164
     3  C   -0.480185
     4  H    0.150108
     5  H    0.149642
     6  H    0.152477
     7  H    0.152124
     8  H    0.155490
     9  H    0.159249
    10  H    0.160736
    11  C   -0.298346
    12  C   -0.299705
    13  C   -0.475739
    14  H    0.149671
    15  H    0.149700
    16  H    0.152087
    17  H    0.151981
    18  H    0.155193
    19  H    0.155245
    20  H    0.160363
    21  C   -0.298110
    22  C   -0.299556
    23  C   -0.475648
    24  H    0.149353
    25  H    0.149274
    26  H    0.151787
    27  H    0.151825
    28  H    0.155120
    29  H    0.155068
    30  H    0.160037
    31  C   -0.301380
    32  C   -0.298361
    33  C   -0.483110
    34  H    0.153662
    35  H    0.149134
    36  H    0.151263
    37  H    0.151394
    38  H    0.154342
    39  H    0.163400
    40  H    0.159283
 Sum of Mulliken charges =  -0.00000

 Dipole moment (field-independent basis, Debye):
    X=              0.0653    Y=             -0.0169    Z=              0.0005  Tot=              0.0674
 Quadrupole moment (field-independent basis, Debye-Ang):
   XX=            -86.1895   YY=            -84.2276   ZZ=            -84.5802
   XY=             -0.5330   XZ=              0.4989   YZ=             -0.0215

 Normal termination of Gaussian 16 at Thu May  6 05:33:46 2021.
