 Gaussian 16, Revision A.03,
 Gaussian 16:  EM64L-G16RevA.03 25-Dec-2016

 -------------
 #p 6-31g* mp2
 -------------

 ------------------------------------------------------
 Input file generated by CHIRIPA (05-May-2021 14:53:15)
 ------------------------------------------------------
 Symbolic Z-matrix:
 Charge =  0 Multiplicity = 1

                         Standard orientation:
 ---------------------------------------------------------------------
 Center     Atomic      Atomic             Coordinates (Angstroms)
 Number     Number       Type             X           Y           Z
 ---------------------------------------------------------------------
      1          6           0       -3.174759   -0.440241    0.869776
      2          6           0       -1.698238   -0.045317    0.913432
      3          6           0       -0.886313   -0.899762    1.887339
      4          1           0       -3.600850   -0.353824    1.878697
      5          1           0       -3.255793   -1.498644    0.585854
      6          1           0       -1.620072    1.012394    1.195840
      7          1           0       -1.275659   -0.132500   -0.095748
      8          1           0       -0.934547   -1.956499    1.605236
      9          1           0       -1.280916   -0.805100    2.904162
     10          1           0        0.166313   -0.600424    1.902689
     11          6           0       -3.999526    0.404929   -0.099334
     12          6           0       -5.476047    0.010005   -0.142990
     13          6           0       -6.287972    0.864450   -1.116897
     14          1           0       -3.918492    1.463332    0.184588
     15          1           0       -3.573434    0.318512   -1.108256
     16          1           0       -5.898625    0.097189    0.866189
     17          1           0       -5.554213   -1.047706   -0.425398
     18          1           0       -5.893369    0.769788   -2.133720
     19          1           0       -6.239738    1.921187   -0.834794
     20          1           0       -7.340597    0.565112   -1.132248
     21          6           0        3.671140    2.334555    0.173784
     22          6           0        4.508766    1.226421    0.337928
     23          6           0        4.038129   -0.064078    0.077814
     24          6           0        2.718474   -0.210569   -0.346850
     25          6           0        1.859486    0.873651   -0.519757
     26          6           0        2.351499    2.154950   -0.253780
     27          1           0        4.045045    3.333472    0.378125
     28          1           0        5.534067    1.362903    0.669857
     29          1           0        4.665027   -0.939465    0.196622
     30          1           0        0.842157    0.705969   -0.851937
     31          1           0        1.698727    3.013705   -0.382122
     32          7           0        2.208916   -1.571893   -0.625325
     33          8           0        1.042295   -1.674248   -0.998359
     34          8           0        2.985795   -2.510767   -0.465285
 ---------------------------------------------------------------------

 SCF Done:  E(RHF) =  -669.535641391     A.U. after   15 cycles
 E2 =    -0.2093233147D+01 EUMP2 =    -0.67162887453810D+03

 The electronic state is 1-A.
 Alpha  occ. eigenvalues --  -20.60882 -20.60872 -15.85906 -11.31231 -11.27797
 Alpha  occ. eigenvalues --  -11.27762 -11.27535 -11.26804 -11.26786 -11.21400
 Alpha  occ. eigenvalues --  -11.21262 -11.21175 -11.21032 -11.20928 -11.20528
 Alpha  occ. eigenvalues --   -1.59936  -1.39493  -1.19402  -1.08805  -1.08149
 Alpha  occ. eigenvalues --   -1.04796  -1.03228  -0.95713  -0.95601  -0.86685
 Alpha  occ. eigenvalues --   -0.86199  -0.82480  -0.79335  -0.78027  -0.77500
 Alpha  occ. eigenvalues --   -0.72141  -0.71256  -0.70512  -0.65070  -0.64860
 Alpha  occ. eigenvalues --   -0.64694  -0.62175  -0.60575  -0.59060  -0.57309
 Alpha  occ. eigenvalues --   -0.55300  -0.54920  -0.53148  -0.52888  -0.52356
 Alpha  occ. eigenvalues --   -0.52091  -0.49588  -0.48908  -0.48883  -0.47634
 Alpha  occ. eigenvalues --   -0.46314  -0.45522  -0.45418  -0.44855  -0.43500
 Alpha  occ. eigenvalues --   -0.37376  -0.36384
 Alpha virt. eigenvalues --    0.04973   0.11186   0.16461   0.21087   0.23222
 Alpha virt. eigenvalues --    0.24471   0.26076   0.27061   0.27776   0.28135
 Alpha virt. eigenvalues --    0.28975   0.30458   0.31588   0.31863   0.31961

 Mulliken charges:
               1
     1  C   -0.297480
     2  C   -0.309229
     3  C   -0.472376
     4  H    0.147974
     5  H    0.155387
     6  H    0.141730
     7  H    0.163101
     8  H    0.168029
     9  H    0.150039
    10  H    0.152167
    11  C   -0.298562
    12  C   -0.299581
    13  C   -0.475638
    14  H    0.145401
    15  H    0.150178
    16  H    0.151327
    17  H    0.154036
    18  H    0.155357
    19  H    0.153369
    20  H    0.160119
    21  C   -0.170377
    22  C   -0.218830
    23  C   -0.170595
    24  C    0.155482
    25  C   -0.170000
    26  C   -0.221341
    27  H    0.225816
    28  H    0.223605
    29  H    0.275710
    30  H    0.282477
    31  H    0.224372
    32  N    0.489762
    33  O   -0.462122
    34  O   -0.459307
 Sum of Mulliken charges =  -0.00000

 Dipole moment (field-independent basis, Debye):
    X=              1.8771    Y=              4.6335    Z=              0.8984  Tot=              5.0794
 Quadrupole moment (field-independent basis, Debye-Ang):
   XX=            -81.7079   YY=            -96.2384   ZZ=            -96.1035
   XY=             11.5445   XZ=              2.8218   YZ=             -1.6507

 Normal termination of Gaussian 16 at Thu May  6 18:50:36 2021.
