 Gaussian 16, Revision A.03,
 Gaussian 16:  EM64L-G16RevA.03 25-Dec-2016

 -------------
 #p 6-31g* mp2
 -------------

 ------------------------------------------------------
 Input file generated by CHIRIPA (05-May-2021 14:57:27)
 ------------------------------------------------------
 Symbolic Z-matrix:
 Charge =  0 Multiplicity = 1

                         Standard orientation:
 ---------------------------------------------------------------------
 Center     Atomic      Atomic             Coordinates (Angstroms)
 Number     Number       Type             X           Y           Z
 ---------------------------------------------------------------------
      1          6           0       -1.548558   -1.547582   -0.010001
      2          6           0       -1.567271   -0.256022    0.526694
      3          6           0       -2.758747    0.473406    0.580237
      4          6           0       -3.918185   -0.122116    0.085923
      5          6           0       -3.931775   -1.406932   -0.454776
      6          6           0       -2.728789   -2.117910   -0.498162
      7          1           0       -0.618520   -2.107053   -0.047649
      8          1           0       -0.652209    0.189426    0.906542
      9          1           0       -2.801676    1.475053    0.990456
     10          1           0       -4.859991   -1.824379   -0.825682
     11          1           0       -2.717238   -3.120768   -0.915520
     12          7           0       -5.185640    0.640330    0.137230
     13          8           0       -6.193567    0.093220   -0.304799
     14          8           0       -5.147145    1.770610    0.618503
     15          6           0        2.589334    2.466538   -0.511877
     16          6           0        1.858473    1.279344   -0.625616
     17          6           0        2.468705    0.044298   -0.387238
     18          6           0        3.817567    0.033275   -0.035469
     19          6           0        4.572509    1.198872    0.085929
     20          6           0        3.941634    2.422590   -0.157093
     21          1           0        2.107274    3.421552   -0.698858
     22          1           0        0.808117    1.310445   -0.900988
     23          1           0        1.926517   -0.889994   -0.468164
     24          1           0        5.618065    1.135939    0.362101
     25          1           0        4.511706    3.342986   -0.068013
     26          7           0        4.474519   -1.268217    0.219348
     27          8           0        5.664126   -1.250971    0.527848
     28          8           0        3.787390   -2.280929    0.105751
 ---------------------------------------------------------------------

 SCF Done:  E(RHF) =  -868.337597669     A.U. after   16 cycles
 E2 =    -0.2600650764D+01 EUMP2 =    -0.87093824843241D+03

 The electronic state is 1-A.
 Alpha  occ. eigenvalues --  -20.61549 -20.61521 -20.61202 -20.61190 -15.86594
 Alpha  occ. eigenvalues --  -15.86256 -11.32021 -11.31707 -11.28694 -11.28535
 Alpha  occ. eigenvalues --  -11.28337 -11.28274 -11.28257 -11.28056 -11.27605
 Alpha  occ. eigenvalues --  -11.27531 -11.27346 -11.27254  -1.60609  -1.60273
 Alpha  occ. eigenvalues --   -1.40164  -1.39824  -1.20188  -1.19895  -1.09551
 Alpha  occ. eigenvalues --   -1.09273  -1.05618  -1.05304  -0.96387  -0.96090
 Alpha  occ. eigenvalues --   -0.86996  -0.86702  -0.83230  -0.82916  -0.78307
 Alpha  occ. eigenvalues --   -0.77931  -0.72810  -0.72471  -0.71932  -0.71598
 Alpha  occ. eigenvalues --   -0.71308  -0.70965  -0.65855  -0.65675  -0.65543
 Alpha  occ. eigenvalues --   -0.65253  -0.63033  -0.62538  -0.56057  -0.55806
 Alpha  occ. eigenvalues --   -0.53953  -0.53779  -0.53578  -0.53280  -0.49577
 Alpha  occ. eigenvalues --   -0.49557  -0.49236  -0.49222  -0.45557  -0.45211
 Alpha  occ. eigenvalues --   -0.38133  -0.37881  -0.37223  -0.36904
 Alpha virt. eigenvalues --    0.04237   0.04577   0.10367   0.10639   0.15575
 Alpha virt. eigenvalues --    0.15994   0.18870   0.21952   0.24770   0.26420
 Alpha virt. eigenvalues --    0.27563   0.29367   0.29774   0.30981   0.32040

 Mulliken charges:
               1
     1  C   -0.176808
     2  C   -0.228907
     3  C   -0.172462
     4  C    0.159092
     5  C   -0.169678
     6  C   -0.217975
     7  H    0.231325
     8  H    0.225238
     9  H    0.275361
    10  H    0.277865
    11  H    0.227804
    12  N    0.488050
    13  O   -0.458338
    14  O   -0.460500
    15  C   -0.170844
    16  C   -0.226559
    17  C   -0.176463
    18  C    0.160195
    19  C   -0.169383
    20  C   -0.217925
    21  H    0.229734
    22  H    0.227479
    23  H    0.269977
    24  H    0.278357
    25  H    0.227129
    26  N    0.488149
    27  O   -0.456501
    28  O   -0.463413
 Sum of Mulliken charges =  -0.00000

 Dipole moment (field-independent basis, Debye):
    X=              2.2186    Y=              1.9386    Z=             -1.1040  Tot=              3.1463
 Quadrupole moment (field-independent basis, Debye-Ang):
   XX=           -151.5293   YY=            -99.8953   ZZ=           -105.2402
   XY=             32.8190   XZ=             -0.0607   YZ=              1.9816

 Normal termination of Gaussian 16 at Thu May  6 19:48:19 2021.
