 Gaussian 16, Revision A.03,
 Gaussian 16:  EM64L-G16RevA.03 25-Dec-2016

 -------------
 #p 6-31g* mp2
 -------------

 ------------------------------------------------------
 Input file generated by CHIRIPA (05-May-2021 14:55:24)
 ------------------------------------------------------
 Symbolic Z-matrix:
 Charge =  0 Multiplicity = 1

                         Standard orientation:
 ---------------------------------------------------------------------
 Center     Atomic      Atomic             Coordinates (Angstroms)
 Number     Number       Type             X           Y           Z
 ---------------------------------------------------------------------
      1          6           0       -0.768720    2.001235    0.229203
      2          6           0       -1.697372    2.111402   -0.810983
      3          6           0       -2.805470    1.260767   -0.866556
      4          6           0       -2.954560    0.307043    0.139164
      5          6           0       -2.046673    0.172557    1.188424
      6          6           0       -0.946021    1.033869    1.223833
      7          1           0        0.089185    2.666176    0.264542
      8          1           0       -1.562227    2.861738   -1.584790
      9          1           0       -3.539714    1.324239   -1.660455
     10          1           0       -2.208252   -0.585246    1.945421
     11          1           0       -0.226422    0.946025    2.032849
     12          7           0       -4.123712   -0.599138    0.091005
     13          8           0       -4.232384   -1.431070    0.989178
     14          8           0       -4.909283   -0.460312   -0.844005
     15          6           0        2.917604   -0.952629    0.069128
     16          6           0        1.865086   -1.200732   -1.011906
     17          6           0        0.635517   -1.938743   -0.481536
     18          1           0        3.223986   -1.915045    0.501368
     19          1           0        2.464935   -0.373205    0.885678
     20          1           0        2.319981   -1.778329   -1.826811
     21          1           0        1.561313   -0.237628   -1.441755
     22          1           0        0.155690   -1.363610    0.316955
     23          1           0        0.918668   -2.913064   -0.070288
     24          1           0       -0.104027   -2.105629   -1.270893
     25          6           0        4.152781   -0.215738   -0.445708
     26          6           0        5.205300    0.032366    0.635326
     27          6           0        6.434869    0.770377    0.104956
     28          1           0        4.605450   -0.795161   -1.262258
     29          1           0        3.846400    0.746679   -0.877948
     30          1           0        5.509071   -0.930738    1.065176
     31          1           0        4.750405    0.609962    1.450230
     32          1           0        6.151718    1.744698   -0.306292
     33          1           0        6.914696    0.195244   -0.693535
     34          1           0        7.174413    0.937264    0.894313
 ---------------------------------------------------------------------

 SCF Done:  E(RHF) =  -669.534209773     A.U. after   15 cycles
 E2 =    -0.2093693764D+01 EUMP2 =    -0.67162790353718D+03

 The electronic state is 1-A.
 Alpha  occ. eigenvalues --  -20.60809 -20.60804 -15.85864 -11.31264 -11.27843
 Alpha  occ. eigenvalues --  -11.27830 -11.27607 -11.26872 -11.26858 -11.22108
 Alpha  occ. eigenvalues --  -11.21933 -11.21894 -11.21848 -11.21526 -11.21079
 Alpha  occ. eigenvalues --   -1.59883  -1.39436  -1.19459  -1.08895  -1.08829
 Alpha  occ. eigenvalues --   -1.04885  -1.03892  -0.96341  -0.95668  -0.87358
 Alpha  occ. eigenvalues --   -0.86261  -0.82507  -0.79973  -0.78711  -0.77539
 Alpha  occ. eigenvalues --   -0.72083  -0.71207  -0.70560  -0.65543  -0.65112
 Alpha  occ. eigenvalues --   -0.64863  -0.62218  -0.61331  -0.59713  -0.57961
 Alpha  occ. eigenvalues --   -0.55768  -0.55363  -0.53274  -0.52975  -0.52951
 Alpha  occ. eigenvalues --   -0.52657  -0.50243  -0.48845  -0.48834  -0.48277
 Alpha  occ. eigenvalues --   -0.47023  -0.46237  -0.46194  -0.44831  -0.44177
 Alpha  occ. eigenvalues --   -0.37427  -0.36339
 Alpha virt. eigenvalues --    0.04975   0.11078   0.16369   0.20396   0.22722
 Alpha virt. eigenvalues --    0.24041   0.25556   0.26515   0.27357   0.28243
 Alpha virt. eigenvalues --    0.28655   0.30505   0.31217   0.31582   0.32016

 Mulliken charges:
               1
     1  C   -0.169728
     2  C   -0.218644
     3  C   -0.171013
     4  C    0.161690
     5  C   -0.171203
     6  C   -0.220142
     7  H    0.226002
     8  H    0.223941
     9  H    0.276053
    10  H    0.276832
    11  H    0.225065
    12  N    0.487977
    13  O   -0.459896
    14  O   -0.460328
    15  C   -0.297131
    16  C   -0.299156
    17  C   -0.479294
    18  H    0.152231
    19  H    0.140093
    20  H    0.153301
    21  H    0.148781
    22  H    0.158017
    23  H    0.154673
    24  H    0.162295
    25  C   -0.297787
    26  C   -0.299328
    27  C   -0.475680
    28  H    0.152228
    29  H    0.145755
    30  H    0.153924
    31  H    0.148430
    32  H    0.153836
    33  H    0.156866
    34  H    0.161338
 Sum of Mulliken charges =  -0.00000

 Dipole moment (field-independent basis, Debye):
    X=              4.0560    Y=              3.1825    Z=              0.1461  Tot=              5.1576
 Quadrupole moment (field-independent basis, Debye-Ang):
   XX=           -119.7838   YY=            -91.8291   ZZ=            -91.4421
   XY=            -10.0261   XZ=              1.6287   YZ=             -1.3597

 Normal termination of Gaussian 16 at Wed May  5 20:46:02 2021.
