 Gaussian 16, Revision A.03,
 Gaussian 16:  EM64L-G16RevA.03 25-Dec-2016

 -------------
 #p 6-31g* mp2
 -------------

 ------------------------------------------------------
 Input file generated by CHIRIPA (05-May-2021 14:51:13)
 ------------------------------------------------------
 Symbolic Z-matrix:
 Charge =  0 Multiplicity = 1

                         Standard orientation:
 ---------------------------------------------------------------------
 Center     Atomic      Atomic             Coordinates (Angstroms)
 Number     Number       Type             X           Y           Z
 ---------------------------------------------------------------------
      1          6           0        2.802003   -0.968065    0.410912
      2          6           0        1.783930   -1.771796   -0.398736
      3          6           0        1.220801   -2.963600    0.376043
      4          1           0        3.623769   -1.630466    0.715657
      5          1           0        2.326729   -0.613655    1.336063
      6          1           0        2.260583   -2.123416   -1.322738
      7          1           0        0.964588   -1.107360   -0.701751
      8          1           0        0.720492   -2.627316    1.289938
      9          1           0        2.023851   -3.649145    0.665422
     10          1           0        0.495063   -3.524137   -0.221420
     11          6           0        3.373969    0.226644   -0.350174
     12          6           0        4.392042    1.030376    0.459474
     13          6           0        4.955171    2.222180   -0.315304
     14          1           0        3.849243   -0.127765   -1.275324
     15          1           0        2.552203    0.889046   -0.654919
     16          1           0        5.211384    0.365940    0.762489
     17          1           0        3.915389    1.381996    1.383477
     18          1           0        4.152121    2.907725   -0.604683
     19          1           0        5.455480    1.885896   -1.229199
     20          1           0        5.680909    2.782717    0.282159
     21          6           0       -2.843740   -0.273067   -0.361014
     22          6           0       -3.369838   -1.539471    0.315322
     23          6           0       -2.872483   -2.819190   -0.357548
     24          1           0       -3.147393   -0.275729   -1.416823
     25          1           0       -1.745098   -0.290173   -0.351704
     26          1           0       -4.467163   -1.519322    0.305969
     27          1           0       -3.065060   -1.533701    1.369690
     28          1           0       -1.778909   -2.866128   -0.335341
     29          1           0       -3.188978   -2.851667   -1.405105
     30          1           0       -3.260604   -3.712335    0.141966
     31          6           0       -3.332232    1.014487    0.300276
     32          6           0       -2.806134    2.280891   -0.376060
     33          6           0       -3.303489    3.560610    0.296809
     34          1           0       -4.430875    1.031593    0.290966
     35          1           0       -3.028578    1.017149    1.356085
     36          1           0       -3.110912    2.275121   -1.430428
     37          1           0       -1.708809    2.260742   -0.366707
     38          1           0       -2.986994    3.593087    1.344366
     39          1           0       -4.397063    3.607549    0.274603
     40          1           0       -2.915368    4.453755   -0.202704
 ---------------------------------------------------------------------

 SCF Done:  E(RHF) =  -470.733116648     A.U. after   11 cycles
 E2 =    -0.1583175186D+01 EUMP2 =    -0.47231629183426D+03

 The electronic state is 1-A.
 Alpha  occ. eigenvalues --  -11.21665 -11.21632 -11.21632 -11.21586 -11.21451
 Alpha  occ. eigenvalues --  -11.21423 -11.21390 -11.21363 -11.21124 -11.21095
 Alpha  occ. eigenvalues --  -11.21093 -11.20980  -1.08481  -1.08436  -1.03592
 Alpha  occ. eigenvalues --   -1.03514  -0.96054  -0.95952  -0.87088  -0.86952
 Alpha  occ. eigenvalues --   -0.79651  -0.79582  -0.78301  -0.78243  -0.65182
 Alpha  occ. eigenvalues --   -0.65008  -0.61101  -0.60834  -0.59436  -0.59317
 Alpha  occ. eigenvalues --   -0.57719  -0.57519  -0.55405  -0.55183  -0.52810
 Alpha  occ. eigenvalues --   -0.52658  -0.52503  -0.52280  -0.50056  -0.49803
 Alpha  occ. eigenvalues --   -0.47973  -0.47870  -0.46684  -0.46613  -0.45924
 Alpha  occ. eigenvalues --   -0.45791  -0.45769  -0.45585  -0.43813  -0.43785
 Alpha virt. eigenvalues --    0.20150   0.23313   0.23458   0.24955   0.25551
 Alpha virt. eigenvalues --    0.26791   0.26990   0.27157   0.28568   0.29112
 Alpha virt. eigenvalues --    0.30643   0.30942   0.31490   0.31761   0.32136

 Mulliken charges:
               1
     1  C   -0.298196
     2  C   -0.304532
     3  C   -0.479549
     4  H    0.150060
     5  H    0.149277
     6  H    0.152698
     7  H    0.155103
     8  H    0.155035
     9  H    0.156213
    10  H    0.163942
    11  C   -0.298278
    12  C   -0.299696
    13  C   -0.475740
    14  H    0.149808
    15  H    0.149442
    16  H    0.152056
    17  H    0.151861
    18  H    0.155244
    19  H    0.155287
    20  H    0.160358
    21  C   -0.302260
    22  C   -0.298747
    23  C   -0.483959
    24  H    0.149851
    25  H    0.152333
    26  H    0.151848
    27  H    0.151504
    28  H    0.164657
    29  H    0.154478
    30  H    0.159952
    31  C   -0.298164
    32  C   -0.299472
    33  C   -0.475713
    34  H    0.149837
    35  H    0.149445
    36  H    0.152164
    37  H    0.151080
    38  H    0.155115
    39  H    0.155364
    40  H    0.160293
 Sum of Mulliken charges =  -0.00000

 Dipole moment (field-independent basis, Debye):
    X=              0.0313    Y=             -0.0148    Z=             -0.0053  Tot=              0.0350
 Quadrupole moment (field-independent basis, Debye-Ang):
   XX=            -83.8675   YY=            -86.2151   ZZ=            -84.6068
   XY=             -0.7148   XZ=              0.5343   YZ=              0.2174

 Normal termination of Gaussian 16 at Wed May  5 21:34:55 2021.
