 Gaussian 16, Revision A.03,
 Gaussian 16:  EM64L-G16RevA.03 25-Dec-2016

 -------------
 #p 6-31g* mp2
 -------------

 ------------------------------------------------------
 Input file generated by CHIRIPA (05-May-2021 14:51:11)
 ------------------------------------------------------
 Symbolic Z-matrix:
 Charge =  0 Multiplicity = 1

                         Standard orientation:
 ---------------------------------------------------------------------
 Center     Atomic      Atomic             Coordinates (Angstroms)
 Number     Number       Type             X           Y           Z
 ---------------------------------------------------------------------
      1          6           0        3.573629   -0.038452    0.084702
      2          6           0        2.608997   -0.777536    1.012725
      3          6           0        1.180195   -0.239497    0.930063
      4          1           0        3.567829    1.030874    0.336600
      5          1           0        3.210124   -0.118001   -0.949189
      6          1           0        2.974953   -0.697790    2.044390
      7          1           0        2.617238   -1.845256    0.758715
      8          1           0        0.791358   -0.333895   -0.089003
      9          1           0        1.151106    0.820090    1.203977
     10          1           0        0.507417   -0.782079    1.601505
     11          6           0        5.005925   -0.564915    0.156060
     12          6           0        5.970556    0.174169   -0.771963
     13          6           0        7.399358   -0.363870   -0.689300
     14          1           0        5.369430   -0.485365    1.189952
     15          1           0        5.011725   -1.634241   -0.095838
     16          1           0        5.962316    1.241889   -0.517952
     17          1           0        5.604601    0.094423   -1.803628
     18          1           0        7.428448   -1.423457   -0.963215
     19          1           0        7.788196   -0.269472    0.329766
     20          1           0        8.072137    0.178712   -1.360743
     21          6           0       -3.705822    0.597224    0.273427
     22          6           0       -2.990284    1.730749   -0.462177
     23          6           0       -1.824389    2.311739    0.338406
     24          1           0       -4.072289    0.969650    1.239835
     25          1           0       -2.982250   -0.198341    0.499070
     26          1           0       -3.715282    2.523328   -0.687588
     27          1           0       -2.625645    1.355632   -1.427030
     28          1           0       -1.079727    1.537931    0.551248
     29          1           0       -2.175556    2.712262    1.294891
     30          1           0       -1.327100    3.120542   -0.206022
     31          6           0       -4.873732    0.006143   -0.514189
     32          6           0       -5.589270   -1.127382    0.221414
     33          6           0       -6.755166   -1.708372   -0.579168
     34          1           0       -5.597304    0.801708   -0.739832
     35          1           0       -4.507265   -0.366283   -1.480598
     36          1           0       -5.953910   -0.752265    1.186267
     37          1           0       -4.864271   -1.919962    0.446826
     38          1           0       -6.403997   -2.108896   -1.535653
     39          1           0       -7.499827   -0.934564   -0.792010
     40          1           0       -7.252454   -2.517175   -0.034740
 ---------------------------------------------------------------------

 SCF Done:  E(RHF) =  -470.733010213     A.U. after   11 cycles
 E2 =    -0.1582570485D+01 EUMP2 =    -0.47231558069820D+03

 The electronic state is 1-A.
 Alpha  occ. eigenvalues --  -11.21639 -11.21614 -11.21565 -11.21504 -11.21427
 Alpha  occ. eigenvalues --  -11.21367 -11.21344 -11.21280 -11.21136 -11.21081
 Alpha  occ. eigenvalues --  -11.21044 -11.20866  -1.08456  -1.08361  -1.03571
 Alpha  occ. eigenvalues --   -1.03445  -0.96045  -0.95878  -0.87093  -0.86872
 Alpha  occ. eigenvalues --   -0.79689  -0.79469  -0.78273  -0.78168  -0.65085
 Alpha  occ. eigenvalues --   -0.64994  -0.60965  -0.60857  -0.59389  -0.59264
 Alpha  occ. eigenvalues --   -0.57676  -0.57482  -0.55341  -0.55179  -0.52767
 Alpha  occ. eigenvalues --   -0.52615  -0.52530  -0.52186  -0.50004  -0.49787
 Alpha  occ. eigenvalues --   -0.48035  -0.47726  -0.46672  -0.46517  -0.45834
 Alpha  occ. eigenvalues --   -0.45733  -0.45695  -0.45586  -0.43807  -0.43710
 Alpha virt. eigenvalues --    0.22284   0.22920   0.23749   0.24642   0.26123
 Alpha virt. eigenvalues --    0.26559   0.27169   0.27428   0.27847   0.29025
 Alpha virt. eigenvalues --    0.30802   0.31013   0.31445   0.31818   0.32148

 Mulliken charges:
               1
     1  C   -0.298422
     2  C   -0.300360
     3  C   -0.478928
     4  H    0.150042
     5  H    0.149511
     6  H    0.152279
     7  H    0.151889
     8  H    0.155102
     9  H    0.158000
    10  H    0.160704
    11  C   -0.298337
    12  C   -0.299655
    13  C   -0.475724
    14  H    0.149617
    15  H    0.149639
    16  H    0.152053
    17  H    0.151931
    18  H    0.155171
    19  H    0.155224
    20  H    0.160314
    21  C   -0.298592
    22  C   -0.298729
    23  C   -0.486620
    24  H    0.149392
    25  H    0.149871
    26  H    0.151247
    27  H    0.151089
    28  H    0.170263
    29  H    0.153848
    30  H    0.158837
    31  C   -0.298193
    32  C   -0.299591
    33  C   -0.475653
    34  H    0.149416
    35  H    0.149399
    36  H    0.151855
    37  H    0.151805
    38  H    0.155071
    39  H    0.155137
    40  H    0.160096
 Sum of Mulliken charges =  -0.00000

 Dipole moment (field-independent basis, Debye):
    X=              0.0603    Y=             -0.0170    Z=              0.0181  Tot=              0.0652
 Quadrupole moment (field-independent basis, Debye-Ang):
   XX=            -86.4224   YY=            -84.3536   ZZ=            -84.2514
   XY=             -0.3623   XZ=             -0.4626   YZ=              0.5752

 Normal termination of Gaussian 16 at Wed May  5 15:15:25 2021.
