 Gaussian 16, Revision A.03,
 Gaussian 16:  EM64L-G16RevA.03 25-Dec-2016

 -------------
 #p 6-31g* mp2
 -------------

 ------------------------------------------------------
 Input file generated by CHIRIPA (05-May-2021 14:55:20)
 ------------------------------------------------------
 Symbolic Z-matrix:
 Charge =  0 Multiplicity = 1

                         Standard orientation:
 ---------------------------------------------------------------------
 Center     Atomic      Atomic             Coordinates (Angstroms)
 Number     Number       Type             X           Y           Z
 ---------------------------------------------------------------------
      1          6           0       -0.976997    0.856212    1.300535
      2          6           0       -0.846212   -0.170186    0.359300
      3          6           0       -1.975328   -0.711245   -0.262715
      4          6           0       -3.225528   -0.199791    0.081823
      5          6           0       -3.388436    0.822300    1.015676
      6          6           0       -2.245455    1.348311    1.625147
      7          1           0       -0.094488    1.270674    1.778858
      8          1           0        0.137631   -0.554315    0.105248
      9          1           0       -1.902848   -1.506320   -0.994849
     10          1           0       -4.382431    1.184593    1.248346
     11          1           0       -2.350040    2.145376    2.355760
     12          7           0       -4.428211   -0.764621   -0.570036
     13          8           0       -5.518451   -0.296616   -0.249122
     14          8           0       -4.257861   -1.664643   -1.389534
     15          6           0        3.372736    0.544574   -0.648134
     16          6           0        3.475955    2.050364   -0.403329
     17          6           0        2.464793    2.853125   -1.222427
     18          1           0        3.521919    0.342326   -1.717613
     19          1           0        2.354662    0.209673   -0.405731
     20          1           0        4.493927    2.382083   -0.644803
     21          1           0        3.326699    2.249033    0.665722
     22          1           0        1.442022    2.550473   -0.975560
     23          1           0        2.615883    2.684279   -2.293531
     24          1           0        2.556110    3.927036   -1.032066
     25          6           0        4.377179   -0.271422    0.163636
     26          6           0        4.273961   -1.777211   -0.081170
     27          6           0        5.285123   -2.579973    0.737928
     28          1           0        5.395254    0.063480   -0.078767
     29          1           0        4.227996   -0.069174    1.233115
     30          1           0        4.423216   -1.975880   -1.150221
     31          1           0        3.255989   -2.108930    0.160305
     32          1           0        5.134032   -2.411127    1.809033
     33          1           0        6.307893   -2.277320    0.491061
     34          1           0        5.193805   -3.653884    0.547568
 ---------------------------------------------------------------------

 SCF Done:  E(RHF) =  -669.535575571     A.U. after   15 cycles
 E2 =    -0.2091680933D+01 EUMP2 =    -0.67162725650431D+03

 The electronic state is 1-A.
 Alpha  occ. eigenvalues --  -20.60769 -20.60764 -15.85822 -11.31203 -11.27771
 Alpha  occ. eigenvalues --  -11.27765 -11.27527 -11.26791 -11.26776 -11.22509
 Alpha  occ. eigenvalues --  -11.22417 -11.22400 -11.22232 -11.21830 -11.21699
 Alpha  occ. eigenvalues --   -1.59844  -1.39397  -1.19376  -1.09328  -1.08771
 Alpha  occ. eigenvalues --   -1.04780  -1.04335  -0.96775  -0.95602  -0.87784
 Alpha  occ. eigenvalues --   -0.86183  -0.82433  -0.80402  -0.79158  -0.77475
 Alpha  occ. eigenvalues --   -0.72041  -0.71167  -0.70486  -0.66026  -0.65028
 Alpha  occ. eigenvalues --   -0.64759  -0.62141  -0.61724  -0.60139  -0.58385
 Alpha  occ. eigenvalues --   -0.56081  -0.55276  -0.53434  -0.53214  -0.53104
 Alpha  occ. eigenvalues --   -0.52863  -0.50712  -0.48809  -0.48795  -0.48702
 Alpha  occ. eigenvalues --   -0.47452  -0.46663  -0.46613  -0.44799  -0.44615
 Alpha  occ. eigenvalues --   -0.37356  -0.36376
 Alpha virt. eigenvalues --    0.05047   0.11181   0.16518   0.18639   0.22923
 Alpha virt. eigenvalues --    0.23230   0.24488   0.26001   0.27158   0.28232
 Alpha virt. eigenvalues --    0.29204   0.30883   0.30930   0.31185   0.31948

 Mulliken charges:
               1
     1  C   -0.173441
     2  C   -0.224510
     3  C   -0.171734
     4  C    0.159035
     5  C   -0.171043
     6  C   -0.218491
     7  H    0.225931
     8  H    0.231969
     9  H    0.276359
    10  H    0.275742
    11  H    0.223629
    12  N    0.487948
    13  O   -0.460370
    14  O   -0.460214
    15  C   -0.302983
    16  C   -0.300027
    17  C   -0.477906
    18  H    0.154749
    19  H    0.141186
    20  H    0.156394
    21  H    0.147793
    22  H    0.153801
    23  H    0.158894
    24  H    0.162616
    25  C   -0.298328
    26  C   -0.299694
    27  C   -0.476113
    28  H    0.153593
    29  H    0.148212
    30  H    0.154765
    31  H    0.146531
    32  H    0.155496
    33  H    0.157300
    34  H    0.162910
 Sum of Mulliken charges =  -0.00000

 Dipole moment (field-independent basis, Debye):
    X=              4.4123    Y=              2.0022    Z=              2.2367  Tot=              5.3366
 Quadrupole moment (field-independent basis, Debye-Ang):
   XX=           -119.8287   YY=            -94.3288   ZZ=            -93.1726
   XY=             -8.9239   XZ=             -9.9716   YZ=              1.8781

 Normal termination of Gaussian 16 at Wed May  5 17:23:49 2021.
