 Gaussian 16, Revision A.03,
 Gaussian 16:  EM64L-G16RevA.03 25-Dec-2016

 -------------
 #p 6-31g* mp2
 -------------

 ------------------------------------------------------
 Input file generated by CHIRIPA (05-May-2021 14:51:10)
 ------------------------------------------------------
 Symbolic Z-matrix:
 Charge =  0 Multiplicity = 1

                         Standard orientation:
 ---------------------------------------------------------------------
 Center     Atomic      Atomic             Coordinates (Angstroms)
 Number     Number       Type             X           Y           Z
 ---------------------------------------------------------------------
      1          6           0        3.785588   -0.270412    0.347876
      2          6           0        3.449649   -1.528302   -0.453899
      3          6           0        3.940650   -2.808856    0.222039
      4          1           0        4.873093   -0.215883    0.493844
      5          1           0        3.339575   -0.352005    1.348781
      6          1           0        3.894999   -1.443749   -1.453464
      7          1           0        2.362835   -1.579742   -0.598139
      8          1           0        3.486578   -2.920395    1.211978
      9          1           0        5.027447   -2.783630    0.351794
     10          1           0        3.689936   -3.695840   -0.368098
     11          6           0        3.301193    1.017874   -0.315001
     12          6           0        3.637132    2.275764    0.486774
     13          6           0        3.146131    3.556318   -0.189165
     14          1           0        3.747206    1.099466   -1.315906
     15          1           0        2.213689    0.963345   -0.460969
     16          1           0        4.723946    2.327204    0.631014
     17          1           0        3.191782    2.191211    1.486339
     18          1           0        2.059334    3.531091   -0.318919
     19          1           0        3.600203    3.667857   -1.179104
     20          1           0        3.396846    4.443302    0.400972
     21          6           0       -3.064560   -0.895131    0.270432
     22          6           0       -1.782182   -1.055363   -0.546768
     23          6           0       -0.834350   -2.101994    0.039724
     24          1           0       -2.802932   -0.618470    1.300943
     25          1           0       -3.578014   -1.864902    0.327919
     26          1           0       -1.272004   -0.085272   -0.603863
     27          1           0       -2.046899   -1.331488   -1.575504
     28          1           0       -1.320785   -3.081915    0.081434
     29          1           0       -0.541488   -1.828618    1.058595
     30          1           0        0.075841   -2.200309   -0.560066
     31          6           0       -4.022221    0.147670   -0.303307
     32          6           0       -5.304600    0.307901    0.513894
     33          6           0       -6.252431    1.354532   -0.072599
     34          1           0       -3.508768    1.117440   -0.360793
     35          1           0       -4.283849   -0.128991   -1.333818
     36          1           0       -5.039882    0.584027    1.542629
     37          1           0       -5.814776   -0.662189    0.570989
     38          1           0       -6.545294    1.081156   -1.091469
     39          1           0       -5.765996    2.334453   -0.114309
     40          1           0       -7.162621    1.452849    0.527191
 ---------------------------------------------------------------------

 SCF Done:  E(RHF) =  -470.733321283     A.U. after   11 cycles
 E2 =    -0.1582608056D+01 EUMP2 =    -0.47231592933939D+03

 The electronic state is 1-A.
 Alpha  occ. eigenvalues --  -11.21662 -11.21626 -11.21603 -11.21547 -11.21444
 Alpha  occ. eigenvalues --  -11.21392 -11.21383 -11.21330 -11.21127 -11.21089
 Alpha  occ. eigenvalues --  -11.21079 -11.21032  -1.08471  -1.08413  -1.03578
 Alpha  occ. eigenvalues --   -1.03507  -0.96026  -0.95959  -0.87047  -0.86972
 Alpha  occ. eigenvalues --   -0.79659  -0.79555  -0.78281  -0.78230  -0.65119
 Alpha  occ. eigenvalues --   -0.65036  -0.60999  -0.60915  -0.59449  -0.59270
 Alpha  occ. eigenvalues --   -0.57661  -0.57545  -0.55307  -0.55249  -0.52755
 Alpha  occ. eigenvalues --   -0.52645  -0.52458  -0.52375  -0.49974  -0.49886
 Alpha  occ. eigenvalues --   -0.48020  -0.47837  -0.46684  -0.46576  -0.45823
 Alpha  occ. eigenvalues --   -0.45772  -0.45746  -0.45686  -0.43805  -0.43745
 Alpha virt. eigenvalues --    0.20969   0.23140   0.23747   0.24590   0.26184
 Alpha virt. eigenvalues --    0.26710   0.27028   0.27509   0.27982   0.29026
 Alpha virt. eigenvalues --    0.30070   0.31331   0.31708   0.31852   0.32042

 Mulliken charges:
               1
     1  C   -0.297532
     2  C   -0.307729
     3  C   -0.475213
     4  H    0.149550
     5  H    0.149427
     6  H    0.151546
     7  H    0.159377
     8  H    0.155533
     9  H    0.154978
    10  H    0.160027
    11  C   -0.298663
    12  C   -0.299647
    13  C   -0.475625
    14  H    0.149559
    15  H    0.149588
    16  H    0.152045
    17  H    0.151769
    18  H    0.154857
    19  H    0.155283
    20  H    0.160231
    21  C   -0.298497
    22  C   -0.299558
    23  C   -0.482154
    24  H    0.149593
    25  H    0.149798
    26  H    0.151529
    27  H    0.152377
    28  H    0.155878
    29  H    0.154763
    30  H    0.166552
    31  C   -0.298291
    32  C   -0.299686
    33  C   -0.475733
    34  H    0.149494
    35  H    0.149806
    36  H    0.151945
    37  H    0.152001
    38  H    0.155248
    39  H    0.155234
    40  H    0.160342
 Sum of Mulliken charges =  -0.00000

 Dipole moment (field-independent basis, Debye):
    X=             -0.0243    Y=             -0.0145    Z=             -0.0032  Tot=              0.0284
 Quadrupole moment (field-independent basis, Debye-Ang):
   XX=            -84.5039   YY=            -85.7917   ZZ=            -84.4450
   XY=              1.3002   XZ=             -0.5108   YZ=              0.9736

 Normal termination of Gaussian 16 at Wed May  5 15:11:42 2021.
