 Gaussian 16, Revision A.03,
 Gaussian 16:  EM64L-G16RevA.03 25-Dec-2016

 -------------
 #p 6-31g* mp2
 -------------

 ------------------------------------------------------
 Input file generated by CHIRIPA (05-May-2021 14:53:17)
 ------------------------------------------------------
 Symbolic Z-matrix:
 Charge =  0 Multiplicity = 1

                         Standard orientation:
 ---------------------------------------------------------------------
 Center     Atomic      Atomic             Coordinates (Angstroms)
 Number     Number       Type             X           Y           Z
 ---------------------------------------------------------------------
      1          6           0       -3.462775    0.893083   -0.293815
      2          6           0       -3.812889    1.806849    0.881104
      3          6           0       -3.486371    3.274995    0.605916
      4          1           0       -2.393385    0.995496   -0.523731
      5          1           0       -4.008035    1.229873   -1.186373
      6          1           0       -3.268196    1.467596    1.771516
      7          1           0       -4.881530    1.702106    1.108373
      8          1           0       -4.040809    3.636004   -0.266364
      9          1           0       -2.418308    3.400161    0.400547
     10          1           0       -3.744589    3.910393    1.458824
     11          6           0       -3.783419   -0.577747   -0.033868
     12          6           0       -3.433305   -1.491514   -1.208788
     13          6           0       -3.759823   -2.959659   -0.933599
     14          1           0       -3.238159   -0.914537    0.858690
     15          1           0       -4.852809   -0.680160    0.196048
     16          1           0       -2.364664   -1.386770   -1.436057
     17          1           0       -3.977998   -1.152260   -2.099199
     18          1           0       -4.827886   -3.084825   -0.728230
     19          1           0       -3.205385   -3.320668   -0.061320
     20          1           0       -3.501605   -3.595057   -1.786508
     21          6           0        0.971107   -1.334445    1.328521
     22          6           0        0.670752   -0.302332    0.433507
     23          6           0        1.692950    0.375710   -0.237251
     24          6           0        3.010308   -0.006077    0.011939
     25          6           0        3.341598   -1.030206    0.897772
     26          6           0        2.303223   -1.694454    1.557393
     27          1           0        0.170755   -1.855807    1.845257
     28          1           0       -0.362875   -0.020608    0.253805
     29          1           0        1.488694    1.178437   -0.935340
     30          1           0        4.381579   -1.288527    1.056286
     31          1           0        2.539446   -2.495619    2.251927
     32          7           0        4.101027    0.704434   -0.692267
     33          8           0        5.253506    0.349070   -0.455320
     34          8           0        3.782799    1.603244   -1.467838
 ---------------------------------------------------------------------

 SCF Done:  E(RHF) =  -669.535414136     A.U. after   15 cycles
 E2 =    -0.2091783999D+01 EUMP2 =    -0.67162719813470D+03

 The electronic state is 1-A.
 Alpha  occ. eigenvalues --  -20.60761 -20.60756 -15.85815 -11.31188 -11.27761
 Alpha  occ. eigenvalues --  -11.27756 -11.27508 -11.26775 -11.26749 -11.22497
 Alpha  occ. eigenvalues --  -11.22458 -11.22410 -11.22369 -11.21861 -11.21716
 Alpha  occ. eigenvalues --   -1.59837  -1.39390  -1.19362  -1.09388  -1.08755
 Alpha  occ. eigenvalues --   -1.04768  -1.04361  -0.96815  -0.95590  -0.87820
 Alpha  occ. eigenvalues --   -0.86168  -0.82425  -0.80422  -0.79206  -0.77470
 Alpha  occ. eigenvalues --   -0.72034  -0.71160  -0.70474  -0.66169  -0.65015
 Alpha  occ. eigenvalues --   -0.64687  -0.62104  -0.61765  -0.60170  -0.58416
 Alpha  occ. eigenvalues --   -0.56128  -0.55265  -0.53455  -0.53234  -0.53094
 Alpha  occ. eigenvalues --   -0.52847  -0.50763  -0.48796  -0.48788  -0.48729
 Alpha  occ. eigenvalues --   -0.47476  -0.46706  -0.46683  -0.44794  -0.44654
 Alpha  occ. eigenvalues --   -0.37344  -0.36369
 Alpha virt. eigenvalues --    0.05068   0.11233   0.16540   0.18083   0.23105
 Alpha virt. eigenvalues --    0.23346   0.24991   0.25646   0.26998   0.28513
 Alpha virt. eigenvalues --    0.29455   0.30664   0.31220   0.31375   0.31644

 Mulliken charges:
               1
     1  C   -0.302403
     2  C   -0.300394
     3  C   -0.475916
     4  H    0.141537
     5  H    0.156264
     6  H    0.149813
     7  H    0.155510
     8  H    0.157870
     9  H    0.154595
    10  H    0.163551
    11  C   -0.299444
    12  C   -0.301752
    13  C   -0.475002
    14  H    0.141840
    15  H    0.155160
    16  H    0.149400
    17  H    0.156605
    18  H    0.157825
    19  H    0.151158
    20  H    0.164149
    21  C   -0.172904
    22  C   -0.228076
    23  C   -0.173508
    24  C    0.158833
    25  C   -0.171047
    26  C   -0.218402
    27  H    0.225785
    28  H    0.237022
    29  H    0.275548
    30  H    0.275670
    31  H    0.223432
    32  N    0.488106
    33  O   -0.460502
    34  O   -0.460322
 Sum of Mulliken charges =  -0.00000

 Dipole moment (field-independent basis, Debye):
    X=             -4.0658    Y=             -2.4701    Z=              2.4322  Tot=              5.3430
 Quadrupole moment (field-independent basis, Debye-Ang):
   XX=           -114.0064   YY=            -94.3881   ZZ=            -94.0212
   XY=            -10.2947   XZ=              9.8952   YZ=             -1.5215

 Normal termination of Gaussian 16 at Thu May  6 06:00:28 2021.
