 Gaussian 16, Revision A.03,
 Gaussian 16:  EM64L-G16RevA.03 25-Dec-2016

 -------------
 #p 6-31g* mp2
 -------------

 ------------------------------------------------------
 Input file generated by CHIRIPA (05-May-2021 14:51:11)
 ------------------------------------------------------
 Symbolic Z-matrix:
 Charge =  0 Multiplicity = 1

                         Standard orientation:
 ---------------------------------------------------------------------
 Center     Atomic      Atomic             Coordinates (Angstroms)
 Number     Number       Type             X           Y           Z
 ---------------------------------------------------------------------
      1          6           0        5.116347   -0.665308   -0.116017
      2          6           0        6.576625   -0.450338    0.283186
      3          6           0        7.398909   -1.738415    0.233169
      4          1           0        4.667299   -1.414768    0.550025
      5          1           0        5.078931   -1.086147   -1.130359
      6          1           0        6.611229   -0.028739    1.295941
      7          1           0        7.022194    0.298837   -0.383762
      8          1           0        7.394171   -2.159485   -0.777414
      9          1           0        6.980871   -2.488922    0.911832
     10          1           0        8.439634   -1.561811    0.522240
     11          6           0        4.281466    0.613234   -0.070942
     12          6           0        2.821189    0.398264   -0.470144
     13          6           0        1.998904    1.686341   -0.420128
     14          1           0        4.318882    1.034073    0.943401
     15          1           0        4.730514    1.362694   -0.736983
     16          1           0        2.375619   -0.350911    0.196804
     17          1           0        2.786584   -0.023335   -1.482899
     18          1           0        2.416943    2.436848   -1.098791
     19          1           0        2.003643    2.107411    0.590456
     20          1           0        0.958179    1.509737   -0.709198
     21          6           0       -5.206391   -0.355366   -0.331284
     22          6           0       -6.358849   -0.943632    0.483435
     23          6           0       -7.365827   -1.703700   -0.380327
     24          1           0       -5.613995    0.316574   -1.098943
     25          1           0       -4.693350   -1.166475   -0.866341
     26          1           0       -6.868705   -0.131827    1.017887
     27          1           0       -5.948444   -1.614101    1.249368
     28          1           0       -6.877183   -2.532684   -0.902450
     29          1           0       -7.802673   -1.041989   -1.135247
     30          1           0       -8.181229   -2.115831    0.222275
     31          6           0       -4.191423    0.407440    0.518242
     32          6           0       -3.038963    0.995706   -0.296477
     33          6           0       -2.031986    1.755774    0.567285
     34          1           0       -4.704463    1.218548    1.053300
     35          1           0       -3.783819   -0.264500    1.285902
     36          1           0       -3.449370    1.666174   -1.062410
     37          1           0       -2.529108    0.183902   -0.830928
     38          1           0       -1.595140    1.094063    1.322206
     39          1           0       -2.520631    2.584758    1.089408
     40          1           0       -1.216585    2.167905   -0.035317
 ---------------------------------------------------------------------

 SCF Done:  E(RHF) =  -470.733147145     A.U. after   11 cycles
 E2 =    -0.1582147139D+01 EUMP2 =    -0.47231529428469D+03

 The electronic state is 1-A.
 Alpha  occ. eigenvalues --  -11.21596 -11.21596 -11.21590 -11.21587 -11.21396
 Alpha  occ. eigenvalues --  -11.21396 -11.21337 -11.21336 -11.21068 -11.21067
 Alpha  occ. eigenvalues --  -11.21022 -11.21012  -1.08424  -1.08415  -1.03537
 Alpha  occ. eigenvalues --   -1.03498  -0.96014  -0.95920  -0.87058  -0.86911
 Alpha  occ. eigenvalues --   -0.79624  -0.79537  -0.78236  -0.78230  -0.65056
 Alpha  occ. eigenvalues --   -0.65044  -0.60936  -0.60894  -0.59620  -0.59125
 Alpha  occ. eigenvalues --   -0.57703  -0.57443  -0.55284  -0.55216  -0.53000
 Alpha  occ. eigenvalues --   -0.52473  -0.52424  -0.52183  -0.49934  -0.49870
 Alpha  occ. eigenvalues --   -0.47953  -0.47836  -0.46628  -0.46599  -0.45778
 Alpha  occ. eigenvalues --   -0.45772  -0.45703  -0.45698  -0.43956  -0.43556
 Alpha virt. eigenvalues --    0.22108   0.23011   0.23507   0.24976   0.26608
 Alpha virt. eigenvalues --    0.26691   0.26997   0.27486   0.27553   0.28887
 Alpha virt. eigenvalues --    0.30193   0.31300   0.31518   0.31810   0.32031

 Mulliken charges:
               1
     1  C   -0.298226
     2  C   -0.299625
     3  C   -0.475692
     4  H    0.149554
     5  H    0.149462
     6  H    0.151945
     7  H    0.151944
     8  H    0.155157
     9  H    0.155140
    10  H    0.160244
    11  C   -0.298569
    12  C   -0.299254
    13  C   -0.480484
    14  H    0.149590
    15  H    0.149628
    16  H    0.151811
    17  H    0.151640
    18  H    0.154661
    19  H    0.155757
    20  H    0.165528
    21  C   -0.298272
    22  C   -0.299645
    23  C   -0.475699
    24  H    0.149638
    25  H    0.149489
    26  H    0.151927
    27  H    0.151906
    28  H    0.155169
    29  H    0.155177
    30  H    0.160229
    31  C   -0.298228
    32  C   -0.300167
    33  C   -0.480360
    34  H    0.149610
    35  H    0.149575
    36  H    0.151899
    37  H    0.151663
    38  H    0.154967
    39  H    0.155033
    40  H    0.165876
 Sum of Mulliken charges =  -0.00000

 Dipole moment (field-independent basis, Debye):
    X=              0.0012    Y=              0.0107    Z=              0.0016  Tot=              0.0109
 Quadrupole moment (field-independent basis, Debye-Ang):
   XX=            -85.7446   YY=            -85.0466   ZZ=            -84.0522
   XY=             -0.2935   XZ=             -0.5567   YZ=             -0.5887

 Normal termination of Gaussian 16 at Wed May  5 23:05:44 2021.
