 Gaussian 16, Revision A.03,
 Gaussian 16:  EM64L-G16RevA.03 25-Dec-2016

 -------------
 #p 6-31g* mp2
 -------------

 ------------------------------------------------------
 Input file generated by CHIRIPA (05-May-2021 14:55:18)
 ------------------------------------------------------
 Symbolic Z-matrix:
 Charge =  0 Multiplicity = 1

                         Standard orientation:
 ---------------------------------------------------------------------
 Center     Atomic      Atomic             Coordinates (Angstroms)
 Number     Number       Type             X           Y           Z
 ---------------------------------------------------------------------
      1          6           0        0.594981   -1.859348    1.949318
      2          6           0        0.988143   -0.536434    2.177006
      3          6           0        1.682574    0.176846    1.195402
      4          6           0        1.968543   -0.466622   -0.007703
      5          6           0        1.590317   -1.783551   -0.264478
      6          6           0        0.896791   -2.477595    0.731450
      7          1           0        0.055882   -2.405969    2.717415
      8          1           0        0.755116   -0.053752    3.121867
      9          1           0        1.998851    1.201993    1.345266
     10          1           0        1.836968   -2.237918   -1.216388
     11          1           0        0.592705   -3.504884    0.551857
     12          7           0        2.703227    0.278313   -1.054465
     13          8           0        2.943044   -0.311204   -2.105938
     14          8           0        3.025344    1.437604   -0.803625
     15          6           0       -2.972049    0.297467   -0.134787
     16          6           0       -2.921656   -0.933941   -1.039818
     17          6           0       -4.143510   -1.838389   -0.875985
     18          1           0       -3.051839   -0.027452    0.911638
     19          1           0       -3.884456    0.868742   -0.355131
     20          1           0       -2.008919   -1.501986   -0.818794
     21          1           0       -2.841783   -0.606054   -2.084197
     22          1           0       -5.061727   -1.292691   -1.116180
     23          1           0       -4.224130   -2.193715    0.156412
     24          1           0       -4.086836   -2.712497   -1.532175
     25          6           0       -1.757444    1.211388   -0.287142
     26          6           0       -1.807837    2.442796    0.617889
     27          6           0       -0.585983    3.347244    0.454057
     28          1           0       -0.845036    0.640112   -0.066797
     29          1           0       -1.677653    1.536306   -1.333567
     30          1           0       -1.887709    2.114909    1.662268
     31          1           0       -2.720573    3.010841    0.396866
     32          1           0       -0.505362    3.702568   -0.578341
     33          1           0        0.332234    2.801546    0.694251
     34          1           0       -0.642656    4.221351    1.110246
 ---------------------------------------------------------------------

 SCF Done:  E(RHF) =  -669.534404904     A.U. after   15 cycles
 E2 =    -0.2095785522D+01 EUMP2 =    -0.67163019042667D+03

 The electronic state is 1-A.
 Alpha  occ. eigenvalues --  -20.60870 -20.60860 -15.85916 -11.31331 -11.27946
 Alpha  occ. eigenvalues --  -11.27907 -11.27695 -11.26977 -11.26943 -11.21720
 Alpha  occ. eigenvalues --  -11.21656 -11.21482 -11.21315 -11.21248 -11.21011
 Alpha  occ. eigenvalues --   -1.59936  -1.39488  -1.19556  -1.08917  -1.08487
 Alpha  occ. eigenvalues --   -1.04967  -1.03618  -0.96059  -0.95742  -0.87075
 Alpha  occ. eigenvalues --   -0.86344  -0.82569  -0.79680  -0.78307  -0.77609
 Alpha  occ. eigenvalues --   -0.72136  -0.71260  -0.70650  -0.65196  -0.65163
 Alpha  occ. eigenvalues --   -0.64948  -0.62346  -0.61016  -0.59434  -0.57669
 Alpha  occ. eigenvalues --   -0.55530  -0.55300  -0.53379  -0.53060  -0.52748
 Alpha  occ. eigenvalues --   -0.52424  -0.49991  -0.48901  -0.48889  -0.47997
 Alpha  occ. eigenvalues --   -0.46743  -0.45824  -0.45652  -0.44853  -0.43847
 Alpha  occ. eigenvalues --   -0.37501  -0.36490
 Alpha virt. eigenvalues --    0.04884   0.10987   0.16351   0.20787   0.22937
 Alpha virt. eigenvalues --    0.23979   0.26265   0.26683   0.27029   0.27866
 Alpha virt. eigenvalues --    0.28747   0.30194   0.31456   0.31646   0.31889

 Mulliken charges:
               1
     1  C   -0.171333
     2  C   -0.216178
     3  C   -0.177279
     4  C    0.162579
     5  C   -0.171547
     6  C   -0.217233
     7  H    0.226803
     8  H    0.224880
     9  H    0.278104
    10  H    0.276856
    11  H    0.225015
    12  N    0.488725
    13  O   -0.459883
    14  O   -0.460343
    15  C   -0.295822
    16  C   -0.302260
    17  C   -0.475358
    18  H    0.144207
    19  H    0.149648
    20  H    0.150257
    21  H    0.154487
    22  H    0.156741
    23  H    0.151286
    24  H    0.159246
    25  C   -0.306673
    26  C   -0.299129
    27  C   -0.477598
    28  H    0.159087
    29  H    0.152228
    30  H    0.144290
    31  H    0.152625
    32  H    0.162671
    33  H    0.152214
    34  H    0.158686
 Sum of Mulliken charges =  -0.00000

 Dipole moment (field-independent basis, Debye):
    X=             -2.4185    Y=             -2.6433    Z=              3.6228  Tot=              5.0952
 Quadrupole moment (field-independent basis, Debye-Ang):
   XX=           -106.5324   YY=            -89.5263   ZZ=            -92.8726
   XY=             -4.7871   XZ=              7.9489   YZ=              0.3263

 Normal termination of Gaussian 16 at Thu May  6 12:21:32 2021.
