 Gaussian 16, Revision A.03,
 Gaussian 16:  EM64L-G16RevA.03 25-Dec-2016

 -------------
 #p 6-31g* mp2
 -------------

 ------------------------------------------------------
 Input file generated by CHIRIPA (05-May-2021 14:53:16)
 ------------------------------------------------------
 Symbolic Z-matrix:
 Charge =  0 Multiplicity = 1

                         Standard orientation:
 ---------------------------------------------------------------------
 Center     Atomic      Atomic             Coordinates (Angstroms)
 Number     Number       Type             X           Y           Z
 ---------------------------------------------------------------------
      1          6           0        5.336078    0.263283   -0.186819
      2          6           0        5.825187   -1.153233   -0.490531
      3          6           0        7.271653   -1.185887   -0.984964
      4          1           0        5.429612    0.878633   -1.092104
      5          1           0        5.993033    0.716490    0.568435
      6          1           0        5.166683   -1.604134   -1.243974
      7          1           0        5.730299   -1.765333    0.415530
      8          1           0        7.945214   -0.760771   -0.233837
      9          1           0        7.378396   -0.598656   -1.902770
     10          1           0        7.600791   -2.208126   -1.196046
     11          6           0        3.891776    0.312325    0.308472
     12          6           0        3.402667    1.728841    0.612184
     13          6           0        1.956201    1.761495    1.106617
     14          1           0        3.234821   -0.140883   -0.446782
     15          1           0        3.798242   -0.303025    1.213757
     16          1           0        3.497555    2.340941   -0.293877
     17          1           0        4.061171    2.179742    1.365627
     18          1           0        1.849457    1.174264    2.024423
     19          1           0        1.282639    1.336379    0.355490
     20          1           0        1.627063    2.783733    1.317700
     21          6           0       -1.229176   -0.656718    0.685028
     22          6           0       -1.485999    0.210954   -0.381607
     23          6           0       -2.798217    0.457657   -0.796057
     24          6           0       -3.834281   -0.183095   -0.118341
     25          6           0       -3.610629   -1.052870    0.947849
     26          6           0       -2.290440   -1.284753    1.345187
     27          1           0       -0.206717   -0.842606    1.000336
     28          1           0       -0.663778    0.700084   -0.896145
     29          1           0       -3.025478    1.124709   -1.618744
     30          1           0       -4.451019   -1.525817    1.441291
     31          1           0       -2.093968   -1.959088    2.173871
     32          7           0       -5.227686    0.070234   -0.548042
     33          8           0       -6.122934   -0.506632    0.065467
     34          8           0       -5.398207    0.840863   -1.490217
 ---------------------------------------------------------------------

 SCF Done:  E(RHF) =  -669.535125349     A.U. after   15 cycles
 E2 =    -0.2091519366D+01 EUMP2 =    -0.67162664471556D+03

 The electronic state is 1-A.
 Alpha  occ. eigenvalues --  -20.60712 -20.60707 -15.85766 -11.31116 -11.27692
 Alpha  occ. eigenvalues --  -11.27689 -11.27393 -11.26692 -11.26680 -11.22554
 Alpha  occ. eigenvalues --  -11.22331 -11.22278 -11.22235 -11.22098 -11.21584
 Alpha  occ. eigenvalues --   -1.59788  -1.39342  -1.19290  -1.09266  -1.08683
 Alpha  occ. eigenvalues --   -1.04698  -1.04358  -0.96830  -0.95519  -0.87849
 Alpha  occ. eigenvalues --   -0.86096  -0.82356  -0.80434  -0.79061  -0.77411
 Alpha  occ. eigenvalues --   -0.71985  -0.71112  -0.70390  -0.65907  -0.64945
 Alpha  occ. eigenvalues --   -0.64737  -0.62120  -0.61694  -0.60193  -0.58420
 Alpha  occ. eigenvalues --   -0.56135  -0.55182  -0.53501  -0.53297  -0.52983
 Alpha  occ. eigenvalues --   -0.52774  -0.50762  -0.48767  -0.48741  -0.48711
 Alpha  occ. eigenvalues --   -0.47456  -0.46603  -0.46509  -0.44751  -0.44598
 Alpha  occ. eigenvalues --   -0.37250  -0.36298
 Alpha virt. eigenvalues --    0.05129   0.11303   0.16618   0.19642   0.22439
 Alpha virt. eigenvalues --    0.23870   0.25190   0.26067   0.26927   0.27275
 Alpha virt. eigenvalues --    0.29380   0.30083   0.30822   0.31523   0.31889

 Mulliken charges:
               1
     1  C   -0.298615
     2  C   -0.300217
     3  C   -0.476166
     4  H    0.151397
     5  H    0.151737
     6  H    0.151842
     7  H    0.151944
     8  H    0.156237
     9  H    0.156255
    10  H    0.161874
    11  C   -0.298971
    12  C   -0.300096
    13  C   -0.479599
    14  H    0.145103
    15  H    0.148630
    16  H    0.154462
    17  H    0.156283
    18  H    0.154824
    19  H    0.146306
    20  H    0.167426
    21  C   -0.170770
    22  C   -0.220566
    23  C   -0.171290
    24  C    0.158295
    25  C   -0.170911
    26  C   -0.219249
    27  H    0.228618
    28  H    0.224638
    29  H    0.275364
    30  H    0.275325
    31  H    0.223113
    32  N    0.488060
    33  O   -0.460625
    34  O   -0.460657
 Sum of Mulliken charges =  -0.00000

 Dipole moment (field-independent basis, Debye):
    X=              5.1488    Y=             -0.8303    Z=              1.5503  Tot=              5.4409
 Quadrupole moment (field-independent basis, Debye-Ang):
   XX=           -132.5668   YY=            -92.8494   ZZ=            -92.1211
   XY=              4.0636   XZ=             -7.0845   YZ=             -2.8380

 Normal termination of Gaussian 16 at Thu May  6 13:54:24 2021.
