 Gaussian 16, Revision A.03,
 Gaussian 16:  EM64L-G16RevA.03 25-Dec-2016

 -------------
 #p 6-31g* mp2
 -------------

 ------------------------------------------------------
 Input file generated by CHIRIPA (05-May-2021 14:51:11)
 ------------------------------------------------------
 Symbolic Z-matrix:
 Charge =  0 Multiplicity = 1

                         Standard orientation:
 ---------------------------------------------------------------------
 Center     Atomic      Atomic             Coordinates (Angstroms)
 Number     Number       Type             X           Y           Z
 ---------------------------------------------------------------------
      1          6           0       -3.067563    1.379804   -0.108063
      2          6           0       -1.654476    1.886485    0.182527
      3          6           0       -1.510525    3.393192   -0.034057
      4          1           0       -3.334073    1.629870   -1.144106
      5          1           0       -3.780520    1.913468    0.535590
      6          1           0       -0.944246    1.351039   -0.460503
      7          1           0       -1.391227    1.635014    1.217939
      8          1           0       -2.196393    3.943412    0.618204
      9          1           0       -1.746872    3.657824   -1.069775
     10          1           0       -0.492610    3.734019    0.179356
     11          6           0       -3.227256   -0.124617    0.103942
     12          6           0       -4.640344   -0.631298   -0.186648
     13          6           0       -4.784295   -2.138005    0.029936
     14          1           0       -2.514299   -0.658281   -0.539712
     15          1           0       -2.960747   -0.374683    1.139984
     16          1           0       -4.903593   -0.379827   -1.222060
     17          1           0       -5.350573   -0.095852    0.456382
     18          1           0       -4.547947   -2.402637    1.065653
     19          1           0       -4.098427   -2.688225   -0.622325
     20          1           0       -5.802210   -2.478832   -0.183478
     21          6           0        3.758972   -0.344168    0.361358
     22          6           0        4.923570   -0.031205   -0.578719
     23          6           0        6.139701    0.535071    0.154869
     24          1           0        3.472379    0.571134    0.897113
     25          1           0        4.094722   -1.060546    1.123900
     26          1           0        4.585339    0.683310   -1.340088
     27          1           0        5.207298   -0.947316   -1.112439
     28          1           0        6.504428   -0.176646    0.902555
     29          1           0        5.878934    1.463245    0.673612
     30          1           0        6.960396    0.751640   -0.536085
     31          6           0        2.535848   -0.911019   -0.357238
     32          6           0        1.371248   -1.223982    0.582841
     33          6           0        0.155119   -1.790258   -0.150747
     34          1           0        2.200098   -0.194641   -1.119778
     35          1           0        2.822440   -1.826320   -0.892991
     36          1           0        1.087521   -0.307871    1.116560
     37          1           0        1.709481   -1.938497    1.344210
     38          1           0        0.415885   -2.718433   -0.669491
     39          1           0       -0.209608   -1.078541   -0.898433
     40          1           0       -0.665577   -2.006828    0.540207
 ---------------------------------------------------------------------

 SCF Done:  E(RHF) =  -470.731839585     A.U. after   11 cycles
 E2 =    -0.1584297844D+01 EUMP2 =    -0.47231613742910D+03

 The electronic state is 1-A.
 Alpha  occ. eigenvalues --  -11.21626 -11.21595 -11.21549 -11.21541 -11.21391
 Alpha  occ. eigenvalues --  -11.21365 -11.21332 -11.21227 -11.21103 -11.21066
 Alpha  occ. eigenvalues --  -11.21036 -11.20981  -1.08446  -1.08370  -1.03524
 Alpha  occ. eigenvalues --   -1.03501  -0.96017  -0.95912  -0.87038  -0.86934
 Alpha  occ. eigenvalues --   -0.79656  -0.79531  -0.78267  -0.78164  -0.65167
 Alpha  occ. eigenvalues --   -0.64939  -0.60975  -0.60866  -0.59394  -0.59274
 Alpha  occ. eigenvalues --   -0.57623  -0.57529  -0.55383  -0.55153  -0.52790
 Alpha  occ. eigenvalues --   -0.52640  -0.52398  -0.52287  -0.50001  -0.49857
 Alpha  occ. eigenvalues --   -0.48019  -0.47791  -0.46714  -0.46612  -0.45866
 Alpha  occ. eigenvalues --   -0.45775  -0.45667  -0.45314  -0.43769  -0.43679
 Alpha virt. eigenvalues --    0.20948   0.23068   0.23871   0.24285   0.25357
 Alpha virt. eigenvalues --    0.26323   0.27225   0.27713   0.28029   0.29751
 Alpha virt. eigenvalues --    0.30383   0.30910   0.31544   0.31893   0.32237

 Mulliken charges:
               1
     1  C   -0.298206
     2  C   -0.303518
     3  C   -0.475516
     4  H    0.149059
     5  H    0.149188
     6  H    0.154925
     7  H    0.152304
     8  H    0.155489
     9  H    0.155169
    10  H    0.159718
    11  C   -0.304070
    12  C   -0.298953
    13  C   -0.476207
    14  H    0.159630
    15  H    0.148094
    16  H    0.151421
    17  H    0.151225
    18  H    0.154618
    19  H    0.155734
    20  H    0.160196
    21  C   -0.298232
    22  C   -0.299631
    23  C   -0.475689
    24  H    0.149654
    25  H    0.149519
    26  H    0.151844
    27  H    0.151898
    28  H    0.155172
    29  H    0.155154
    30  H    0.160218
    31  C   -0.298676
    32  C   -0.301648
    33  C   -0.479127
    34  H    0.148983
    35  H    0.149587
    36  H    0.154414
    37  H    0.151594
    38  H    0.153911
    39  H    0.156006
    40  H    0.164749
 Sum of Mulliken charges =  -0.00000

 Dipole moment (field-independent basis, Debye):
    X=             -0.0002    Y=             -0.0147    Z=             -0.0014  Tot=              0.0148
 Quadrupole moment (field-independent basis, Debye-Ang):
   XX=            -85.8194   YY=            -85.2566   ZZ=            -83.9756
   XY=             -1.0252   XZ=             -0.4942   YZ=             -0.0090

 Normal termination of Gaussian 16 at Wed May  5 18:17:03 2021.
