 Gaussian 16, Revision A.03,
 Gaussian 16:  EM64L-G16RevA.03 25-Dec-2016

 -------------
 #p 6-31g* mp2
 -------------

 ------------------------------------------------------
 Input file generated by CHIRIPA (05-May-2021 14:55:22)
 ------------------------------------------------------
 Symbolic Z-matrix:
 Charge =  0 Multiplicity = 1

                         Standard orientation:
 ---------------------------------------------------------------------
 Center     Atomic      Atomic             Coordinates (Angstroms)
 Number     Number       Type             X           Y           Z
 ---------------------------------------------------------------------
      1          6           0       -1.277215    0.873813    2.442786
      2          6           0       -2.205648    1.473163    1.585282
      3          6           0       -2.552791    0.862797    0.376360
      4          6           0       -1.949426   -0.352095    0.054990
      5          6           0       -1.021010   -0.974191    0.888254
      6          6           0       -0.688897   -0.345801    2.092154
      7          1           0       -1.013384    1.354961    3.379955
      8          1           0       -2.664136    2.420309    1.855001
      9          1           0       -3.268556    1.304779   -0.306099
     10          1           0       -0.580737   -1.918587    0.592122
     11          1           0        0.032451   -0.813571    2.756152
     12          7           0       -2.308975   -1.007803   -1.222183
     13          8           0       -1.763251   -2.077927   -1.482293
     14          8           0       -3.129705   -0.439207   -1.938938
     15          6           0        2.430512    1.064676   -0.208214
     16          6           0        1.712345    1.879213   -1.284667
     17          6           0        1.743106    3.382525   -1.007356
     18          1           0        1.967416    1.268648    0.766918
     19          1           0        3.473163    1.403918   -0.136162
     20          1           0        0.671732    1.537592   -1.355628
     21          1           0        2.177081    1.673131   -2.257377
     22          1           0        2.775311    3.743968   -0.957212
     23          1           0        1.261408    3.607659   -0.050338
     24          1           0        1.224051    3.945692   -1.789203
     25          6           0        2.408318   -0.439968   -0.471424
     26          6           0        3.126485   -1.254506    0.605028
     27          6           0        3.095723   -2.757818    0.327718
     28          1           0        1.365668   -0.779210   -0.543476
     29          1           0        2.871414   -0.643941   -1.446556
     30          1           0        2.661749   -1.048425    1.577740
     31          1           0        4.167098   -0.912885    0.675990
     32          1           0        3.577422   -2.982952   -0.629300
     33          1           0        2.063520   -3.119262    0.277573
     34          1           0        3.614780   -3.320984    1.109564
 ---------------------------------------------------------------------

 SCF Done:  E(RHF) =  -669.534868773     A.U. after   15 cycles
 E2 =    -0.2095345365D+01 EUMP2 =    -0.67163021413750D+03

 The electronic state is 1-A.
 Alpha  occ. eigenvalues --  -20.60887 -20.60878 -15.85936 -11.31337 -11.27912
 Alpha  occ. eigenvalues --  -11.27909 -11.27655 -11.26921 -11.26907 -11.21971
 Alpha  occ. eigenvalues --  -11.21621 -11.21486 -11.21417 -11.21395 -11.21189
 Alpha  occ. eigenvalues --   -1.59957  -1.39509  -1.19524  -1.08902  -1.08586
 Alpha  occ. eigenvalues --   -1.04928  -1.03724  -0.96159  -0.95731  -0.87180
 Alpha  occ. eigenvalues --   -0.86323  -0.82557  -0.79784  -0.78386  -0.77604
 Alpha  occ. eigenvalues --   -0.72151  -0.71285  -0.70630  -0.65312  -0.65142
 Alpha  occ. eigenvalues --   -0.64913  -0.62295  -0.61090  -0.59528  -0.57764
 Alpha  occ. eigenvalues --   -0.55502  -0.55413  -0.53215  -0.53029  -0.52862
 Alpha  occ. eigenvalues --   -0.52567  -0.50123  -0.48915  -0.48906  -0.48099
 Alpha  occ. eigenvalues --   -0.46834  -0.45910  -0.45866  -0.44879  -0.43946
 Alpha  occ. eigenvalues --   -0.37457  -0.36448
 Alpha virt. eigenvalues --    0.04908   0.10993   0.16322   0.19508   0.23012
 Alpha virt. eigenvalues --    0.23571   0.25552   0.25848   0.27500   0.28309
 Alpha virt. eigenvalues --    0.28814   0.29804   0.31334   0.31547   0.32238

 Mulliken charges:
               1
     1  C   -0.171555
     2  C   -0.218154
     3  C   -0.171119
     4  C    0.160816
     5  C   -0.175592
     6  C   -0.218179
     7  H    0.226666
     8  H    0.224381
     9  H    0.276465
    10  H    0.279536
    11  H    0.225841
    12  N    0.488060
    13  O   -0.460536
    14  O   -0.459575
    15  C   -0.298368
    16  C   -0.300013
    17  C   -0.475503
    18  H    0.146338
    19  H    0.148389
    20  H    0.153296
    21  H    0.154498
    22  H    0.154852
    23  H    0.151151
    24  H    0.161427
    25  C   -0.302201
    26  C   -0.301578
    27  C   -0.476515
    28  H    0.154191
    29  H    0.153710
    30  H    0.141305
    31  H    0.154277
    32  H    0.161157
    33  H    0.152839
    34  H    0.159694
 Sum of Mulliken charges =  -0.00000

 Dipole moment (field-independent basis, Debye):
    X=              1.1895    Y=              2.2856    Z=              4.4184  Tot=              5.1148
 Quadrupole moment (field-independent basis, Debye-Ang):
   XX=            -97.3390   YY=            -95.2073   ZZ=            -94.3067
   XY=             -7.7795   XZ=             -8.8163   YZ=             -2.3056

 Normal termination of Gaussian 16 at Thu May  6 12:32:35 2021.
