 Gaussian 16, Revision A.03,
 Gaussian 16:  EM64L-G16RevA.03 25-Dec-2016

 -------------
 #p 6-31g* mp2
 -------------

 ------------------------------------------------------
 Input file generated by CHIRIPA (05-May-2021 14:55:25)
 ------------------------------------------------------
 Symbolic Z-matrix:
 Charge =  0 Multiplicity = 1

                         Standard orientation:
 ---------------------------------------------------------------------
 Center     Atomic      Atomic             Coordinates (Angstroms)
 Number     Number       Type             X           Y           Z
 ---------------------------------------------------------------------
      1          6           0       -1.309827    0.424204    2.467130
      2          6           0       -1.437614    1.395917    1.469150
      3          6           0       -1.979718    1.067001    0.223163
      4          6           0       -2.385622   -0.249206    0.008376
      5          6           0       -2.271318   -1.239780    0.982535
      6          6           0       -1.726353   -0.888230    2.221072
      7          1           0       -0.887595    0.688506    3.432149
      8          1           0       -1.114975    2.415966    1.657434
      9          1           0       -2.090130    1.799475   -0.567223
     10          1           0       -2.601801   -2.248238    0.765249
     11          1           0       -1.628315   -1.644950    2.994252
     12          7           0       -2.961039   -0.609396   -1.306751
     13          8           0       -3.311160   -1.776048   -1.470992
     14          8           0       -3.051033    0.281759   -2.148404
     15          6           0        3.272198   -0.363944   -0.603531
     16          6           0        3.559476   -1.485245    0.395540
     17          6           0        4.239807   -2.692596   -0.250409
     18          1           0        2.638676   -0.754798   -1.411509
     19          1           0        4.215246   -0.048093   -1.070750
     20          1           0        2.616348   -1.797939    0.861746
     21          1           0        4.192231   -1.091628    1.201333
     22          1           0        5.194759   -2.401822   -0.699982
     23          1           0        3.609924   -3.112147   -1.041499
     24          1           0        4.435936   -3.482172    0.481687
     25          6           0        2.592216    0.849940    0.027211
     26          6           0        2.304938    1.971240   -0.971860
     27          6           0        1.624607    3.178590   -0.325912
     28          1           0        1.649167    0.534088    0.494431
     29          1           0        3.225738    1.240793    0.835189
     30          1           0        1.672183    1.577623   -1.777653
     31          1           0        3.248065    2.283935   -1.438065
     32          1           0        2.254490    3.598142    0.465179
     33          1           0        0.669654    2.887818    0.123663
     34          1           0        1.428478    3.968167   -1.058006
 ---------------------------------------------------------------------

 SCF Done:  E(RHF) =  -669.535215921     A.U. after   15 cycles
 E2 =    -0.2093027336D+01 EUMP2 =    -0.67162824325693D+03

 The electronic state is 1-A.
 Alpha  occ. eigenvalues --  -20.60849 -20.60844 -15.85904 -11.31297 -11.27871
 Alpha  occ. eigenvalues --  -11.27866 -11.27616 -11.26889 -11.26877 -11.21871
 Alpha  occ. eigenvalues --  -11.21801 -11.21593 -11.21574 -11.21512 -11.21202
 Alpha  occ. eigenvalues --   -1.59925  -1.39477  -1.19482  -1.08869  -1.08645
 Alpha  occ. eigenvalues --   -1.04895  -1.03790  -0.96255  -0.95692  -0.87281
 Alpha  occ. eigenvalues --   -0.86277  -0.82531  -0.79861  -0.78457  -0.77569
 Alpha  occ. eigenvalues --   -0.72121  -0.71250  -0.70571  -0.65304  -0.65124
 Alpha  occ. eigenvalues --   -0.64887  -0.62285  -0.61164  -0.59614  -0.57859
 Alpha  occ. eigenvalues --   -0.55585  -0.55344  -0.53235  -0.53044  -0.52947
 Alpha  occ. eigenvalues --   -0.52615  -0.50193  -0.48883  -0.48874  -0.48171
 Alpha  occ. eigenvalues --   -0.46876  -0.45999  -0.45899  -0.44876  -0.44024
 Alpha  occ. eigenvalues --   -0.37439  -0.36437
 Alpha virt. eigenvalues --    0.04940   0.11118   0.16292   0.20747   0.22764
 Alpha virt. eigenvalues --    0.24106   0.25919   0.26598   0.27302   0.28152
 Alpha virt. eigenvalues --    0.28748   0.30349   0.31381   0.31640   0.32290

 Mulliken charges:
               1
     1  C   -0.171787
     2  C   -0.218042
     3  C   -0.170706
     4  C    0.158067
     5  C   -0.170966
     6  C   -0.218959
     7  H    0.226989
     8  H    0.226371
     9  H    0.276958
    10  H    0.276077
    11  H    0.224197
    12  N    0.488031
    13  O   -0.460159
    14  O   -0.460012
    15  C   -0.298704
    16  C   -0.299485
    17  C   -0.476020
    18  H    0.153067
    19  H    0.149996
    20  H    0.150246
    21  H    0.150195
    22  H    0.155839
    23  H    0.157527
    24  H    0.159394
    25  C   -0.302960
    26  C   -0.299267
    27  C   -0.480149
    28  H    0.152992
    29  H    0.146403
    30  H    0.156595
    31  H    0.153655
    32  H    0.154217
    33  H    0.147474
    34  H    0.162925
 Sum of Mulliken charges =  -0.00000

 Dipole moment (field-independent basis, Debye):
    X=              1.9826    Y=              1.2049    Z=              4.6058  Tot=              5.1571
 Quadrupole moment (field-independent basis, Debye-Ang):
   XX=           -104.5994   YY=            -91.9147   ZZ=            -94.6576
   XY=             -2.1341   XZ=            -11.2483   YZ=             -3.0702

 Normal termination of Gaussian 16 at Thu May  6 01:39:14 2021.
