 Gaussian 16, Revision A.03,
 Gaussian 16:  EM64L-G16RevA.03 25-Dec-2016

 -------------
 #p 6-31g* mp2
 -------------

 ------------------------------------------------------
 Input file generated by CHIRIPA (05-May-2021 14:51:11)
 ------------------------------------------------------
 Symbolic Z-matrix:
 Charge =  0 Multiplicity = 1

                         Standard orientation:
 ---------------------------------------------------------------------
 Center     Atomic      Atomic             Coordinates (Angstroms)
 Number     Number       Type             X           Y           Z
 ---------------------------------------------------------------------
      1          6           0        2.175307   -0.497675    0.129831
      2          6           0        1.446252   -1.438273    1.089904
      3          6           0       -0.075079   -1.327733    0.984433
      4          1           0        1.866319    0.536523    0.334541
      5          1           0        1.861076   -0.719871   -0.899383
      6          1           0        1.762806   -1.215294    2.116885
      7          1           0        1.757157   -2.470335    0.883013
      8          1           0       -0.409624   -1.570662   -0.029306
      9          1           0       -0.403942   -0.308490    1.211577
     10          1           0       -0.576225   -2.008718    1.679395
     11          6           0        3.696873   -0.596613    0.223499
     12          6           0        4.425928    0.343986   -0.736573
     13          6           0        5.947259    0.233445   -0.631102
     14          1           0        4.011104   -0.374417    1.252714
     15          1           0        4.005861   -1.630811    0.018790
     16          1           0        4.115023    1.376047   -0.529682
     17          1           0        4.109374    0.121006   -1.763555
     18          1           0        6.276122   -0.785798   -0.858246
     19          1           0        6.281804    0.476374    0.382637
     20          1           0        6.448405    0.914430   -1.326064
     21          6           0       -3.363668   -0.037033    0.066945
     22          6           0       -3.543336   -1.135536   -0.981385
     23          6           0       -4.401065   -2.297375   -0.479166
     24          1           0       -2.906604   -0.469613    0.967453
     25          1           0       -4.351634    0.338482    0.367456
     26          1           0       -2.555267   -1.507908   -1.280844
     27          1           0       -3.999850   -0.700252   -1.879572
     28          1           0       -5.399253   -1.946081   -0.198424
     29          1           0       -3.946462   -2.758326    0.403706
     30          1           0       -4.516552   -3.071246   -1.244441
     31          6           0       -2.508512    1.131321   -0.420276
     32          6           0       -2.328843    2.229824    0.628054
     33          6           0       -1.471115    3.391663    0.125836
     34          1           0       -1.520547    0.755806   -0.720787
     35          1           0       -2.965577    1.563901   -1.320783
     36          1           0       -1.872330    1.794540    1.526242
     37          1           0       -3.316912    2.602196    0.927513
     38          1           0       -1.925717    3.852614   -0.757037
     39          1           0       -0.472928    3.040369   -0.154906
     40          1           0       -1.355628    4.165535    0.891111
 ---------------------------------------------------------------------

 SCF Done:  E(RHF) =  -470.731528397     A.U. after   11 cycles
 E2 =    -0.1585322148D+01 EUMP2 =    -0.47231685054477D+03

 The electronic state is 1-A.
 Alpha  occ. eigenvalues --  -11.21672 -11.21642 -11.21576 -11.21501 -11.21486
 Alpha  occ. eigenvalues --  -11.21418 -11.21244 -11.21181 -11.21144 -11.21100
 Alpha  occ. eigenvalues --  -11.21065 -11.21000  -1.08522  -1.08327  -1.03602
 Alpha  occ. eigenvalues --   -1.03470  -0.96106  -0.95868  -0.87095  -0.86926
 Alpha  occ. eigenvalues --   -0.79694  -0.79531  -0.78326  -0.78148  -0.65172
 Alpha  occ. eigenvalues --   -0.64999  -0.61187  -0.60731  -0.59423  -0.59276
 Alpha  occ. eigenvalues --   -0.57675  -0.57513  -0.55458  -0.55129  -0.52757
 Alpha  occ. eigenvalues --   -0.52621  -0.52442  -0.52309  -0.50139  -0.49727
 Alpha  occ. eigenvalues --   -0.48005  -0.47856  -0.46770  -0.46538  -0.46009
 Alpha  occ. eigenvalues --   -0.45809  -0.45531  -0.45391  -0.43829  -0.43696
 Alpha virt. eigenvalues --    0.20496   0.22645   0.23338   0.24525   0.25982
 Alpha virt. eigenvalues --    0.26234   0.26624   0.27767   0.28222   0.29795
 Alpha virt. eigenvalues --    0.29948   0.30560   0.31624   0.32228   0.32396

 Mulliken charges:
               1
     1  C   -0.299615
     2  C   -0.300456
     3  C   -0.483660
     4  H    0.149651
     5  H    0.149475
     6  H    0.152086
     7  H    0.152126
     8  H    0.159103
     9  H    0.162214
    10  H    0.159881
    11  C   -0.298198
    12  C   -0.299770
    13  C   -0.475770
    14  H    0.149810
    15  H    0.149957
    16  H    0.152105
    17  H    0.152059
    18  H    0.155236
    19  H    0.155277
    20  H    0.160482
    21  C   -0.301030
    22  C   -0.301901
    23  C   -0.475682
    24  H    0.155763
    25  H    0.148992
    26  H    0.153541
    27  H    0.151410
    28  H    0.154987
    29  H    0.155244
    30  H    0.159598
    31  C   -0.302855
    32  C   -0.302229
    33  C   -0.476154
    34  H    0.153750
    35  H    0.149719
    36  H    0.151816
    37  H    0.152442
    38  H    0.155620
    39  H    0.155064
    40  H    0.159911
 Sum of Mulliken charges =  -0.00000

 Dipole moment (field-independent basis, Debye):
    X=              0.0459    Y=             -0.0220    Z=              0.0138  Tot=              0.0527
 Quadrupole moment (field-independent basis, Debye-Ang):
   XX=            -85.8172   YY=            -84.9486   ZZ=            -84.2240
   XY=             -0.9724   XZ=              0.4000   YZ=              0.5488

 Normal termination of Gaussian 16 at Wed May  5 15:14:40 2021.
