 Gaussian 16, Revision A.03,
 Gaussian 16:  EM64L-G16RevA.03 25-Dec-2016

 -------------
 #p 6-31g* mp2
 -------------

 ------------------------------------------------------
 Input file generated by CHIRIPA (05-May-2021 14:53:14)
 ------------------------------------------------------
 Symbolic Z-matrix:
 Charge =  0 Multiplicity = 1

                         Standard orientation:
 ---------------------------------------------------------------------
 Center     Atomic      Atomic             Coordinates (Angstroms)
 Number     Number       Type             X           Y           Z
 ---------------------------------------------------------------------
      1          6           0       -6.029283    0.265467   -0.203158
      2          6           0       -7.356016   -0.448699    0.057092
      3          6           0       -8.556721    0.309863   -0.509200
      4          1           0       -6.069477    1.271662    0.236048
      5          1           0       -5.900537    0.401926   -1.285839
      6          1           0       -7.481570   -0.585005    1.138883
      7          1           0       -7.312589   -1.453380   -0.382619
      8          1           0       -8.458250    0.433477   -1.592539
      9          1           0       -8.628192    1.306786   -0.062392
     10          1           0       -9.494739   -0.218389   -0.311886
     11          6           0       -4.819605   -0.480608    0.357003
     12          6           0       -3.492872    0.233559    0.096753
     13          6           0       -2.292167   -0.525003    0.663045
     14          1           0       -4.948351   -0.617067    1.439684
     15          1           0       -4.779411   -1.486802   -0.082203
     16          1           0       -3.536300    1.238240    0.536464
     17          1           0       -3.367318    0.369864   -0.985038
     18          1           0       -2.220696   -1.521926    0.216237
     19          1           0       -2.390638   -0.648617    1.746384
     20          1           0       -1.354149    0.003249    0.465731
     21          6           0        1.804050    0.748833   -0.035540
     22          6           0        2.797871    1.726188    0.081150
     23          6           0        4.149559    1.369348    0.068766
     24          6           0        4.473138    0.019769   -0.062469
     25          6           0        3.506062   -0.977267   -0.180684
     26          6           0        2.160688   -0.597402   -0.165853
     27          1           0        0.756479    1.034977   -0.024969
     28          1           0        2.523837    2.772459    0.182483
     29          1           0        4.939319    2.105449    0.157378
     30          1           0        3.810175   -2.012160   -0.280333
     31          1           0        1.391010   -1.358582   -0.256656
     32          7           0        5.900767   -0.370189   -0.076874
     33          8           0        6.159717   -1.565992   -0.193647
     34          8           0        6.733760    0.527350    0.028880
 ---------------------------------------------------------------------

 SCF Done:  E(RHF) =  -669.535462874     A.U. after   15 cycles
 E2 =    -0.2090806974D+01 EUMP2 =    -0.67162626984807D+03

 The electronic state is 1-A.
 Alpha  occ. eigenvalues --  -20.60726 -20.60720 -15.85779 -11.31138 -11.27707
 Alpha  occ. eigenvalues --  -11.27699 -11.27435 -11.26723 -11.26700 -11.22570
 Alpha  occ. eigenvalues --  -11.22330 -11.22135 -11.22099 -11.21974 -11.21490
 Alpha  occ. eigenvalues --   -1.59801  -1.39355  -1.19309  -1.09151  -1.08706
 Alpha  occ. eigenvalues --   -1.04710  -1.04292  -0.96758  -0.95543  -0.87779
 Alpha  occ. eigenvalues --   -0.86106  -0.82376  -0.80362  -0.78919  -0.77421
 Alpha  occ. eigenvalues --   -0.71997  -0.71124  -0.70449  -0.65772  -0.64962
 Alpha  occ. eigenvalues --   -0.64719  -0.62060  -0.61674  -0.60196  -0.58363
 Alpha  occ. eigenvalues --   -0.56022  -0.55260  -0.53453  -0.53159  -0.53035
 Alpha  occ. eigenvalues --   -0.52798  -0.50678  -0.48759  -0.48753  -0.48669
 Alpha  occ. eigenvalues --   -0.47373  -0.46472  -0.46365  -0.44762  -0.44540
 Alpha  occ. eigenvalues --   -0.37288  -0.36315
 Alpha virt. eigenvalues --    0.05109   0.11335   0.16593   0.19540   0.22401
 Alpha virt. eigenvalues --    0.23807   0.25863   0.25940   0.26547   0.27432
 Alpha virt. eigenvalues --    0.28475   0.30015   0.30820   0.31451   0.32220

 Mulliken charges:
               1
     1  C   -0.298835
     2  C   -0.300207
     3  C   -0.476081
     4  H    0.150291
     5  H    0.150219
     6  H    0.152763
     7  H    0.152721
     8  H    0.155696
     9  H    0.155640
    10  H    0.161795
    11  C   -0.299208
    12  C   -0.299696
    13  C   -0.480323
    14  H    0.151321
    15  H    0.151031
    16  H    0.152946
    17  H    0.152693
    18  H    0.157170
    19  H    0.161268
    20  H    0.149546
    21  C   -0.175311
    22  C   -0.219005
    23  C   -0.170901
    24  C    0.158350
    25  C   -0.171018
    26  C   -0.220832
    27  H    0.231720
    28  H    0.223601
    29  H    0.275370
    30  H    0.275497
    31  H    0.224845
    32  N    0.488037
    33  O   -0.460544
    34  O   -0.460557
 Sum of Mulliken charges =  -0.00000

 Dipole moment (field-independent basis, Debye):
    X=             -5.2886    Y=              1.3474    Z=              0.0714  Tot=              5.4580
 Quadrupole moment (field-independent basis, Debye-Ang):
   XX=           -139.9668   YY=            -90.0256   ZZ=            -94.9096
   XY=              7.9669   XZ=              0.2055   YZ=              1.0838

 Normal termination of Gaussian 16 at Wed May  5 21:52:03 2021.
