 Gaussian 16, Revision A.03,
 Gaussian 16:  EM64L-G16RevA.03 25-Dec-2016

 -------------
 #p 6-31g* mp2
 -------------

 ------------------------------------------------------
 Input file generated by CHIRIPA (05-May-2021 14:51:12)
 ------------------------------------------------------
 Symbolic Z-matrix:
 Charge =  0 Multiplicity = 1

                         Standard orientation:
 ---------------------------------------------------------------------
 Center     Atomic      Atomic             Coordinates (Angstroms)
 Number     Number       Type             X           Y           Z
 ---------------------------------------------------------------------
      1          6           0       -2.776379    0.815380   -0.509355
      2          6           0       -1.985031    2.074894   -0.155267
      3          6           0       -0.954657    2.445204   -1.222503
      4          1           0       -2.078057   -0.020555   -0.652553
      5          1           0       -3.283134    0.967797   -1.472353
      6          1           0       -1.481035    1.920657    0.807445
      7          1           0       -2.685333    2.907883   -0.012708
      8          1           0       -1.444603    2.625886   -2.184744
      9          1           0       -0.233462    1.633051   -1.359931
     10          1           0       -0.400381    3.348475   -0.949116
     11          6           0       -3.810392    0.432357    0.547923
     12          6           0       -4.601740   -0.827157    0.193834
     13          6           0       -5.632114   -1.197467    1.261070
     14          1           0       -3.303638    0.279939    1.510920
     15          1           0       -4.508714    1.268291    0.691120
     16          1           0       -3.901438   -1.660146    0.051276
     17          1           0       -5.105736   -0.672920   -0.768878
     18          1           0       -6.353309   -0.385314    1.398498
     19          1           0       -5.142169   -1.378150    2.223312
     20          1           0       -6.186390   -2.100738    0.987684
     21          6           0        2.981972   -1.228385   -0.367151
     22          6           0        1.461145   -1.136779   -0.496308
     23          6           0        0.852788   -2.353517   -1.194336
     24          1           0        3.422648   -1.337330   -1.367591
     25          1           0        3.241477   -2.139467    0.189610
     26          1           0        1.204529   -0.225424   -1.051462
     27          1           0        1.024051   -1.027847    0.504541
     28          1           0        1.079817   -3.269514   -0.639353
     29          1           0        1.261321   -2.462531   -2.204197
     30          1           0       -0.235208   -2.267170   -1.276003
     31          6           0        3.604800   -0.019351    0.328584
     32          6           0        5.125626   -0.110959    0.457740
     33          6           0        5.733983    1.105780    1.155769
     34          1           0        3.345295    0.891731   -0.228178
     35          1           0        3.164123    0.089593    1.329024
     36          1           0        5.562721   -0.219889   -0.543108
     37          1           0        5.382243   -1.022313    1.012894
     38          1           0        5.325450    1.214795    2.165629
     39          1           0        5.506954    2.021777    0.600786
     40          1           0        6.821979    1.019433    1.237435
 ---------------------------------------------------------------------

 SCF Done:  E(RHF) =  -470.733322330     A.U. after   11 cycles
 E2 =    -0.1583188783D+01 EUMP2 =    -0.47231651111297D+03

 The electronic state is 1-A.
 Alpha  occ. eigenvalues --  -11.21670 -11.21620 -11.21599 -11.21575 -11.21443
 Alpha  occ. eigenvalues --  -11.21392 -11.21380 -11.21332 -11.21141 -11.21083
 Alpha  occ. eigenvalues --  -11.21067 -11.21027  -1.08476  -1.08411  -1.03584
 Alpha  occ. eigenvalues --   -1.03504  -0.96019  -0.95964  -0.87043  -0.86975
 Alpha  occ. eigenvalues --   -0.79674  -0.79550  -0.78310  -0.78205  -0.65131
 Alpha  occ. eigenvalues --   -0.65027  -0.61057  -0.60849  -0.59409  -0.59304
 Alpha  occ. eigenvalues --   -0.57632  -0.57576  -0.55335  -0.55234  -0.52719
 Alpha  occ. eigenvalues --   -0.52656  -0.52486  -0.52357  -0.50044  -0.49856
 Alpha  occ. eigenvalues --   -0.48044  -0.47818  -0.46803  -0.46492  -0.45894
 Alpha  occ. eigenvalues --   -0.45776  -0.45727  -0.45529  -0.43825  -0.43769
 Alpha virt. eigenvalues --    0.20264   0.23033   0.23676   0.24403   0.25769
 Alpha virt. eigenvalues --    0.25972   0.26810   0.27426   0.28659   0.29063
 Alpha virt. eigenvalues --    0.30407   0.31414   0.31580   0.31811   0.32086

 Mulliken charges:
               1
     1  C   -0.302188
     2  C   -0.298615
     3  C   -0.482743
     4  H    0.153235
     5  H    0.149395
     6  H    0.152149
     7  H    0.151792
     8  H    0.154872
     9  H    0.161591
    10  H    0.160022
    11  C   -0.298164
    12  C   -0.299660
    13  C   -0.475678
    14  H    0.149448
    15  H    0.149714
    16  H    0.151634
    17  H    0.151966
    18  H    0.155199
    19  H    0.155147
    20  H    0.160271
    21  C   -0.297673
    22  C   -0.307584
    23  C   -0.477697
    24  H    0.149884
    25  H    0.149715
    26  H    0.159167
    27  H    0.151575
    28  H    0.155600
    29  H    0.155776
    30  H    0.161503
    31  C   -0.298566
    32  C   -0.299690
    33  C   -0.475752
    34  H    0.149980
    35  H    0.149530
    36  H    0.152056
    37  H    0.151938
    38  H    0.155157
    39  H    0.155379
    40  H    0.160318
 Sum of Mulliken charges =  -0.00000

 Dipole moment (field-independent basis, Debye):
    X=              0.0267    Y=             -0.0099    Z=             -0.0030  Tot=              0.0286
 Quadrupole moment (field-independent basis, Debye-Ang):
   XX=            -85.2238   YY=            -85.0903   ZZ=            -84.4239
   XY=             -1.1433   XZ=              0.4610   YZ=             -0.8049

 Normal termination of Gaussian 16 at Thu May  6 05:31:24 2021.
