 Gaussian 16, Revision A.03,
 Gaussian 16:  EM64L-G16RevA.03 25-Dec-2016

 -------------
 #p 6-31g* mp2
 -------------

 ------------------------------------------------------
 Input file generated by CHIRIPA (05-May-2021 14:51:11)
 ------------------------------------------------------
 Symbolic Z-matrix:
 Charge =  0 Multiplicity = 1

                         Standard orientation:
 ---------------------------------------------------------------------
 Center     Atomic      Atomic             Coordinates (Angstroms)
 Number     Number       Type             X           Y           Z
 ---------------------------------------------------------------------
      1          6           0       -2.961913    0.317109   -0.089906
      2          6           0       -2.524296    1.093814   -1.332165
      3          6           0       -3.503864    2.205377   -1.709878
      4          1           0       -3.957115   -0.113509   -0.266214
      5          1           0       -3.068087    1.015241    0.751957
      6          1           0       -2.417640    0.394214   -2.171093
      7          1           0       -1.529937    1.522473   -1.152949
      8          1           0       -3.603422    2.925660   -0.891415
      9          1           0       -4.496169    1.790991   -1.915343
     10          1           0       -3.171622    2.747733   -2.600566
     11          6           0       -1.992802   -0.797480    0.300277
     12          6           0       -2.430418   -1.574185    1.542536
     13          6           0       -1.450851   -2.685749    1.920249
     14          1           0       -1.886628   -1.495612   -0.541586
     15          1           0       -0.997599   -0.366862    0.476585
     16          1           0       -3.424777   -2.002844    1.363321
     17          1           0       -2.537075   -0.874585    2.381464
     18          1           0       -0.458546   -2.271362    2.125714
     19          1           0       -1.351292   -3.406032    1.101786
     20          1           0       -1.783092   -3.228104    2.810937
     21          6           0        2.292144    0.569385    0.558709
     22          6           0        2.614664    2.063297    0.605551
     23          6           0        2.238415    2.707737    1.940065
     24          1           0        1.219302    0.426291    0.747064
     25          1           0        2.823386    0.060913    1.375184
     26          1           0        2.084066    2.568590   -0.211616
     27          1           0        3.686829    2.202865    0.416872
     28          1           0        2.778074    2.230118    2.764231
     29          1           0        1.166205    2.597921    2.132173
     30          1           0        2.477535    3.775699    1.951727
     31          6           0        2.662570   -0.089014   -0.769080
     32          6           0        2.340050   -1.582926   -0.815922
     33          6           0        2.716299   -2.227365   -2.150435
     34          1           0        2.131329    0.419459   -1.585555
     35          1           0        3.735413    0.054080   -0.957435
     36          1           0        1.267886   -1.722493   -0.627243
     37          1           0        2.870648   -2.088219    0.001245
     38          1           0        3.788510   -2.117550   -2.342544
     39          1           0        2.176641   -1.749747   -2.974602
     40          1           0        2.477180   -3.295328   -2.162099
 ---------------------------------------------------------------------

 SCF Done:  E(RHF) =  -470.733321932     A.U. after   11 cycles
 E2 =    -0.1584020365D+01 EUMP2 =    -0.47231734229690D+03

 The electronic state is 1-A.
 Alpha  occ. eigenvalues --  -11.21678 -11.21642 -11.21637 -11.21534 -11.21470
 Alpha  occ. eigenvalues --  -11.21415 -11.21410 -11.21344 -11.21125 -11.21117
 Alpha  occ. eigenvalues --  -11.21080 -11.21034  -1.08510  -1.08422  -1.03580
 Alpha  occ. eigenvalues --   -1.03525  -0.96030  -0.95980  -0.87043  -0.86997
 Alpha  occ. eigenvalues --   -0.79651  -0.79583  -0.78441  -0.78134  -0.65283
 Alpha  occ. eigenvalues --   -0.64926  -0.60975  -0.60923  -0.59407  -0.59337
 Alpha  occ. eigenvalues --   -0.57658  -0.57575  -0.55378  -0.55217  -0.52719
 Alpha  occ. eigenvalues --   -0.52673  -0.52463  -0.52397  -0.50010  -0.49893
 Alpha  occ. eigenvalues --   -0.48015  -0.47881  -0.46752  -0.46619  -0.46377
 Alpha  occ. eigenvalues --   -0.45774  -0.45744  -0.45086  -0.43839  -0.43781
 Alpha virt. eigenvalues --    0.19869   0.23037   0.23670   0.24301   0.25433
 Alpha virt. eigenvalues --    0.26616   0.26958   0.27886   0.27928   0.30723
 Alpha virt. eigenvalues --    0.31173   0.31374   0.31663   0.31853   0.32018

 Mulliken charges:
               1
     1  C   -0.297617
     2  C   -0.300031
     3  C   -0.475728
     4  H    0.150146
     5  H    0.149483
     6  H    0.152072
     7  H    0.151086
     8  H    0.155397
     9  H    0.155496
    10  H    0.160412
    11  C   -0.310196
    12  C   -0.298929
    13  C   -0.477273
    14  H    0.149967
    15  H    0.159924
    16  H    0.152123
    17  H    0.151878
    18  H    0.157060
    19  H    0.155273
    20  H    0.160407
    21  C   -0.307486
    22  C   -0.299215
    23  C   -0.475608
    24  H    0.156673
    25  H    0.149620
    26  H    0.151748
    27  H    0.152384
    28  H    0.155413
    29  H    0.154254
    30  H    0.160529
    31  C   -0.297629
    32  C   -0.304320
    33  C   -0.475680
    34  H    0.149670
    35  H    0.149626
    36  H    0.157467
    37  H    0.151483
    38  H    0.154932
    39  H    0.155103
    40  H    0.160087
 Sum of Mulliken charges =  -0.00000

 Dipole moment (field-independent basis, Debye):
    X=             -0.0239    Y=             -0.0066    Z=              0.0074  Tot=              0.0258
 Quadrupole moment (field-independent basis, Debye-Ang):
   XX=            -84.0295   YY=            -85.3866   ZZ=            -85.2791
   XY=              0.8139   XZ=              0.6339   YZ=              0.0698

 Normal termination of Gaussian 16 at Thu May  6 07:02:40 2021.
