 Gaussian 16, Revision A.03,
 Gaussian 16:  EM64L-G16RevA.03 25-Dec-2016

 -------------
 #p 6-31g* mp2
 -------------

 ------------------------------------------------------
 Input file generated by CHIRIPA (05-May-2021 14:57:25)
 ------------------------------------------------------
 Symbolic Z-matrix:
 Charge =  0 Multiplicity = 1

                         Standard orientation:
 ---------------------------------------------------------------------
 Center     Atomic      Atomic             Coordinates (Angstroms)
 Number     Number       Type             X           Y           Z
 ---------------------------------------------------------------------
      1          6           0        2.015519   -0.126368    0.130051
      2          6           0        2.805016   -1.009910    0.873400
      3          6           0        4.199066   -0.906433    0.851822
      4          6           0        4.772897    0.096877    0.072477
      5          6           0        4.013381    0.992235   -0.679027
      6          6           0        2.621153    0.870128   -0.642428
      7          1           0        0.933295   -0.213988    0.152648
      8          1           0        2.337408   -1.784771    1.474216
      9          1           0        4.834163   -1.577150    1.417691
     10          1           0        4.508340    1.754444   -1.268492
     11          1           0        2.010523    1.557691   -1.220730
     12          7           0        6.247751    0.216285    0.041682
     13          8           0        6.728961    1.108821   -0.652907
     14          8           0        6.894605   -0.584921    0.712716
     15          6           0       -6.475413    1.365527    0.628953
     16          6           0       -5.207128    1.932106    0.464754
     17          6           0       -4.121887    1.142295    0.073603
     18          6           0       -4.341731   -0.216674   -0.145854
     19          6           0       -5.593330   -0.810559    0.009350
     20          6           0       -6.664134   -0.001587    0.401130
     21          1           0       -7.312847    1.986514    0.933052
     22          1           0       -5.057622    2.993537    0.640988
     23          1           0       -3.129413    1.554989   -0.060920
     24          1           0       -5.711357   -1.871689   -0.173666
     25          1           0       -7.647988   -0.444319    0.527874
     26          7           0       -3.200477   -1.062954   -0.560280
     27          8           0       -3.420338   -2.257640   -0.747430
     28          8           0       -2.107710   -0.515559   -0.690111
 ---------------------------------------------------------------------

 SCF Done:  E(RHF) =  -868.340036410     A.U. after   16 cycles
 E2 =    -0.2598053409D+01 EUMP2 =    -0.87093808981885D+03

 The electronic state is 1-A.
 Alpha  occ. eigenvalues --  -20.61856 -20.61788 -20.60166 -20.60160 -15.86862
 Alpha  occ. eigenvalues --  -15.85216 -11.31975 -11.30407 -11.28539 -11.28488
 Alpha  occ. eigenvalues --  -11.28190 -11.27471 -11.27445 -11.26992 -11.26979
 Alpha  occ. eigenvalues --  -11.26478 -11.25893 -11.25869  -1.60882  -1.59246
 Alpha  occ. eigenvalues --   -1.40447  -1.38805  -1.20119  -1.18556  -1.09556
 Alpha  occ. eigenvalues --   -1.07940  -1.05486  -1.03949  -0.96436  -0.94808
 Alpha  occ. eigenvalues --   -0.86894  -0.85331  -0.83283  -0.81663  -0.78360
 Alpha  occ. eigenvalues --   -0.76773  -0.73100  -0.72186  -0.71436  -0.71222
 Alpha  occ. eigenvalues --   -0.70569  -0.69538  -0.65776  -0.65482  -0.64190
 Alpha  occ. eigenvalues --   -0.63936  -0.62840  -0.61315  -0.55984  -0.54280
 Alpha  occ. eigenvalues --   -0.53824  -0.53573  -0.52275  -0.52027  -0.49858
 Alpha  occ. eigenvalues --   -0.49806  -0.48202  -0.48177  -0.45905  -0.44250
 Alpha  occ. eigenvalues --   -0.38077  -0.37077  -0.36464  -0.35577
 Alpha virt. eigenvalues --    0.04147   0.05780   0.10582   0.12095   0.15683
 Alpha virt. eigenvalues --    0.17334   0.20714   0.22400   0.26663   0.27475
 Alpha virt. eigenvalues --    0.28117   0.29313   0.30403   0.31571   0.32362

 Mulliken charges:
               1
     1  C   -0.177009
     2  C   -0.220472
     3  C   -0.171613
     4  C    0.157021
     5  C   -0.171834
     6  C   -0.220718
     7  H    0.247578
     8  H    0.223915
     9  H    0.273079
    10  H    0.272497
    11  H    0.222085
    12  N    0.488313
    13  O   -0.462896
    14  O   -0.462458
    15  C   -0.169829
    16  C   -0.218235
    17  C   -0.170448
    18  C    0.157781
    19  C   -0.170275
    20  C   -0.218376
    21  H    0.228291
    22  H    0.225269
    23  H    0.271977
    24  H    0.276955
    25  H    0.225993
    26  N    0.492299
    27  O   -0.455017
    28  O   -0.473871
 Sum of Mulliken charges =  -0.00000

 Dipole moment (field-independent basis, Debye):
    X=             -9.8343    Y=              2.5037    Z=              1.5915  Tot=             10.2721
 Quadrupole moment (field-independent basis, Debye-Ang):
   XX=           -118.5697   YY=           -100.3569   ZZ=           -104.7296
   XY=            -12.5004   XZ=             -5.5143   YZ=             -3.3551

 Normal termination of Gaussian 16 at Thu May  6 05:08:45 2021.
