 Gaussian 16, Revision A.03,
 Gaussian 16:  EM64L-G16RevA.03 25-Dec-2016

 -------------
 #p 6-31g* mp2
 -------------

 ------------------------------------------------------
 Input file generated by CHIRIPA (05-May-2021 14:51:08)
 ------------------------------------------------------
 Symbolic Z-matrix:
 Charge =  0 Multiplicity = 1

                         Standard orientation:
 ---------------------------------------------------------------------
 Center     Atomic      Atomic             Coordinates (Angstroms)
 Number     Number       Type             X           Y           Z
 ---------------------------------------------------------------------
      1          6           0        1.703665    1.309505    0.014674
      2          6           0        1.532952    1.641038    1.497553
      3          6           0        0.817904    2.972895    1.727023
      4          1           0        2.265681    2.117815   -0.472890
      5          1           0        0.715031    1.283229   -0.464188
      6          1           0        2.521510    1.665318    1.973767
      7          1           0        0.971443    0.831753    1.981683
      8          1           0       -0.180444    2.956522    1.277987
      9          1           0        1.378430    3.794823    1.270026
     10          1           0        0.706515    3.190160    2.793910
     11          6           0        2.416813   -0.018970   -0.230888
     12          6           0        2.587525   -0.350503   -1.713767
     13          6           0        3.302574   -1.682360   -1.943237
     14          1           0        3.405446    0.007306    0.247973
     15          1           0        1.854797   -0.827280    0.256676
     16          1           0        3.149034    0.458782   -2.197897
     17          1           0        1.598967   -0.374783   -2.189981
     18          1           0        2.742048   -2.504288   -1.486240
     19          1           0        4.300922   -1.665987   -1.494201
     20          1           0        3.413962   -1.899626   -3.010124
     21          6           0       -1.423747   -0.846798    0.479180
     22          6           0       -1.625086   -2.024916    1.432850
     23          6           0       -0.342759   -2.416333    2.167849
     24          1           0       -0.644520   -1.103701   -0.251402
     25          1           0       -1.047729    0.015490    1.047041
     26          1           0       -2.001925   -2.884310    0.863595
     27          1           0       -2.404059   -1.765250    2.161129
     28          1           0        0.033563   -1.576021    2.760182
     29          1           0        0.437982   -2.701439    1.455276
     30          1           0       -0.509425   -3.260481    2.844233
     31          6           0       -2.696730   -0.443736   -0.262966
     32          6           0       -2.495392    0.734381   -1.216636
     33          6           0       -3.777719    1.125798   -1.951635
     34          1           0       -3.072748   -1.306025   -0.830826
     35          1           0       -3.475958   -0.186833    0.467616
     36          1           0       -1.716418    0.474715   -1.944915
     37          1           0       -2.118553    1.593775   -0.647381
     38          1           0       -4.558460    1.410904   -1.239062
     39          1           0       -4.154040    0.285487   -2.543969
     40          1           0       -3.611052    1.969947   -2.628018
 ---------------------------------------------------------------------

 SCF Done:  E(RHF) =  -470.731603480     A.U. after   11 cycles
 E2 =    -0.1587157462D+01 EUMP2 =    -0.47231876094128D+03

 The electronic state is 1-A.
 Alpha  occ. eigenvalues --  -11.21719 -11.21691 -11.21577 -11.21524 -11.21484
 Alpha  occ. eigenvalues --  -11.21418 -11.21264 -11.21198 -11.21176 -11.21144
 Alpha  occ. eigenvalues --  -11.21081 -11.21075  -1.08600  -1.08302  -1.03636
 Alpha  occ. eigenvalues --   -1.03502  -0.96082  -0.95939  -0.87100  -0.86960
 Alpha  occ. eigenvalues --   -0.79728  -0.79556  -0.78410  -0.78153  -0.65218
 Alpha  occ. eigenvalues --   -0.64998  -0.61142  -0.60815  -0.59467  -0.59292
 Alpha  occ. eigenvalues --   -0.57708  -0.57537  -0.55381  -0.55235  -0.52770
 Alpha  occ. eigenvalues --   -0.52651  -0.52516  -0.52366  -0.50057  -0.49893
 Alpha  occ. eigenvalues --   -0.48102  -0.47938  -0.46964  -0.46392  -0.46353
 Alpha  occ. eigenvalues --   -0.45677  -0.45536  -0.45118  -0.43874  -0.43719
 Alpha virt. eigenvalues --    0.19722   0.21478   0.22186   0.23801   0.25297
 Alpha virt. eigenvalues --    0.26272   0.26708   0.27727   0.28814   0.29811
 Alpha virt. eigenvalues --    0.30822   0.31373   0.31560   0.31859   0.32402

 Mulliken charges:
               1
     1  C   -0.303535
     2  C   -0.306278
     3  C   -0.478035
     4  H    0.148992
     5  H    0.157613
     6  H    0.152531
     7  H    0.156306
     8  H    0.155295
     9  H    0.155892
    10  H    0.159903
    11  C   -0.305319
    12  C   -0.301173
    13  C   -0.475352
    14  H    0.149297
    15  H    0.157390
    16  H    0.152235
    17  H    0.151332
    18  H    0.153818
    19  H    0.155627
    20  H    0.160111
    21  C   -0.308802
    22  C   -0.299442
    23  C   -0.480825
    24  H    0.153501
    25  H    0.157507
    26  H    0.152093
    27  H    0.152190
    28  H    0.157982
    29  H    0.156700
    30  H    0.161240
    31  C   -0.297232
    32  C   -0.303981
    33  C   -0.475691
    34  H    0.149735
    35  H    0.149889
    36  H    0.152656
    37  H    0.153872
    38  H    0.155551
    39  H    0.155549
    40  H    0.160860
 Sum of Mulliken charges =  -0.00000

 Dipole moment (field-independent basis, Debye):
    X=             -0.0581    Y=             -0.0242    Z=              0.0113  Tot=              0.0639
 Quadrupole moment (field-independent basis, Debye-Ang):
   XX=            -84.8961   YY=            -85.2191   ZZ=            -84.6944
   XY=              1.0698   XZ=             -0.5009   YZ=              0.3329

 Normal termination of Gaussian 16 at Thu May  6 00:30:33 2021.
