 Gaussian 16, Revision A.03,
 Gaussian 16:  EM64L-G16RevA.03 25-Dec-2016

 -------------
 #p 6-31g* mp2
 -------------

 ------------------------------------------------------
 Input file generated by CHIRIPA (05-May-2021 14:55:22)
 ------------------------------------------------------
 Symbolic Z-matrix:
 Charge =  0 Multiplicity = 1

                         Standard orientation:
 ---------------------------------------------------------------------
 Center     Atomic      Atomic             Coordinates (Angstroms)
 Number     Number       Type             X           Y           Z
 ---------------------------------------------------------------------
      1          6           0        0.317187   -0.711009    1.363157
      2          6           0        0.374830   -0.832091   -0.029157
      3          6           0        1.577443   -0.623279   -0.710823
      4          6           0        2.708198   -0.293268    0.034680
      5          6           0        2.682766   -0.165260    1.422577
      6          6           0        1.469308   -0.378566    2.083310
      7          1           0       -0.621243   -0.874965    1.884561
      8          1           0       -0.518337   -1.090159   -0.591027
      9          1           0        1.650303   -0.710511   -1.788088
     10          1           0        3.589814    0.093176    1.955392
     11          1           0        1.427501   -0.283851    3.164664
     12          7           0        3.987091   -0.069829   -0.675889
     13          8           0        4.969193    0.219913    0.003936
     14          8           0        3.983169   -0.188671   -1.899203
     15          6           0       -3.493448   -0.193315    0.146471
     16          6           0       -3.814913   -1.328610   -0.826024
     17          6           0       -4.407884   -2.553678   -0.129326
     18          1           0       -2.791482   -0.559289    0.908214
     19          1           0       -4.410433    0.094623    0.679038
     20          1           0       -2.897880   -1.613384   -1.357594
     21          1           0       -4.516048   -0.959838   -1.585651
     22          1           0       -5.337186   -2.291283    0.386570
     23          1           0       -3.709824   -2.948544    0.615923
     24          1           0       -4.630149   -3.353066   -0.843074
     25          6           0       -2.899950    1.038355   -0.535056
     26          6           0       -2.578485    2.173651    0.437440
     27          6           0       -1.985514    3.398719   -0.259259
     28          1           0       -1.982966    0.750417   -1.067621
     29          1           0       -3.601916    1.404329   -1.296798
     30          1           0       -1.877351    1.804878    1.197068
     31          1           0       -3.495518    2.458424    0.969010
     32          1           0       -2.683574    3.793584   -1.004507
     33          1           0       -1.056212    3.136323   -0.775155
     34          1           0       -1.763249    4.198107    0.454490
 ---------------------------------------------------------------------

 SCF Done:  E(RHF) =  -669.534245393     A.U. after   15 cycles
 E2 =    -0.2094425840D+01 EUMP2 =    -0.67162867123316D+03

 The electronic state is 1-A.
 Alpha  occ. eigenvalues --  -20.60791 -20.60786 -15.85844 -11.31230 -11.27793
 Alpha  occ. eigenvalues --  -11.27790 -11.27526 -11.26815 -11.26779 -11.22754
 Alpha  occ. eigenvalues --  -11.22574 -11.22324 -11.22256 -11.22039 -11.21553
 Alpha  occ. eigenvalues --   -1.59866  -1.39418  -1.19404  -1.09457  -1.08783
 Alpha  occ. eigenvalues --   -1.04807  -1.04396  -0.96843  -0.95627  -0.87846
 Alpha  occ. eigenvalues --   -0.86211  -0.82469  -0.80493  -0.79247  -0.77508
 Alpha  occ. eigenvalues --   -0.72064  -0.71189  -0.70554  -0.66384  -0.65046
 Alpha  occ. eigenvalues --   -0.64576  -0.62134  -0.61791  -0.60210  -0.58455
 Alpha  occ. eigenvalues --   -0.56136  -0.55341  -0.53495  -0.53252  -0.53120
 Alpha  occ. eigenvalues --   -0.52885  -0.50784  -0.48831  -0.48817  -0.48784
 Alpha  occ. eigenvalues --   -0.47568  -0.46739  -0.46648  -0.44820  -0.44683
 Alpha  occ. eigenvalues --   -0.37359  -0.36390
 Alpha virt. eigenvalues --    0.04997   0.11147   0.16365   0.18562   0.23275
 Alpha virt. eigenvalues --    0.23345   0.24189   0.25364   0.27006   0.28678
 Alpha virt. eigenvalues --    0.29955   0.30397   0.31016   0.31342   0.31592

 Mulliken charges:
               1
     1  C   -0.176342
     2  C   -0.222668
     3  C   -0.174181
     4  C    0.158963
     5  C   -0.170636
     6  C   -0.219048
     7  H    0.230081
     8  H    0.232908
     9  H    0.276189
    10  H    0.275783
    11  H    0.223998
    12  N    0.488035
    13  O   -0.460267
    14  O   -0.460231
    15  C   -0.304921
    16  C   -0.303188
    17  C   -0.475451
    18  H    0.139916
    19  H    0.156467
    20  H    0.146205
    21  H    0.158792
    22  H    0.158780
    23  H    0.152038
    24  H    0.164645
    25  C   -0.300832
    26  C   -0.300302
    27  C   -0.476613
    28  H    0.147183
    29  H    0.154460
    30  H    0.149645
    31  H    0.152969
    32  H    0.156460
    33  H    0.158842
    34  H    0.162323
 Sum of Mulliken charges =  -0.00000

 Dipole moment (field-independent basis, Debye):
    X=             -4.6519    Y=             -0.7151    Z=              2.4615  Tot=              5.3113
 Quadrupole moment (field-independent basis, Debye-Ang):
   XX=           -117.0955   YY=            -95.3611   ZZ=            -91.0064
   XY=             -1.0694   XZ=              9.4520   YZ=              0.4551

 Normal termination of Gaussian 16 at Thu May  6 15:54:25 2021.
