 Gaussian 16, Revision A.03,
 Gaussian 16:  EM64L-G16RevA.03 25-Dec-2016

 -------------
 #p 6-31g* mp2
 -------------

 ------------------------------------------------------
 Input file generated by CHIRIPA (05-May-2021 14:51:07)
 ------------------------------------------------------
 Symbolic Z-matrix:
 Charge =  0 Multiplicity = 1

                         Standard orientation:
 ---------------------------------------------------------------------
 Center     Atomic      Atomic             Coordinates (Angstroms)
 Number     Number       Type             X           Y           Z
 ---------------------------------------------------------------------
      1          6           0       -4.090977    0.275601   -0.409280
      2          6           0       -3.542708    1.636797    0.020290
      3          6           0       -2.167094    1.935181   -0.576741
      4          1           0       -3.382139   -0.508870   -0.110784
      5          1           0       -4.151028    0.241792   -1.505932
      6          1           0       -3.485011    1.668534    1.115863
      7          1           0       -4.253025    2.418101   -0.279094
      8          1           0       -2.212695    1.930790   -1.670588
      9          1           0       -1.440318    1.176963   -0.267706
     10          1           0       -1.794063    2.913065   -0.256661
     11          6           0       -5.465506   -0.037077    0.179472
     12          6           0       -6.013775   -1.398273   -0.250098
     13          6           0       -7.389389   -1.696657    0.346933
     14          1           0       -5.405455   -0.003268    1.276125
     15          1           0       -6.174344    0.747394   -0.119024
     16          1           0       -5.303458   -2.179577    0.049286
     17          1           0       -6.071472   -1.430009   -1.345670
     18          1           0       -8.116165   -0.938439    0.037898
     19          1           0       -7.343788   -1.692266    1.440781
     20          1           0       -7.762420   -2.674541    0.026853
     21          6           0        5.304995   -0.575782   -0.197430
     22          6           0        6.736960   -0.199077    0.184086
     23          6           0        7.779401   -1.121551   -0.448491
     24          1           0        5.111891   -1.613349    0.107712
     25          1           0        5.205002   -0.547922   -1.291331
     26          1           0        6.833849   -0.226294    1.277012
     27          1           0        6.926616    0.837776   -0.121827
     28          1           0        7.711691   -1.087632   -1.540675
     29          1           0        7.618399   -2.157748   -0.133888
     30          1           0        8.796027   -0.834237   -0.162517
     31          6           0        4.251488    0.337258    0.427237
     32          6           0        2.819524   -0.039447    0.045722
     33          6           0        1.777083    0.883026    0.678299
     34          1           0        4.351481    0.309399    1.521138
     35          1           0        4.444593    1.374825    0.122097
     36          1           0        2.629868   -1.076301    0.351635
     37          1           0        2.722635   -0.012230   -1.047204
     38          1           0        1.938085    1.919224    0.363696
     39          1           0        1.844791    0.849108    1.770483
     40          1           0        0.760456    0.595713    0.392326
 ---------------------------------------------------------------------

 SCF Done:  E(RHF) =  -470.733216716     A.U. after   11 cycles
 E2 =    -0.1582161147D+01 EUMP2 =    -0.47231537786286D+03

 The electronic state is 1-A.
 Alpha  occ. eigenvalues --  -11.21595 -11.21592 -11.21581 -11.21578 -11.21396
 Alpha  occ. eigenvalues --  -11.21391 -11.21337 -11.21332 -11.21066 -11.21064
 Alpha  occ. eigenvalues --  -11.21029 -11.21026  -1.08421  -1.08413  -1.03529
 Alpha  occ. eigenvalues --   -1.03499  -0.96000  -0.95929  -0.87041  -0.86922
 Alpha  occ. eigenvalues --   -0.79623  -0.79531  -0.78235  -0.78224  -0.65053
 Alpha  occ. eigenvalues --   -0.65043  -0.60943  -0.60902  -0.59353  -0.59327
 Alpha  occ. eigenvalues --   -0.57662  -0.57501  -0.55285  -0.55227  -0.52797
 Alpha  occ. eigenvalues --   -0.52617  -0.52430  -0.52258  -0.49924  -0.49861
 Alpha  occ. eigenvalues --   -0.47970  -0.47815  -0.46623  -0.46590  -0.45778
 Alpha  occ. eigenvalues --   -0.45766  -0.45700  -0.45693  -0.43785  -0.43717
 Alpha virt. eigenvalues --    0.22237   0.22979   0.23529   0.24754   0.26272
 Alpha virt. eigenvalues --    0.26665   0.27009   0.27504   0.27652   0.28796
 Alpha virt. eigenvalues --    0.29952   0.31355   0.31731   0.31875   0.32088

 Mulliken charges:
               1
     1  C   -0.298322
     2  C   -0.299413
     3  C   -0.480753
     4  H    0.149326
     5  H    0.149493
     6  H    0.152060
     7  H    0.151813
     8  H    0.154886
     9  H    0.160074
    10  H    0.160748
    11  C   -0.298282
    12  C   -0.299652
    13  C   -0.475702
    14  H    0.149558
    15  H    0.149668
    16  H    0.151910
    17  H    0.151907
    18  H    0.155177
    19  H    0.155183
    20  H    0.160224
    21  C   -0.298217
    22  C   -0.299625
    23  C   -0.475692
    24  H    0.149558
    25  H    0.149561
    26  H    0.151882
    27  H    0.151956
    28  H    0.155190
    29  H    0.155141
    30  H    0.160220
    31  C   -0.298601
    32  C   -0.299110
    33  C   -0.481049
    34  H    0.149413
    35  H    0.149715
    36  H    0.151488
    37  H    0.152184
    38  H    0.155749
    39  H    0.154728
    40  H    0.165606
 Sum of Mulliken charges =  -0.00000

 Dipole moment (field-independent basis, Debye):
    X=             -0.0004    Y=              0.0097    Z=             -0.0017  Tot=              0.0098
 Quadrupole moment (field-independent basis, Debye-Ang):
   XX=            -86.4281   YY=            -84.6708   ZZ=            -83.7342
   XY=             -0.0059   XZ=              0.9851   YZ=             -0.9772

 Normal termination of Gaussian 16 at Wed May  5 21:16:29 2021.
