 Gaussian 16, Revision A.03,
 Gaussian 16:  EM64L-G16RevA.03 25-Dec-2016

 -------------
 #p 6-31g* mp2
 -------------

 ------------------------------------------------------
 Input file generated by CHIRIPA (05-May-2021 14:51:09)
 ------------------------------------------------------
 Symbolic Z-matrix:
 Charge =  0 Multiplicity = 1

                         Standard orientation:
 ---------------------------------------------------------------------
 Center     Atomic      Atomic             Coordinates (Angstroms)
 Number     Number       Type             X           Y           Z
 ---------------------------------------------------------------------
      1          6           0        4.322664    0.247325    0.234632
      2          6           0        5.695698   -0.173525   -0.290391
      3          6           0        6.818791    0.747928    0.186450
      4          1           0        4.114641    1.277407   -0.085684
      5          1           0        4.346080    0.260279    1.333122
      6          1           0        5.669296   -0.187020   -1.387540
      7          1           0        5.900394   -1.202792    0.031051
      8          1           0        6.873983    0.754070    1.279847
      9          1           0        6.641571    1.775613   -0.146805
     10          1           0        7.791528    0.428758   -0.200556
     11          6           0        3.189633   -0.664185   -0.233469
     12          6           0        1.816600   -0.243335    0.291554
     13          6           0        0.693506   -1.164789   -0.185286
     14          1           0        3.166217   -0.677140   -1.331958
     15          1           0        3.397657   -1.694267    0.086847
     16          1           0        1.611903    0.785932   -0.029888
     17          1           0        1.843002   -0.229840    1.388704
     18          1           0        0.870726   -2.192473    0.147968
     19          1           0        0.638315   -1.170930   -1.278683
     20          1           0       -0.279231   -0.845618    0.201719
     21          6           0       -4.158260   -0.424460    0.144981
     22          6           0       -3.388161   -1.712732   -0.147059
     23          6           0       -4.205847   -2.970299    0.149097
     24          1           0       -4.469339   -0.421595    1.198626
     25          1           0       -5.079984   -0.412914   -0.453088
     26          1           0       -2.467481   -1.721200    0.450347
     27          1           0       -3.078713   -1.712443   -1.200082
     28          1           0       -5.117235   -2.988871   -0.457226
     29          1           0       -4.502530   -2.997678    1.202582
     30          1           0       -3.636226   -3.879601   -0.066685
     31          6           0       -3.354037    0.841320   -0.146145
     32          6           0       -4.124137    2.129592    0.145895
     33          6           0       -3.306451    3.387159   -0.150260
     34          1           0       -2.432314    0.829775    0.451925
     35          1           0       -3.042958    0.838454   -1.199789
     36          1           0       -4.433584    2.129303    1.198919
     37          1           0       -5.044816    2.138060   -0.451511
     38          1           0       -3.009768    3.414538   -1.203744
     39          1           0       -2.395063    3.405731    0.456063
     40          1           0       -3.876071    4.296462    0.065522
 ---------------------------------------------------------------------

 SCF Done:  E(RHF) =  -470.732976467     A.U. after   11 cycles
 E2 =    -0.1582889214D+01 EUMP2 =    -0.47231586568078D+03

 The electronic state is 1-A.
 Alpha  occ. eigenvalues --  -11.21608 -11.21591 -11.21573 -11.21535 -11.21405
 Alpha  occ. eigenvalues --  -11.21388 -11.21340 -11.21328 -11.21077 -11.21063
 Alpha  occ. eigenvalues --  -11.21032 -11.20990  -1.08432  -1.08404  -1.03528
 Alpha  occ. eigenvalues --   -1.03492  -0.95967  -0.95956  -0.87006  -0.86953
 Alpha  occ. eigenvalues --   -0.79649  -0.79509  -0.78257  -0.78204  -0.65068
 Alpha  occ. eigenvalues --   -0.65041  -0.60936  -0.60890  -0.59448  -0.59223
 Alpha  occ. eigenvalues --   -0.57602  -0.57546  -0.55264  -0.55232  -0.52800
 Alpha  occ. eigenvalues --   -0.52566  -0.52382  -0.52376  -0.49924  -0.49880
 Alpha  occ. eigenvalues --   -0.47941  -0.47856  -0.46636  -0.46580  -0.45775
 Alpha  occ. eigenvalues --   -0.45768  -0.45711  -0.45676  -0.43793  -0.43637
 Alpha virt. eigenvalues --    0.21673   0.23092   0.23881   0.24293   0.25924
 Alpha virt. eigenvalues --    0.26612   0.26867   0.27562   0.27888   0.29132
 Alpha virt. eigenvalues --    0.30928   0.31356   0.31618   0.31892   0.32073

 Mulliken charges:
               1
     1  C   -0.298199
     2  C   -0.299602
     3  C   -0.475688
     4  H    0.149653
     5  H    0.149377
     6  H    0.151918
     7  H    0.151895
     8  H    0.155133
     9  H    0.155184
    10  H    0.160213
    11  C   -0.298470
    12  C   -0.299523
    13  C   -0.482340
    14  H    0.149512
    15  H    0.149540
    16  H    0.151992
    17  H    0.151190
    18  H    0.154292
    19  H    0.155161
    20  H    0.168264
    21  C   -0.298371
    22  C   -0.304062
    23  C   -0.475334
    24  H    0.149229
    25  H    0.149471
    26  H    0.157280
    27  H    0.152390
    28  H    0.154878
    29  H    0.154770
    30  H    0.160445
    31  C   -0.300729
    32  C   -0.299563
    33  C   -0.475722
    34  H    0.151097
    35  H    0.150055
    36  H    0.151933
    37  H    0.152116
    38  H    0.155125
    39  H    0.155207
    40  H    0.160284
 Sum of Mulliken charges =  -0.00000

 Dipole moment (field-independent basis, Debye):
    X=             -0.0172    Y=             -0.0011    Z=             -0.0086  Tot=              0.0192
 Quadrupole moment (field-independent basis, Debye-Ang):
   XX=            -85.8287   YY=            -85.7872   ZZ=            -83.2500
   XY=             -1.0761   XZ=              0.3033   YZ=             -0.4892

 Normal termination of Gaussian 16 at Thu May  6 02:09:38 2021.
