 Gaussian 16, Revision A.03,
 Gaussian 16:  EM64L-G16RevA.03 25-Dec-2016

 -------------
 #p 6-31g* mp2
 -------------

 ------------------------------------------------------
 Input file generated by CHIRIPA (05-May-2021 14:55:23)
 ------------------------------------------------------
 Symbolic Z-matrix:
 Charge =  0 Multiplicity = 1

                         Standard orientation:
 ---------------------------------------------------------------------
 Center     Atomic      Atomic             Coordinates (Angstroms)
 Number     Number       Type             X           Y           Z
 ---------------------------------------------------------------------
      1          6           0       -4.174704    1.402983    0.452604
      2          6           0       -2.947315    1.661154   -0.166577
      3          6           0       -2.065147    0.616307   -0.457473
      4          6           0       -2.444152   -0.680438   -0.113819
      5          6           0       -3.659977   -0.969732    0.503731
      6          6           0       -4.526498    0.090678    0.785196
      7          1           0       -4.853916    2.220690    0.674915
      8          1           0       -2.671471    2.679314   -0.426008
      9          1           0       -1.108720    0.787875   -0.936252
     10          1           0       -3.907172   -1.995149    0.750374
     11          1           0       -5.479052   -0.112787    1.266119
     12          7           0       -1.518523   -1.794809   -0.416785
     13          8           0       -1.875882   -2.928408   -0.103919
     14          8           0       -0.453183   -1.513553   -0.961379
     15          6           0        2.604455    0.839351   -0.075046
     16          6           0        2.372619    2.349145   -0.006072
     17          6           0        0.928800    2.740573   -0.322245
     18          1           0        2.336560    0.479097   -1.077740
     19          1           0        1.925296    0.338598    0.628790
     20          1           0        3.052980    2.847001   -0.708826
     21          1           0        2.641279    2.705876    0.996515
     22          1           0        0.238401    2.270481    0.385543
     23          1           0        0.652442    2.412409   -1.329487
     24          1           0        0.785379    3.824206   -0.267193
     25          6           0        4.043116    0.432397    0.238597
     26          6           0        4.274952   -1.077397    0.169624
     27          6           0        5.718771   -1.468826    0.485796
     28          1           0        4.722275    0.933150   -0.465240
     29          1           0        4.311011    0.792651    1.241290
     30          1           0        4.006292   -1.434129   -0.832963
     31          1           0        3.594591   -1.575254    0.872376
     32          1           0        5.995129   -1.140661    1.493038
     33          1           0        6.409170   -0.998734   -0.221993
     34          1           0        5.862193   -2.552459    0.430745
 ---------------------------------------------------------------------

 SCF Done:  E(RHF) =  -669.534816322     A.U. after   15 cycles
 E2 =    -0.2092970537D+01 EUMP2 =    -0.67162778685885D+03

 The electronic state is 1-A.
 Alpha  occ. eigenvalues --  -20.60763 -20.60752 -15.85799 -11.31107 -11.27708
 Alpha  occ. eigenvalues --  -11.27583 -11.27444 -11.26715 -11.26670 -11.21646
 Alpha  occ. eigenvalues --  -11.21572 -11.20971 -11.20923 -11.20885 -11.20537
 Alpha  occ. eigenvalues --   -1.59828  -1.39382  -1.19297  -1.08703  -1.08097
 Alpha  occ. eigenvalues --   -1.04698  -1.03323  -0.95827  -0.95533  -0.86877
 Alpha  occ. eigenvalues --   -0.86085  -0.82371  -0.79424  -0.77849  -0.77359
 Alpha  occ. eigenvalues --   -0.72018  -0.71149  -0.70417  -0.64951  -0.64727
 Alpha  occ. eigenvalues --   -0.64704  -0.62095  -0.60730  -0.59204  -0.57372
 Alpha  occ. eigenvalues --   -0.55204  -0.55125  -0.53070  -0.52864  -0.52539
 Alpha  occ. eigenvalues --   -0.52092  -0.49791  -0.48776  -0.48772  -0.47666
 Alpha  occ. eigenvalues --   -0.46384  -0.45403  -0.45258  -0.44733  -0.43514
 Alpha  occ. eigenvalues --   -0.37291  -0.36264
 Alpha virt. eigenvalues --    0.05061   0.11328   0.16497   0.20994   0.23176
 Alpha virt. eigenvalues --    0.24306   0.26196   0.26938   0.27638   0.28324
 Alpha virt. eigenvalues --    0.29751   0.30172   0.31470   0.31659   0.32272

 Mulliken charges:
               1
     1  C   -0.170586
     2  C   -0.222998
     3  C   -0.175769
     4  C    0.156602
     5  C   -0.170623
     6  C   -0.219127
     7  H    0.225347
     8  H    0.225702
     9  H    0.286432
    10  H    0.275188
    11  H    0.223102
    12  N    0.487963
    13  O   -0.460590
    14  O   -0.460728
    15  C   -0.300170
    16  C   -0.298440
    17  C   -0.486771
    18  H    0.158679
    19  H    0.154251
    20  H    0.152485
    21  H    0.152005
    22  H    0.156447
    23  H    0.152090
    24  H    0.159335
    25  C   -0.299199
    26  C   -0.299417
    27  C   -0.475936
    28  H    0.147154
    29  H    0.146747
    30  H    0.157559
    31  H    0.156307
    32  H    0.152765
    33  H    0.153061
    34  H    0.161134
 Sum of Mulliken charges =  -0.00000

 Dipole moment (field-independent basis, Debye):
    X=             -3.2083    Y=              3.8089    Z=              1.0365  Tot=              5.0868
 Quadrupole moment (field-independent basis, Debye-Ang):
   XX=            -78.3282   YY=            -98.8682   ZZ=            -94.0669
   XY=             -4.8833   XZ=             -4.3949   YZ=             -2.5875

 Normal termination of Gaussian 16 at Thu May  6 09:26:16 2021.
