 Gaussian 16, Revision A.03,
 Gaussian 16:  EM64L-G16RevA.03 25-Dec-2016

 -------------
 #p 6-31g* mp2
 -------------

 ------------------------------------------------------
 Input file generated by CHIRIPA (05-May-2021 14:55:22)
 ------------------------------------------------------
 Symbolic Z-matrix:
 Charge =  0 Multiplicity = 1

                         Standard orientation:
 ---------------------------------------------------------------------
 Center     Atomic      Atomic             Coordinates (Angstroms)
 Number     Number       Type             X           Y           Z
 ---------------------------------------------------------------------
      1          6           0       -0.778597   -1.041704   -0.550373
      2          6           0       -1.065005    0.310056   -0.333034
      3          6           0       -2.371802    0.723601   -0.057700
      4          6           0       -3.372336   -0.245755   -0.006983
      5          6           0       -3.118651   -1.599997   -0.219026
      6          6           0       -1.804525   -1.990743   -0.492777
      7          1           0        0.239401   -1.354101   -0.763644
      8          1           0       -0.270256    1.049294   -0.377147
      9          1           0       -2.621475    1.763514    0.114526
     10          1           0       -3.931970   -2.313707   -0.168554
     11          1           0       -1.585026   -3.041227   -0.661149
     12          7           0       -4.759663    0.179978    0.283663
     13          8           0       -5.623341   -0.693612    0.322858
     14          8           0       -4.957102    1.379197    0.466772
     15          6           0        4.065749   -0.355545    0.135048
     16          6           0        5.499676   -0.878115    0.228633
     17          6           0        5.566932   -2.400146    0.357834
     18          1           0        3.507190   -0.674390    1.025719
     19          1           0        3.569227   -0.820029   -0.728151
     20          1           0        5.993781   -0.411733    1.090587
     21          1           0        6.054940   -0.557826   -0.662273
     22          1           0        5.098752   -2.881244   -0.507008
     23          1           0        5.037246   -2.734321    1.255810
     24          1           0        6.601168   -2.752191    0.423261
     25          6           0        3.982091    1.164302    0.005457
     26          6           0        2.548163    1.686873   -0.088127
     27          6           0        2.480908    3.208904   -0.217329
     28          1           0        4.478613    1.628788    0.868657
     29          1           0        4.540649    1.483149   -0.885214
     30          1           0        1.992901    1.366584    0.802778
     31          1           0        2.054059    1.220490   -0.950081
     32          1           0        3.010594    3.543079   -1.115305
     33          1           0        2.949089    3.690003    0.647514
     34          1           0        1.446672    3.560949   -0.282755
 ---------------------------------------------------------------------

 SCF Done:  E(RHF) =  -669.535331116     A.U. after   15 cycles
 E2 =    -0.2091902238D+01 EUMP2 =    -0.67162723335449D+03

 The electronic state is 1-A.
 Alpha  occ. eigenvalues --  -20.60688 -20.60683 -15.85739 -11.31080 -11.27649
 Alpha  occ. eigenvalues --  -11.27625 -11.27360 -11.26663 -11.26552 -11.22911
 Alpha  occ. eigenvalues --  -11.22457 -11.22412 -11.22372 -11.22148 -11.21805
 Alpha  occ. eigenvalues --   -1.59764  -1.39318  -1.19244  -1.09472  -1.08640
 Alpha  occ. eigenvalues --   -1.04661  -1.04519  -0.96948  -0.95483  -0.87961
 Alpha  occ. eigenvalues --   -0.86048  -0.82318  -0.80654  -0.79308  -0.77359
 Alpha  occ. eigenvalues --   -0.71958  -0.71087  -0.70349  -0.66088  -0.64891
 Alpha  occ. eigenvalues --   -0.64675  -0.62058  -0.61903  -0.60298  -0.58573
 Alpha  occ. eigenvalues --   -0.56204  -0.55126  -0.53645  -0.53372  -0.52977
 Alpha  occ. eigenvalues --   -0.52731  -0.50874  -0.48945  -0.48716  -0.48669
 Alpha  occ. eigenvalues --   -0.47663  -0.46800  -0.46727  -0.44786  -0.44729
 Alpha  occ. eigenvalues --   -0.37222  -0.36244
 Alpha virt. eigenvalues --    0.05159   0.11351   0.16657   0.19663   0.22205
 Alpha virt. eigenvalues --    0.23123   0.24654   0.25715   0.25918   0.28497
 Alpha virt. eigenvalues --    0.29617   0.30323   0.30652   0.31105   0.32239

 Mulliken charges:
               1
     1  C   -0.175918
     2  C   -0.227266
     3  C   -0.173329
     4  C    0.158947
     5  C   -0.171553
     6  C   -0.218551
     7  H    0.227005
     8  H    0.239497
     9  H    0.275263
    10  H    0.275096
    11  H    0.222925
    12  N    0.487984
    13  O   -0.460822
    14  O   -0.460715
    15  C   -0.300252
    16  C   -0.300270
    17  C   -0.476435
    18  H    0.150452
    19  H    0.144213
    20  H    0.154883
    21  H    0.154063
    22  H    0.153954
    23  H    0.155852
    24  H    0.163551
    25  C   -0.296742
    26  C   -0.311045
    27  C   -0.477252
    28  H    0.154308
    29  H    0.153254
    30  H    0.153801
    31  H    0.145346
    32  H    0.160108
    33  H    0.161222
    34  H    0.158427
 Sum of Mulliken charges =  -0.00000

 Dipole moment (field-independent basis, Debye):
    X=              5.2248    Y=             -1.4140    Z=             -0.9707  Tot=              5.4991
 Quadrupole moment (field-independent basis, Debye-Ang):
   XX=           -126.8089   YY=            -90.3319   ZZ=            -94.5712
   XY=              6.0543   XZ=              3.6633   YZ=              0.8365

 Normal termination of Gaussian 16 at Wed May  5 19:01:34 2021.
