 Gaussian 16, Revision A.03,
 Gaussian 16:  EM64L-G16RevA.03 25-Dec-2016

 -------------
 #p 6-31g* mp2
 -------------

 ------------------------------------------------------
 Input file generated by CHIRIPA (05-May-2021 14:57:24)
 ------------------------------------------------------
 Symbolic Z-matrix:
 Charge =  0 Multiplicity = 1

                         Standard orientation:
 ---------------------------------------------------------------------
 Center     Atomic      Atomic             Coordinates (Angstroms)
 Number     Number       Type             X           Y           Z
 ---------------------------------------------------------------------
      1          6           0        1.600106    0.616440   -0.717826
      2          6           0        1.977926   -0.729850   -0.753577
      3          6           0        3.292939   -1.106170   -0.464320
      4          6           0        4.208387   -0.105572   -0.141752
      5          6           0        3.862584    1.244159   -0.097747
      6          6           0        2.541981    1.597418   -0.390602
      7          1           0        0.576401    0.899817   -0.943925
      8          1           0        1.248578   -1.493838   -1.007384
      9          1           0        3.612460   -2.141020   -0.484600
     10          1           0        4.612016    1.983106    0.158625
     11          1           0        2.251394    2.643740   -0.362061
     12          7           0        5.603492   -0.491759    0.166376
     13          8           0        6.391106    0.408878    0.447718
     14          8           0        5.882944   -1.687776    0.120710
     15          6           0       -1.785198    1.114549    0.828944
     16          6           0       -2.788748    1.878691    0.224380
     17          6           0       -4.007914    1.294887   -0.132485
     18          6           0       -4.190493   -0.061773    0.131009
     19          6           0       -3.209977   -0.849615    0.731995
     20          6           0       -1.998639   -0.244769    1.080378
     21          1           0       -0.841162    1.576235    1.102871
     22          1           0       -2.625767    2.934571    0.027912
     23          1           0       -4.801897    1.863069   -0.601715
     24          1           0       -3.401755   -1.899891    0.915189
     25          1           0       -1.221059   -0.840664    1.549765
     26          7           0       -5.477026   -0.690959   -0.242299
     27          8           0       -5.613129   -1.888101    0.000523
     28          8           0       -6.324945    0.024942   -0.770652
 ---------------------------------------------------------------------

 SCF Done:  E(RHF) =  -868.337052508     A.U. after   16 cycles
 E2 =    -0.2600866453D+01 EUMP2 =    -0.87093791896053D+03

 The electronic state is 1-A.
 Alpha  occ. eigenvalues --  -20.61467 -20.61462 -20.61333 -20.61327 -15.86526
 Alpha  occ. eigenvalues --  -15.86391 -11.32079 -11.31900 -11.28645 -11.28641
 Alpha  occ. eigenvalues --  -11.28496 -11.28471 -11.28452 -11.28226 -11.27743
 Alpha  occ. eigenvalues --  -11.27716 -11.27573 -11.27511  -1.60538  -1.60405
 Alpha  occ. eigenvalues --   -1.40086  -1.39954  -1.20276  -1.20094  -1.09669
 Alpha  occ. eigenvalues --   -1.09457  -1.05687  -1.05513  -0.96482  -0.96244
 Alpha  occ. eigenvalues --   -0.87083  -0.86904  -0.83290  -0.83074  -0.78265
 Alpha  occ. eigenvalues --   -0.78116  -0.72738  -0.72604  -0.71865  -0.71732
 Alpha  occ. eigenvalues --   -0.71671  -0.70946  -0.65920  -0.65743  -0.65697
 Alpha  occ. eigenvalues --   -0.65494  -0.63011  -0.62844  -0.56474  -0.55810
 Alpha  occ. eigenvalues --   -0.54013  -0.53813  -0.53755  -0.53596  -0.49513
 Alpha  occ. eigenvalues --   -0.49483  -0.49376  -0.49351  -0.45449  -0.45327
 Alpha  occ. eigenvalues --   -0.38435  -0.37971  -0.37298  -0.37116
 Alpha virt. eigenvalues --    0.04108   0.04487   0.10199   0.10558   0.15395
 Alpha virt. eigenvalues --    0.15952   0.19867   0.21505   0.25688   0.26681
 Alpha virt. eigenvalues --    0.27275   0.28620   0.29955   0.30424   0.31640

 Mulliken charges:
               1
     1  C   -0.180180
     2  C   -0.223126
     3  C   -0.170227
     4  C    0.159010
     5  C   -0.169565
     6  C   -0.222088
     7  H    0.230331
     8  H    0.225973
     9  H    0.277933
    10  H    0.277481
    11  H    0.221600
    12  N    0.487959
    13  O   -0.458861
    14  O   -0.458428
    15  C   -0.181235
    16  C   -0.220221
    17  C   -0.169797
    18  C    0.159761
    19  C   -0.170890
    20  C   -0.222973
    21  H    0.227294
    22  H    0.224567
    23  H    0.278420
    24  H    0.278178
    25  H    0.227376
    26  N    0.487875
    27  O   -0.458152
    28  O   -0.458015
 Sum of Mulliken charges =  -0.00000

 Dipole moment (field-independent basis, Debye):
    X=             -0.4635    Y=              3.4724    Z=              0.2328  Tot=              3.5109
 Quadrupole moment (field-independent basis, Debye-Ang):
   XX=           -182.9346   YY=            -96.9634   ZZ=           -104.9339
   XY=             -3.7711   XZ=             -8.0190   YZ=             -0.8357

 Normal termination of Gaussian 16 at Fri May  7 09:33:57 2021.
