 Gaussian 16, Revision A.03,
 Gaussian 16:  EM64L-G16RevA.03 25-Dec-2016

 -------------
 #p 6-31g* mp2
 -------------

 ------------------------------------------------------
 Input file generated by CHIRIPA (05-May-2021 14:53:14)
 ------------------------------------------------------
 Symbolic Z-matrix:
 Charge =  0 Multiplicity = 1

                         Standard orientation:
 ---------------------------------------------------------------------
 Center     Atomic      Atomic             Coordinates (Angstroms)
 Number     Number       Type             X           Y           Z
 ---------------------------------------------------------------------
      1          6           0       -3.688804   -0.637073    0.294740
      2          6           0       -4.700458   -1.569417   -0.372551
      3          6           0       -4.526650   -3.028938    0.048618
      4          1           0       -2.672203   -0.972761    0.048202
      5          1           0       -3.789105   -0.719236    1.385878
      6          1           0       -4.599222   -1.484487   -1.462117
      7          1           0       -5.714770   -1.231357   -0.124553
      8          1           0       -4.648497   -3.134539    1.131486
      9          1           0       -3.526610   -3.389108   -0.213678
     10          1           0       -5.259991   -3.677893   -0.440186
     11          6           0       -3.849833    0.825397   -0.116330
     12          6           0       -2.838179    1.757741    0.550961
     13          6           0       -3.011987    3.217262    0.129792
     14          1           0       -3.749533    0.907560   -1.207469
     15          1           0       -4.866434    1.161085    0.130207
     16          1           0       -1.823868    1.419681    0.302963
     17          1           0       -2.939416    1.672811    1.640527
     18          1           0       -4.012027    3.577432    0.392087
     19          1           0       -2.890140    3.322863   -0.953076
     20          1           0       -2.278647    3.866217    0.618595
     21          6           0        2.257143    2.343971   -0.290143
     22          6           0        1.324889    1.327151   -0.521446
     23          6           0        1.694771   -0.015799   -0.402194
     24          6           0        3.011258   -0.307282   -0.048379
     25          6           0        3.963089    0.683264    0.188530
     26          6           0        3.570951    2.019355    0.063484
     27          1           0        1.961165    3.384543   -0.385032
     28          1           0        0.303873    1.576299   -0.796214
     29          1           0        0.993349   -0.822872   -0.575564
     30          1           0        4.973571    0.403774    0.460982
     31          1           0        4.297078    2.806946    0.243713
     32          7           0        3.414617   -1.725373    0.080935
     33          8           0        4.580622   -1.955890    0.393873
     34          8           0        2.557126   -2.579503   -0.133095
 ---------------------------------------------------------------------

 SCF Done:  E(RHF) =  -669.535473238     A.U. after   15 cycles
 E2 =    -0.2091256104D+01 EUMP2 =    -0.67162672934224D+03

 The electronic state is 1-A.
 Alpha  occ. eigenvalues --  -20.60765 -20.60760 -15.85819 -11.31188 -11.27764
 Alpha  occ. eigenvalues --  -11.27760 -11.27499 -11.26773 -11.26749 -11.22436
 Alpha  occ. eigenvalues --  -11.22001 -11.21926 -11.21904 -11.21825 -11.21198
 Alpha  occ. eigenvalues --   -1.59840  -1.39394  -1.19362  -1.08990  -1.08754
 Alpha  occ. eigenvalues --   -1.04769  -1.04066  -0.96499  -0.95589  -0.87514
 Alpha  occ. eigenvalues --   -0.86166  -0.82426  -0.80151  -0.78764  -0.77469
 Alpha  occ. eigenvalues --   -0.72037  -0.71163  -0.70469  -0.65677  -0.65014
 Alpha  occ. eigenvalues --   -0.64762  -0.62165  -0.61423  -0.59894  -0.58098
 Alpha  occ. eigenvalues --   -0.55786  -0.55264  -0.53203  -0.53092  -0.52940
 Alpha  occ. eigenvalues --   -0.52841  -0.50439  -0.48803  -0.48792  -0.48435
 Alpha  occ. eigenvalues --   -0.47187  -0.46302  -0.46213  -0.44798  -0.44314
 Alpha  occ. eigenvalues --   -0.37338  -0.36363
 Alpha virt. eigenvalues --    0.05060   0.11240   0.16479   0.19358   0.22904
 Alpha virt. eigenvalues --    0.23607   0.25119   0.26603   0.27146   0.28542
 Alpha virt. eigenvalues --    0.29487   0.29694   0.31136   0.31299   0.32137

 Mulliken charges:
               1
     1  C   -0.297609
     2  C   -0.300231
     3  C   -0.476534
     4  H    0.146233
     5  H    0.152240
     6  H    0.151920
     7  H    0.152588
     8  H    0.156258
     9  H    0.158211
    10  H    0.161575
    11  C   -0.298814
    12  C   -0.303656
    13  C   -0.477140
    14  H    0.148511
    15  H    0.152708
    16  H    0.144056
    17  H    0.157254
    18  H    0.160420
    19  H    0.153244
    20  H    0.158129
    21  C   -0.171709
    22  C   -0.221799
    23  C   -0.172368
    24  C    0.158588
    25  C   -0.170788
    26  C   -0.218565
    27  H    0.226084
    28  H    0.229760
    29  H    0.275127
    30  H    0.275659
    31  H    0.223452
    32  N    0.488143
    33  O   -0.460427
    34  O   -0.460521
 Sum of Mulliken charges =  -0.00000

 Dipole moment (field-independent basis, Debye):
    X=             -1.5645    Y=              4.9617    Z=             -0.4022  Tot=              5.2180
 Quadrupole moment (field-independent basis, Debye-Ang):
   XX=            -97.8798   YY=            -98.9943   ZZ=            -94.6871
   XY=             17.1710   XZ=             -0.6950   YZ=              0.6950

 Normal termination of Gaussian 16 at Wed May  5 17:07:24 2021.
