 Gaussian 16, Revision A.03,
 Gaussian 16:  EM64L-G16RevA.03 25-Dec-2016

 -------------
 #p 6-31g* mp2
 -------------

 ------------------------------------------------------
 Input file generated by CHIRIPA (05-May-2021 14:51:12)
 ------------------------------------------------------
 Symbolic Z-matrix:
 Charge =  0 Multiplicity = 1

                         Standard orientation:
 ---------------------------------------------------------------------
 Center     Atomic      Atomic             Coordinates (Angstroms)
 Number     Number       Type             X           Y           Z
 ---------------------------------------------------------------------
      1          6           0        2.709893   -0.889265    0.443211
      2          6           0        1.264208   -0.830911    0.937755
      3          6           0        0.706434   -2.208323    1.297503
      4          1           0        2.764431   -1.548945   -0.433597
      5          1           0        3.337372   -1.348649    1.219504
      6          1           0        0.639883   -0.370511    0.161311
      7          1           0        1.213072   -0.171140    1.813372
      8          1           0        1.304817   -2.671639    2.088626
      9          1           0        0.728371   -2.872142    0.427179
     10          1           0       -0.328147   -2.143318    1.648610
     11          6           0        3.281535    0.479958    0.079640
     12          6           0        4.727220    0.421604   -0.414904
     13          6           0        5.284994    1.799016   -0.774652
     14          1           0        2.654056    0.939343   -0.696653
     15          1           0        3.226997    1.139639    0.956448
     16          1           0        4.778356   -0.238166   -1.290521
     17          1           0        5.351545   -0.038796    0.361540
     18          1           0        5.263057    2.462835    0.095672
     19          1           0        4.686611    2.262332   -1.565776
     20          1           0        6.319575    1.734011   -1.125759
     21          6           0       -2.892133    0.950546   -0.389277
     22          6           0       -3.676771    1.845056    0.571026
     23          6           0       -3.459245    3.334498    0.302629
     24          1           0       -1.822221    1.186663   -0.308754
     25          1           0       -3.187139    1.184981   -1.421462
     26          1           0       -3.381382    1.608041    1.601164
     27          1           0       -4.744920    1.606649    0.488347
     28          1           0       -3.771765    3.592326   -0.714454
     29          1           0       -2.400479    3.593724    0.404685
     30          1           0       -4.029398    3.955638    1.000462
     31          6           0       -3.099296   -0.541240   -0.133574
     32          6           0       -2.314657   -1.435749   -1.093877
     33          6           0       -2.532183   -2.925191   -0.825480
     34          1           0       -2.804289   -0.775674    0.898612
     35          1           0       -4.169208   -0.777356   -0.214096
     36          1           0       -1.246508   -1.197343   -1.011198
     37          1           0       -2.610047   -1.198734   -2.124014
     38          1           0       -3.590950   -3.184418   -0.927536
     39          1           0       -2.219664   -3.183019    0.191604
     40          1           0       -1.962031   -3.546332   -1.523313
 ---------------------------------------------------------------------

 SCF Done:  E(RHF) =  -470.732569511     A.U. after   11 cycles
 E2 =    -0.1584374091D+01 EUMP2 =    -0.47231694360148D+03

 The electronic state is 1-A.
 Alpha  occ. eigenvalues --  -11.21675 -11.21634 -11.21590 -11.21533 -11.21457
 Alpha  occ. eigenvalues --  -11.21397 -11.21391 -11.21332 -11.21128 -11.21094
 Alpha  occ. eigenvalues --  -11.21059 -11.20989  -1.08504  -1.08394  -1.03631
 Alpha  occ. eigenvalues --   -1.03457  -0.96059  -0.95923  -0.87064  -0.86951
 Alpha  occ. eigenvalues --   -0.79696  -0.79531  -0.78338  -0.78188  -0.65320
 Alpha  occ. eigenvalues --   -0.64908  -0.61297  -0.60670  -0.59356  -0.59298
 Alpha  occ. eigenvalues --   -0.57633  -0.57550  -0.55461  -0.55081  -0.52730
 Alpha  occ. eigenvalues --   -0.52646  -0.52452  -0.52360  -0.50061  -0.49802
 Alpha  occ. eigenvalues --   -0.48007  -0.47880  -0.46894  -0.46474  -0.46008
 Alpha  occ. eigenvalues --   -0.45803  -0.45734  -0.45356  -0.43811  -0.43756
 Alpha virt. eigenvalues --    0.19889   0.23101   0.23559   0.24741   0.25742
 Alpha virt. eigenvalues --    0.25962   0.26805   0.27688   0.28741   0.29377
 Alpha virt. eigenvalues --    0.29958   0.31092   0.31754   0.31928   0.32386

 Mulliken charges:
               1
     1  C   -0.298041
     2  C   -0.307254
     3  C   -0.479020
     4  H    0.149852
     5  H    0.149936
     6  H    0.157278
     7  H    0.152083
     8  H    0.155637
     9  H    0.157508
    10  H    0.162438
    11  C   -0.298478
    12  C   -0.299694
    13  C   -0.475774
    14  H    0.149556
    15  H    0.149670
    16  H    0.152091
    17  H    0.152027
    18  H    0.155203
    19  H    0.155313
    20  H    0.160395
    21  C   -0.300437
    22  C   -0.299526
    23  C   -0.475792
    24  H    0.151261
    25  H    0.149420
    26  H    0.151971
    27  H    0.151929
    28  H    0.155080
    29  H    0.155368
    30  H    0.160196
    31  C   -0.299182
    32  C   -0.306356
    33  C   -0.476900
    34  H    0.149843
    35  H    0.149853
    36  H    0.159090
    37  H    0.151570
    38  H    0.154310
    39  H    0.158529
    40  H    0.159045
 Sum of Mulliken charges =  -0.00000

 Dipole moment (field-independent basis, Debye):
    X=              0.0392    Y=             -0.0081    Z=              0.0128  Tot=              0.0420
 Quadrupole moment (field-independent basis, Debye-Ang):
   XX=            -84.3951   YY=            -86.8547   ZZ=            -83.5573
   XY=             -0.5742   XZ=              0.9545   YZ=              0.4240

 Normal termination of Gaussian 16 at Thu May  6 07:05:07 2021.
