 Gaussian 16, Revision A.03,
 Gaussian 16:  EM64L-G16RevA.03 25-Dec-2016

 -------------
 #p 6-31g* mp2
 -------------

 ------------------------------------------------------
 Input file generated by CHIRIPA (05-May-2021 14:51:13)
 ------------------------------------------------------
 Symbolic Z-matrix:
 Charge =  0 Multiplicity = 1

                         Standard orientation:
 ---------------------------------------------------------------------
 Center     Atomic      Atomic             Coordinates (Angstroms)
 Number     Number       Type             X           Y           Z
 ---------------------------------------------------------------------
      1          6           0       -5.462142   -0.477122   -0.249211
      2          6           0       -6.761526    0.063804    0.348269
      3          6           0       -8.005550   -0.598103   -0.245093
      4          1           0       -5.475729   -0.326406   -1.337350
      5          1           0       -5.414968   -1.562507   -0.084559
      6          1           0       -6.805585    1.148060    0.183757
      7          1           0       -6.744761   -0.088045    1.435135
      8          1           0       -7.988538   -1.678413   -0.068336
      9          1           0       -8.049707   -0.435285   -1.326824
     10          1           0       -8.923101   -0.196543    0.196164
     11          6           0       -4.209702    0.174851    0.333929
     12          6           0       -2.910317   -0.366075   -0.263551
     13          6           0       -1.666294    0.295832    0.329811
     14          1           0       -4.256876    1.260235    0.169277
     15          1           0       -4.196115    0.024134    1.422068
     16          1           0       -2.927083   -0.214227   -1.350417
     17          1           0       -2.866259   -1.450331   -0.099039
     18          1           0       -1.622137    0.133014    1.411542
     19          1           0       -1.683306    1.376141    0.153054
     20          1           0       -0.748743   -0.105729   -0.111446
     21          6           0        5.268928   -0.476686   -0.000192
     22          6           0        6.768413   -0.178528    0.024977
     23          6           0        7.621539   -1.444557    0.109475
     24          1           0        4.998955   -1.042957    0.901692
     25          1           0        5.045999   -1.128009   -0.856624
     26          1           0        6.988237    0.473166    0.880306
     27          1           0        7.034814    0.387266   -0.876979
     28          1           0        7.431345   -2.095342   -0.750121
     29          1           0        7.384503   -2.008954    1.017150
     30          1           0        8.690061   -1.208254    0.126246
     31          6           0        4.402915    0.778957   -0.084525
     32          6           0        2.903431    0.480799   -0.109695
     33          6           0        2.050305    1.746829   -0.194194
     34          1           0        4.625846    1.430280    0.771906
     35          1           0        4.672889    1.345228   -0.986410
     36          1           0        2.637031   -0.084995    0.792261
     37          1           0        2.683608   -0.170895   -0.965024
     38          1           0        2.287340    2.311225   -1.101867
     39          1           0        2.240498    2.397614    0.665402
     40          1           0        0.981784    1.510525   -0.210964
 ---------------------------------------------------------------------

 SCF Done:  E(RHF) =  -470.732944641     A.U. after   11 cycles
 E2 =    -0.1582464803D+01 EUMP2 =    -0.47231540944365D+03

 The electronic state is 1-A.
 Alpha  occ. eigenvalues --  -11.21629 -11.21611 -11.21573 -11.21535 -11.21422
 Alpha  occ. eigenvalues --  -11.21362 -11.21361 -11.21300 -11.21113 -11.21078
 Alpha  occ. eigenvalues --  -11.21050 -11.20883  -1.08451  -1.08379  -1.03565
 Alpha  occ. eigenvalues --   -1.03461  -0.96045  -0.95883  -0.87090  -0.86876
 Alpha  occ. eigenvalues --   -0.79644  -0.79514  -0.78261  -0.78196  -0.65080
 Alpha  occ. eigenvalues --   -0.65011  -0.60959  -0.60866  -0.59650  -0.59096
 Alpha  occ. eigenvalues --   -0.57691  -0.57444  -0.55298  -0.55198  -0.53032
 Alpha  occ. eigenvalues --   -0.52472  -0.52419  -0.52123  -0.49940  -0.49855
 Alpha  occ. eigenvalues --   -0.47936  -0.47845  -0.46645  -0.46572  -0.45804
 Alpha  occ. eigenvalues --   -0.45739  -0.45723  -0.45665  -0.43933  -0.43556
 Alpha virt. eigenvalues --    0.22333   0.22970   0.23516   0.24862   0.26591
 Alpha virt. eigenvalues --    0.26693   0.26909   0.27396   0.27663   0.28818
 Alpha virt. eigenvalues --    0.30820   0.31027   0.31466   0.31619   0.32281

 Mulliken charges:
               1
     1  C   -0.298328
     2  C   -0.299648
     3  C   -0.475715
     4  H    0.149702
     5  H    0.149564
     6  H    0.151987
     7  H    0.151958
     8  H    0.155191
     9  H    0.155203
    10  H    0.160298
    11  C   -0.298725
    12  C   -0.299607
    13  C   -0.479825
    14  H    0.149742
    15  H    0.149692
    16  H    0.152189
    17  H    0.152081
    18  H    0.155846
    19  H    0.156157
    20  H    0.163679
    21  C   -0.298225
    22  C   -0.299608
    23  C   -0.475671
    24  H    0.149527
    25  H    0.149328
    26  H    0.151893
    27  H    0.151880
    28  H    0.155109
    29  H    0.155119
    30  H    0.160157
    31  C   -0.298104
    32  C   -0.299421
    33  C   -0.485026
    34  H    0.149523
    35  H    0.149537
    36  H    0.151891
    37  H    0.150808
    38  H    0.153884
    39  H    0.154389
    40  H    0.171569
 Sum of Mulliken charges =  -0.00000

 Dipole moment (field-independent basis, Debye):
    X=             -0.0600    Y=             -0.0079    Z=              0.0096  Tot=              0.0613
 Quadrupole moment (field-independent basis, Debye-Ang):
   XX=            -86.5073   YY=            -85.1423   ZZ=            -83.3000
   XY=              0.1613   XZ=             -0.3573   YZ=             -0.5579

 Normal termination of Gaussian 16 at Thu May  6 03:59:43 2021.
