 Gaussian 16, Revision A.03,
 Gaussian 16:  EM64L-G16RevA.03 25-Dec-2016

 -------------
 #p 6-31g* mp2
 -------------

 ------------------------------------------------------
 Input file generated by CHIRIPA (05-May-2021 14:55:20)
 ------------------------------------------------------
 Symbolic Z-matrix:
 Charge =  0 Multiplicity = 1

                         Standard orientation:
 ---------------------------------------------------------------------
 Center     Atomic      Atomic             Coordinates (Angstroms)
 Number     Number       Type             X           Y           Z
 ---------------------------------------------------------------------
      1          6           0        0.298985   -2.727212    0.373391
      2          6           0        0.587226   -1.881552    1.449634
      3          6           0        1.471402   -0.809907    1.293562
      4          6           0        2.052040   -0.612244    0.041732
      5          6           0        1.784978   -1.437287   -1.049722
      6          6           0        0.897725   -2.502776   -0.870658
      7          1           0       -0.389060   -3.557300    0.503562
      8          1           0        0.123707   -2.053452    2.416922
      9          1           0        1.712301   -0.139776    2.109840
     10          1           0        2.262533   -1.240641   -2.001924
     11          1           0        0.675734   -3.157907   -1.708255
     12          7           0        2.989707    0.518999   -0.135664
     13          8           0        3.488166    0.671791   -1.248692
     14          8           0        3.208435    1.231457    0.841679
     15          6           0       -2.213129    1.740157    0.056220
     16          6           0       -0.724570    1.988522   -0.189725
     17          6           0       -0.308366    3.429144    0.108901
     18          1           0       -2.800956    2.429477   -0.565263
     19          1           0       -2.450308    1.982143    1.101488
     20          1           0       -0.489989    1.744820   -1.233850
     21          1           0       -0.140221    1.298399    0.432274
     22          1           0       -0.514084    3.680728    1.154361
     23          1           0       -0.865840    4.129686   -0.521230
     24          1           0        0.759523    3.584553   -0.073639
     25          6           0       -2.644475    0.304482   -0.237902
     26          6           0       -4.133034    0.056116    0.008044
     27          6           0       -4.549238   -1.384505   -0.290582
     28          1           0       -2.407296    0.062496   -1.283169
     29          1           0       -2.056649   -0.384838    0.383583
     30          1           0       -4.717383    0.746240   -0.613955
     31          1           0       -4.367615    0.299819    1.052169
     32          1           0       -3.991765   -2.085047    0.339549
     33          1           0       -4.343521   -1.636090   -1.336042
     34          1           0       -5.617127   -1.539914   -0.108041
 ---------------------------------------------------------------------

 SCF Done:  E(RHF) =  -669.534647268     A.U. after   15 cycles
 E2 =    -0.2095234766D+01 EUMP2 =    -0.67162988203408D+03

 The electronic state is 1-A.
 Alpha  occ. eigenvalues --  -20.60869 -20.60853 -15.85901 -11.31243 -11.27834
 Alpha  occ. eigenvalues --  -11.27824 -11.27599 -11.26877 -11.26848 -11.21844
 Alpha  occ. eigenvalues --  -11.21512 -11.21459 -11.21346 -11.21285 -11.20571
 Alpha  occ. eigenvalues --   -1.59928  -1.39483  -1.19456  -1.08845  -1.08458
 Alpha  occ. eigenvalues --   -1.04865  -1.03529  -0.95970  -0.95678  -0.86988
 Alpha  occ. eigenvalues --   -0.86259  -0.82511  -0.79625  -0.78273  -0.77555
 Alpha  occ. eigenvalues --   -0.72125  -0.71247  -0.70562  -0.65147  -0.65079
 Alpha  occ. eigenvalues --   -0.64861  -0.62208  -0.60952  -0.59367  -0.57564
 Alpha  occ. eigenvalues --   -0.55357  -0.55282  -0.53313  -0.52949  -0.52591
 Alpha  occ. eigenvalues --   -0.52402  -0.49945  -0.48888  -0.48879  -0.47942
 Alpha  occ. eigenvalues --   -0.46696  -0.45755  -0.45694  -0.44846  -0.43751
 Alpha  occ. eigenvalues --   -0.37338  -0.36392
 Alpha virt. eigenvalues --    0.04947   0.11065   0.16448   0.21092   0.22920
 Alpha virt. eigenvalues --    0.24196   0.26413   0.27116   0.27480   0.27878
 Alpha virt. eigenvalues --    0.28275   0.30865   0.31451   0.31586   0.32221

 Mulliken charges:
               1
     1  C   -0.169321
     2  C   -0.216721
     3  C   -0.178266
     4  C    0.166022
     5  C   -0.170995
     6  C   -0.217087
     7  H    0.226590
     8  H    0.223967
     9  H    0.275926
    10  H    0.275835
    11  H    0.224056
    12  N    0.489371
    13  O   -0.460086
    14  O   -0.460786
    15  C   -0.297163
    16  C   -0.307570
    17  C   -0.476930
    18  H    0.149938
    19  H    0.147323
    20  H    0.151031
    21  H    0.154938
    22  H    0.152764
    23  H    0.152805
    24  H    0.172884
    25  C   -0.301160
    26  C   -0.299411
    27  C   -0.474046
    28  H    0.148025
    29  H    0.149617
    30  H    0.153536
    31  H    0.151112
    32  H    0.147906
    33  H    0.154520
    34  H    0.161376
 Sum of Mulliken charges =  -0.00000

 Dipole moment (field-independent basis, Debye):
    X=             -3.1261    Y=             -3.9909    Z=              0.5941  Tot=              5.1042
 Quadrupole moment (field-independent basis, Debye-Ang):
   XX=           -109.5188   YY=            -90.9446   ZZ=            -89.2487
   XY=             -6.8102   XZ=              0.5844   YZ=              0.4328

 Normal termination of Gaussian 16 at Wed May  5 23:47:33 2021.
