 Gaussian 16, Revision A.03,
 Gaussian 16:  EM64L-G16RevA.03 25-Dec-2016

 -------------
 #p 6-31g* mp2
 -------------

 ------------------------------------------------------
 Input file generated by CHIRIPA (05-May-2021 14:57:23)
 ------------------------------------------------------
 Symbolic Z-matrix:
 Charge =  0 Multiplicity = 1

                         Standard orientation:
 ---------------------------------------------------------------------
 Center     Atomic      Atomic             Coordinates (Angstroms)
 Number     Number       Type             X           Y           Z
 ---------------------------------------------------------------------
      1          6           0       -2.124896    2.402159   -1.289765
      2          6           0       -3.142970    2.431215   -0.331015
      3          6           0       -3.554560    1.255363    0.303424
      4          6           0       -2.923534    0.062668   -0.046684
      5          6           0       -1.906321    0.001249   -0.997892
      6          6           0       -1.510903    1.189407   -1.619562
      7          1           0       -1.811444    3.320369   -1.777653
      8          1           0       -3.621589    3.371611   -0.072900
      9          1           0       -4.340178    1.249207    1.049202
     10          1           0       -1.448009   -0.951388   -1.234218
     11          1           0       -0.719987    1.163838   -2.363768
     12          7           0       -3.350705   -1.188667    0.618209
     13          8           0       -2.778898   -2.226597    0.292055
     14          8           0       -4.249241   -1.107841    1.452917
     15          6           0        3.911117    1.820632    1.094577
     16          6           0        4.433477    1.229637   -0.060578
     17          6           0        3.855347    0.071743   -0.589349
     18          6           0        2.750849   -0.470912    0.065554
     19          6           0        2.207404    0.094523    1.218048
     20          6           0        2.801704    1.252192    1.729085
     21          1           0        4.366502    2.720025    1.498451
     22          1           0        5.294983    1.668903   -0.555447
     23          1           0        4.239443   -0.406425   -1.482234
     24          1           0        1.347796   -0.366453    1.689209
     25          1           0        2.393905    1.709005    2.626340
     26          7           0        2.130250   -1.696603   -0.484844
     27          8           0        1.157874   -2.155186    0.110826
     28          8           0        2.627951   -2.175508   -1.501496
 ---------------------------------------------------------------------

 SCF Done:  E(RHF) =  -868.337575249     A.U. after   16 cycles
 E2 =    -0.2600116365D+01 EUMP2 =    -0.87093769161385D+03

 The electronic state is 1-A.
 Alpha  occ. eigenvalues --  -20.61077 -20.61041 -20.60232 -20.60152 -15.86090
 Alpha  occ. eigenvalues --  -15.85249 -11.31477 -11.30780 -11.28066 -11.28015
 Alpha  occ. eigenvalues --  -11.27797 -11.27445 -11.27261 -11.27224 -11.27074
 Alpha  occ. eigenvalues --  -11.27037 -11.26495 -11.26415  -1.60141  -1.59277
 Alpha  occ. eigenvalues --   -1.39685  -1.38816  -1.19656  -1.18995  -1.09050
 Alpha  occ. eigenvalues --   -1.08371  -1.05051  -1.04413  -0.95873  -0.95163
 Alpha  occ. eigenvalues --   -0.86448  -0.85800  -0.82691  -0.81984  -0.77743
 Alpha  occ. eigenvalues --   -0.76984  -0.72283  -0.71512  -0.71436  -0.70751
 Alpha  occ. eigenvalues --   -0.70614  -0.70087  -0.65298  -0.65045  -0.64638
 Alpha  occ. eigenvalues --   -0.64415  -0.62387  -0.61723  -0.55553  -0.54937
 Alpha  occ. eigenvalues --   -0.53399  -0.53135  -0.52760  -0.52492  -0.49073
 Alpha  occ. eigenvalues --   -0.49051  -0.48256  -0.48194  -0.45075  -0.44178
 Alpha  occ. eigenvalues --   -0.37653  -0.37023  -0.36666  -0.36023
 Alpha virt. eigenvalues --    0.04740   0.05533   0.10989   0.11614   0.16229
 Alpha virt. eigenvalues --    0.16964   0.21158   0.21750   0.27084   0.27595
 Alpha virt. eigenvalues --    0.28051   0.28707   0.30715   0.31289   0.32253

 Mulliken charges:
               1
     1  C   -0.171776
     2  C   -0.220145
     3  C   -0.172411
     4  C    0.154748
     5  C   -0.173855
     6  C   -0.221783
     7  H    0.222678
     8  H    0.220716
     9  H    0.274084
    10  H    0.291124
    11  H    0.223176
    12  N    0.486439
    13  O   -0.449294
    14  O   -0.465853
    15  C   -0.171307
    16  C   -0.219206
    17  C   -0.172648
    18  C    0.155581
    19  C   -0.170642
    20  C   -0.218920
    21  H    0.225931
    22  H    0.223574
    23  H    0.275445
    24  H    0.279490
    25  H    0.224921
    26  N    0.484778
    27  O   -0.453868
    28  O   -0.460981
 Sum of Mulliken charges =  -0.00000

 Dipole moment (field-independent basis, Debye):
    X=              3.8181    Y=              8.4773    Z=             -0.3650  Tot=              9.3046
 Quadrupole moment (field-independent basis, Debye-Ang):
   XX=            -98.5606   YY=           -108.1493   ZZ=           -101.1336
   XY=             -3.3872   XZ=              7.7040   YZ=              0.7613

 Normal termination of Gaussian 16 at Fri May  7 09:31:27 2021.
