 Gaussian 16, Revision A.03,
 Gaussian 16:  EM64L-G16RevA.03 25-Dec-2016

 -------------
 #p 6-31g* mp2
 -------------

 ------------------------------------------------------
 Input file generated by CHIRIPA (05-May-2021 14:51:08)
 ------------------------------------------------------
 Symbolic Z-matrix:
 Charge =  0 Multiplicity = 1

                         Standard orientation:
 ---------------------------------------------------------------------
 Center     Atomic      Atomic             Coordinates (Angstroms)
 Number     Number       Type             X           Y           Z
 ---------------------------------------------------------------------
      1          6           0        3.091381   -0.609150   -0.126525
      2          6           0        3.032295   -1.584928   -1.302259
      3          6           0        2.866184   -3.038086   -0.856686
      4          1           0        3.924190   -0.889460    0.532870
      5          1           0        2.173682   -0.708222    0.469637
      6          1           0        3.949219   -1.483063   -1.896809
      7          1           0        2.199648   -1.302148   -1.959032
      8          1           0        1.942692   -3.161580   -0.281784
      9          1           0        3.702204   -3.343523   -0.219207
     10          1           0        2.826279   -3.718508   -1.713012
     11          6           0        3.257277    0.847499   -0.555918
     12          6           0        3.316363    1.823277    0.619816
     13          6           0        3.482474    3.276434    0.174244
     14          1           0        4.174976    0.946571   -1.152080
     15          1           0        2.424468    1.127809   -1.215312
     16          1           0        4.149010    1.540497    1.276589
     17          1           0        2.399439    1.721412    1.214366
     18          1           0        2.646454    3.581872   -0.463236
     19          1           0        4.405966    3.399929   -0.400659
     20          1           0        3.522379    3.956857    1.030569
     21          6           0       -3.919665   -0.112224    0.174316
     22          6           0       -4.272154    0.816764   -0.987887
     23          6           0       -5.766851    0.819817   -1.309861
     24          1           0       -4.245997   -1.132781   -0.068410
     25          1           0       -4.486773    0.193918    1.064293
     26          1           0       -3.703507    0.509816   -1.875040
     27          1           0       -3.944773    1.835192   -0.742447
     28          1           0       -6.347366    1.147081   -0.441241
     29          1           0       -6.104729   -0.185827   -1.580269
     30          1           0       -5.996544    1.490533   -2.143673
     31          6           0       -2.428993   -0.126124    0.508127
     32          6           0       -2.076504   -1.055113    1.670331
     33          6           0       -0.581807   -1.058166    1.992304
     34          1           0       -1.861885   -0.432268   -0.381851
     35          1           0       -2.102661    0.894433    0.750853
     36          1           0       -2.403885   -2.073542    1.424890
     37          1           0       -2.645151   -0.748164    2.557483
     38          1           0       -0.243929   -0.052522    2.262712
     39          1           0       -0.001292   -1.385430    1.123684
     40          1           0       -0.352114   -1.728881    2.826116
 ---------------------------------------------------------------------

 SCF Done:  E(RHF) =  -470.733182791     A.U. after   11 cycles
 E2 =    -0.1583057848D+01 EUMP2 =    -0.47231624063843D+03

 The electronic state is 1-A.
 Alpha  occ. eigenvalues --  -11.21678 -11.21644 -11.21568 -11.21555 -11.21469
 Alpha  occ. eigenvalues --  -11.21406 -11.21327 -11.21243 -11.21171 -11.21103
 Alpha  occ. eigenvalues --  -11.21063 -11.21039  -1.08494  -1.08373  -1.03597
 Alpha  occ. eigenvalues --   -1.03492  -0.96052  -0.95935  -0.87074  -0.86951
 Alpha  occ. eigenvalues --   -0.79679  -0.79542  -0.78324  -0.78160  -0.65148
 Alpha  occ. eigenvalues --   -0.64999  -0.61056  -0.60839  -0.59411  -0.59308
 Alpha  occ. eigenvalues --   -0.57679  -0.57534  -0.55352  -0.55221  -0.52741
 Alpha  occ. eigenvalues --   -0.52647  -0.52520  -0.52331  -0.50036  -0.49862
 Alpha  occ. eigenvalues --   -0.48055  -0.47847  -0.46778  -0.46509  -0.45967
 Alpha  occ. eigenvalues --   -0.45779  -0.45704  -0.45385  -0.43847  -0.43735
 Alpha virt. eigenvalues --    0.20765   0.23083   0.23585   0.24490   0.25615
 Alpha virt. eigenvalues --    0.26512   0.27176   0.27638   0.27850   0.29516
 Alpha virt. eigenvalues --    0.29820   0.31582   0.31770   0.31913   0.32206

 Mulliken charges:
               1
     1  C   -0.307388
     2  C   -0.299290
     3  C   -0.477289
     4  H    0.149240
     5  H    0.159894
     6  H    0.151913
     7  H    0.150976
     8  H    0.155732
     9  H    0.155559
    10  H    0.160063
    11  C   -0.297546
    12  C   -0.300262
    13  C   -0.475718
    14  H    0.149129
    15  H    0.149369
    16  H    0.151895
    17  H    0.152477
    18  H    0.155096
    19  H    0.155134
    20  H    0.159958
    21  C   -0.298324
    22  C   -0.299718
    23  C   -0.475751
    24  H    0.149861
    25  H    0.149750
    26  H    0.151913
    27  H    0.151977
    28  H    0.155278
    29  H    0.155281
    30  H    0.160400
    31  C   -0.298341
    32  C   -0.299768
    33  C   -0.481788
    34  H    0.149068
    35  H    0.149571
    36  H    0.152314
    37  H    0.152375
    38  H    0.155753
    39  H    0.159717
    40  H    0.161491
 Sum of Mulliken charges =  -0.00000

 Dipole moment (field-independent basis, Debye):
    X=             -0.0405    Y=             -0.0093    Z=              0.0309  Tot=              0.0518
 Quadrupole moment (field-independent basis, Debye-Ang):
   XX=            -84.8699   YY=            -85.4342   ZZ=            -84.4930
   XY=             -0.2441   XZ=             -0.3691   YZ=              0.6891

 Normal termination of Gaussian 16 at Thu May  6 06:53:00 2021.
