 Gaussian 16, Revision A.03,
 Gaussian 16:  EM64L-G16RevA.03 25-Dec-2016

 -------------
 #p 6-31g* mp2
 -------------

 ------------------------------------------------------
 Input file generated by CHIRIPA (05-May-2021 14:53:14)
 ------------------------------------------------------
 Symbolic Z-matrix:
 Charge =  0 Multiplicity = 1

                         Standard orientation:
 ---------------------------------------------------------------------
 Center     Atomic      Atomic             Coordinates (Angstroms)
 Number     Number       Type             X           Y           Z
 ---------------------------------------------------------------------
      1          6           0       -3.110853   -0.731685   -0.185015
      2          6           0       -4.325386   -1.654040   -0.074752
      3          6           0       -3.956037   -3.133610   -0.185423
      4          1           0       -2.605565   -0.914253   -1.143294
      5          1           0       -2.389899   -0.990506    0.602786
      6          1           0       -5.044450   -1.392643   -0.861667
      7          1           0       -4.827952   -1.469119    0.883292
      8          1           0       -3.256770   -3.416503    0.608049
      9          1           0       -3.474498   -3.339592   -1.146824
     10          1           0       -4.839111   -3.775019   -0.103970
     11          6           0       -3.463985    0.750608   -0.076237
     12          6           0       -2.249452    1.672962   -0.186501
     13          6           0       -2.618801    3.152533   -0.075830
     14          1           0       -4.184939    1.009429   -0.864039
     15          1           0       -3.969273    0.933176    0.882041
     16          1           0       -1.746886    1.488042   -1.144545
     17          1           0       -1.530388    1.411566    0.600414
     18          1           0       -3.100340    3.358515    0.885571
     19          1           0       -3.318068    3.435426   -0.869302
     20          1           0       -1.735727    3.793942   -0.157282
     21          6           0        1.619437    2.323248    0.285647
     22          6           0        2.566014    2.028554   -0.701100
     23          6           0        3.098534    0.740669   -0.812100
     24          6           0        2.660028   -0.232710    0.084302
     25          6           0        1.718339    0.029862    1.078067
     26          6           0        1.199362    1.324722    1.170522
     27          1           0        1.211023    3.326418    0.364672
     28          1           0        2.894098    2.802037   -1.389672
     29          1           0        3.832584    0.485138   -1.566615
     30          1           0        1.410754   -0.762116    1.750065
     31          1           0        0.464368    1.550714    1.937827
     32          7           0        3.216615   -1.599828   -0.023392
     33          8           0        2.813857   -2.439703    0.778502
     34          8           0        4.045086   -1.805614   -0.907657
 ---------------------------------------------------------------------

 SCF Done:  E(RHF) =  -669.534367030     A.U. after   15 cycles
 E2 =    -0.2092949222D+01 EUMP2 =    -0.67162731625218D+03

 The electronic state is 1-A.
 Alpha  occ. eigenvalues --  -20.60772 -20.60767 -15.85826 -11.31202 -11.27762
 Alpha  occ. eigenvalues --  -11.27758 -11.27504 -11.26792 -11.26779 -11.22143
 Alpha  occ. eigenvalues --  -11.21867 -11.21816 -11.21788 -11.21665 -11.21116
 Alpha  occ. eigenvalues --   -1.59847  -1.39400  -1.19376  -1.08846  -1.08746
 Alpha  occ. eigenvalues --   -1.04790  -1.03930  -0.96386  -0.95598  -0.87398
 Alpha  occ. eigenvalues --   -0.86190  -0.82439  -0.80007  -0.78608  -0.77478
 Alpha  occ. eigenvalues --   -0.72045  -0.71169  -0.70479  -0.65516  -0.65029
 Alpha  occ. eigenvalues --   -0.64784  -0.62170  -0.61300  -0.59798  -0.57990
 Alpha  occ. eigenvalues --   -0.55666  -0.55286  -0.53198  -0.53030  -0.52913
 Alpha  occ. eigenvalues --   -0.52766  -0.50309  -0.48812  -0.48798  -0.48291
 Alpha  occ. eigenvalues --   -0.47027  -0.46142  -0.46060  -0.44803  -0.44181
 Alpha  occ. eigenvalues --   -0.37308  -0.36324
 Alpha virt. eigenvalues --    0.05029   0.11190   0.16418   0.19912   0.22852
 Alpha virt. eigenvalues --    0.23961   0.25493   0.26421   0.26781   0.28416
 Alpha virt. eigenvalues --    0.28870   0.29592   0.31194   0.31795   0.32388

 Mulliken charges:
               1
     1  C   -0.297457
     2  C   -0.300121
     3  C   -0.476104
     4  H    0.152332
     5  H    0.146912
     6  H    0.152241
     7  H    0.151247
     8  H    0.156916
     9  H    0.157159
    10  H    0.160874
    11  C   -0.298628
    12  C   -0.301481
    13  C   -0.476428
    14  H    0.150833
    15  H    0.148542
    16  H    0.155277
    17  H    0.148377
    18  H    0.155415
    19  H    0.159628
    20  H    0.150767
    21  C   -0.169338
    22  C   -0.219028
    23  C   -0.170921
    24  C    0.158803
    25  C   -0.172109
    26  C   -0.215387
    27  H    0.226738
    28  H    0.223535
    29  H    0.275583
    30  H    0.275267
    31  H    0.223274
    32  N    0.488085
    33  O   -0.460377
    34  O   -0.460424
 Sum of Mulliken charges =  -0.00000

 Dipole moment (field-independent basis, Debye):
    X=             -1.9937    Y=              4.7350    Z=              0.3160  Tot=              5.1473
 Quadrupole moment (field-independent basis, Debye-Ang):
   XX=           -104.0556   YY=            -98.5317   ZZ=            -90.9957
   XY=             14.6432   XZ=             -1.4137   YZ=             -1.1457

 Normal termination of Gaussian 16 at Wed May  5 21:51:53 2021.
