 Gaussian 16, Revision A.03,
 Gaussian 16:  EM64L-G16RevA.03 25-Dec-2016

 -------------
 #p 6-31g* mp2
 -------------

 ------------------------------------------------------
 Input file generated by CHIRIPA (05-May-2021 14:55:23)
 ------------------------------------------------------
 Symbolic Z-matrix:
 Charge =  0 Multiplicity = 1

                         Standard orientation:
 ---------------------------------------------------------------------
 Center     Atomic      Atomic             Coordinates (Angstroms)
 Number     Number       Type             X           Y           Z
 ---------------------------------------------------------------------
      1          6           0       -1.222496    2.209956    0.253677
      2          6           0       -1.847321    1.973022   -0.975134
      3          6           0       -2.793352    0.951945   -1.105423
      4          6           0       -3.091955    0.183576    0.018737
      5          6           0       -2.486570    0.395076    1.256503
      6          6           0       -1.543549    1.421616    1.363617
      7          1           0       -0.488766    3.005275    0.345887
      8          1           0       -1.599955    2.583677   -1.838821
      9          1           0       -3.292197    0.746844   -2.044841
     10          1           0       -2.753886   -0.230295    2.099635
     11          1           0       -1.059887    1.603351    2.319174
     12          7           0       -4.091883   -0.900285   -0.106927
     13          8           0       -4.337452   -1.563171    0.898516
     14          8           0       -4.611123   -1.066406   -1.208485
     15          6           0        3.178730   -0.970746   -0.110535
     16          6           0        1.792627   -0.354062    0.080266
     17          6           0        0.666643   -1.381111   -0.042720
     18          1           0        3.226102   -1.452572   -1.096712
     19          1           0        3.323992   -1.766318    0.633347
     20          1           0        1.650560    0.441042   -0.662865
     21          1           0        1.748612    0.126517    1.066025
     22          1           0        0.780613   -2.169500    0.708315
     23          1           0        0.682004   -1.853188   -1.030398
     24          1           0       -0.315483   -0.918786    0.097087
     25          6           0        4.314787    0.043491    0.009549
     26          6           0        5.700890   -0.573193   -0.181251
     27          6           0        6.826875    0.453855   -0.058266
     28          1           0        4.169525    0.839063   -0.734333
     29          1           0        4.267415    0.525317    0.995726
     30          1           0        5.744905   -1.053773   -1.167011
     31          1           0        5.842957   -1.368298    0.561879
     32          1           0        6.811513    0.925933    0.929412
     33          1           0        6.712904    1.242245   -0.809301
     34          1           0        7.809000   -0.008469   -0.198073
 ---------------------------------------------------------------------

 SCF Done:  E(RHF) =  -669.534475605     A.U. after   15 cycles
 E2 =    -0.2094022240D+01 EUMP2 =    -0.67162849784541D+03

 The electronic state is 1-A.
 Alpha  occ. eigenvalues --  -20.60809 -20.60804 -15.85865 -11.31264 -11.27861
 Alpha  occ. eigenvalues --  -11.27820 -11.27595 -11.26879 -11.26843 -11.21894
 Alpha  occ. eigenvalues --  -11.21882 -11.21725 -11.21620 -11.21356 -11.20993
 Alpha  occ. eigenvalues --   -1.59884  -1.39436  -1.19477  -1.08846  -1.08703
 Alpha  occ. eigenvalues --   -1.04874  -1.03759  -0.96190  -0.95667  -0.87209
 Alpha  occ. eigenvalues --   -0.86254  -0.82493  -0.79841  -0.78539  -0.77538
 Alpha  occ. eigenvalues --   -0.72082  -0.71214  -0.70547  -0.65346  -0.65103
 Alpha  occ. eigenvalues --   -0.64854  -0.62205  -0.61165  -0.59681  -0.57930
 Alpha  occ. eigenvalues --   -0.55479  -0.55347  -0.53780  -0.52945  -0.52714
 Alpha  occ. eigenvalues --   -0.51985  -0.50135  -0.48845  -0.48834  -0.48139
 Alpha  occ. eigenvalues --   -0.46889  -0.46076  -0.46013  -0.44833  -0.44018
 Alpha  occ. eigenvalues --   -0.37413  -0.36431
 Alpha virt. eigenvalues --    0.04989   0.11118   0.16445   0.21115   0.22653
 Alpha virt. eigenvalues --    0.24173   0.26149   0.26879   0.27404   0.27860
 Alpha virt. eigenvalues --    0.28407   0.30612   0.31275   0.31647   0.32066

 Mulliken charges:
               1
     1  C   -0.168265
     2  C   -0.217865
     3  C   -0.171493
     4  C    0.162246
     5  C   -0.179486
     6  C   -0.214359
     7  H    0.226831
     8  H    0.224066
     9  H    0.276238
    10  H    0.276242
    11  H    0.224259
    12  N    0.488267
    13  O   -0.460089
    14  O   -0.460286
    15  C   -0.298642
    16  C   -0.295949
    17  C   -0.483763
    18  H    0.151115
    19  H    0.150695
    20  H    0.147130
    21  H    0.143898
    22  H    0.154485
    23  H    0.155422
    24  H    0.171650
    25  C   -0.297727
    26  C   -0.299725
    27  C   -0.475724
    28  H    0.147174
    29  H    0.147334
    30  H    0.152948
    31  H    0.152941
    32  H    0.154550
    33  H    0.154469
    34  H    0.161413
 Sum of Mulliken charges =  -0.00000

 Dipole moment (field-independent basis, Debye):
    X=              3.4239    Y=              3.8408    Z=              0.4304  Tot=              5.1633
 Quadrupole moment (field-independent basis, Debye-Ang):
   XX=           -118.1352   YY=            -94.0571   ZZ=            -89.0790
   XY=            -12.0959   XZ=             -0.6477   YZ=             -1.3467

 Normal termination of Gaussian 16 at Wed May  5 19:05:23 2021.
