 Gaussian 16, Revision A.03,
 Gaussian 16:  EM64L-G16RevA.03 25-Dec-2016

 -------------
 #p 6-31g* mp2
 -------------

 ------------------------------------------------------
 Input file generated by CHIRIPA (05-May-2021 14:51:14)
 ------------------------------------------------------
 Symbolic Z-matrix:
 Charge =  0 Multiplicity = 1

                         Standard orientation:
 ---------------------------------------------------------------------
 Center     Atomic      Atomic             Coordinates (Angstroms)
 Number     Number       Type             X           Y           Z
 ---------------------------------------------------------------------
      1          6           0        3.562817    0.422416   -0.712425
      2          6           0        2.708024    1.508148   -0.057827
      3          6           0        1.756079    2.185754   -1.043952
      4          1           0        4.139796    0.865539   -1.535639
      5          1           0        2.903048   -0.331606   -1.163592
      6          1           0        3.369214    2.259178    0.393169
      7          1           0        2.133156    1.062428    0.764048
      8          1           0        1.073033    1.452880   -1.485477
      9          1           0        2.316113    2.656430   -1.858463
     10          1           0        1.154690    2.958445   -0.554932
     11          6           0        4.519571   -0.264196    0.260670
     12          6           0        5.374364   -1.349928   -0.393929
     13          6           0        6.326309   -2.027535    0.592197
     14          1           0        5.179339    0.489826    0.711837
     15          1           0        3.942591   -0.707319    1.083884
     16          1           0        5.949231   -0.904208   -1.215803
     17          1           0        4.713174   -2.100958   -0.844924
     18          1           0        5.766274   -2.498210    1.406707
     19          1           0        7.009355   -1.294660    1.033722
     20          1           0        6.927697   -2.800226    0.103177
     21          6           0       -4.804386   -0.076549    0.194841
     22          6           0       -5.387397   -1.311036   -0.493726
     23          6           0       -6.915289   -1.291368   -0.548042
     24          1           0       -5.208100   -0.008207    1.214296
     25          1           0       -5.141769    0.824435   -0.336003
     26          1           0       -5.047889   -2.209492    0.037431
     27          1           0       -4.982100   -1.376553   -1.511596
     28          1           0       -7.270006   -0.412462   -1.096038
     29          1           0       -7.336170   -1.250133    0.461790
     30          1           0       -7.310877   -2.183044   -1.044313
     31          6           0       -3.278002   -0.081671    0.256914
     32          6           0       -2.694991    1.152816    0.945481
     33          6           0       -1.167098    1.133149    0.999797
     34          1           0       -2.940618   -0.982655    0.787758
     35          1           0       -2.874287   -0.150012   -0.762541
     36          1           0       -3.100288    1.218333    1.963351
     37          1           0       -3.034499    2.051272    0.414324
     38          1           0       -0.746218    1.091914   -0.010035
     39          1           0       -0.812382    0.254242    1.547794
     40          1           0       -0.771511    2.024825    1.496068
 ---------------------------------------------------------------------

 SCF Done:  E(RHF) =  -470.732454134     A.U. after   11 cycles
 E2 =    -0.1583101495D+01 EUMP2 =    -0.47231555562981D+03

 The electronic state is 1-A.
 Alpha  occ. eigenvalues --  -11.21603 -11.21575 -11.21573 -11.21517 -11.21404
 Alpha  occ. eigenvalues --  -11.21362 -11.21344 -11.21302 -11.21072 -11.21051
 Alpha  occ. eigenvalues --  -11.20996 -11.20983  -1.08429  -1.08380  -1.03559
 Alpha  occ. eigenvalues --   -1.03445  -0.96055  -0.95858  -0.87075  -0.86874
 Alpha  occ. eigenvalues --   -0.79600  -0.79536  -0.78240  -0.78196  -0.65092
 Alpha  occ. eigenvalues --   -0.64989  -0.61095  -0.60752  -0.59438  -0.59214
 Alpha  occ. eigenvalues --   -0.57608  -0.57521  -0.55548  -0.54986  -0.52760
 Alpha  occ. eigenvalues --   -0.52555  -0.52383  -0.52305  -0.50167  -0.49607
 Alpha  occ. eigenvalues --   -0.47960  -0.47784  -0.46733  -0.46431  -0.45809
 Alpha  occ. eigenvalues --   -0.45723  -0.45689  -0.45634  -0.43788  -0.43711
 Alpha virt. eigenvalues --    0.21828   0.22992   0.23570   0.24932   0.26241
 Alpha virt. eigenvalues --    0.26419   0.27142   0.27527   0.27660   0.29336
 Alpha virt. eigenvalues --    0.29664   0.31014   0.31431   0.32139   0.32367

 Mulliken charges:
               1
     1  C   -0.298163
     2  C   -0.303316
     3  C   -0.476381
     4  H    0.149366
     5  H    0.149342
     6  H    0.151478
     7  H    0.157163
     8  H    0.154312
     9  H    0.154689
    10  H    0.161911
    11  C   -0.298258
    12  C   -0.299616
    13  C   -0.475673
    14  H    0.149415
    15  H    0.149633
    16  H    0.151865
    17  H    0.151864
    18  H    0.155116
    19  H    0.155137
    20  H    0.160145
    21  C   -0.298238
    22  C   -0.299636
    23  C   -0.475702
    24  H    0.149685
    25  H    0.149604
    26  H    0.151834
    27  H    0.151893
    28  H    0.155222
    29  H    0.155182
    30  H    0.160232
    31  C   -0.298368
    32  C   -0.300331
    33  C   -0.479476
    34  H    0.149273
    35  H    0.149275
    36  H    0.151506
    37  H    0.151835
    38  H    0.162985
    39  H    0.153375
    40  H    0.159820
 Sum of Mulliken charges =  -0.00000

 Dipole moment (field-independent basis, Debye):
    X=             -0.0013    Y=              0.0120    Z=              0.0003  Tot=              0.0121
 Quadrupole moment (field-independent basis, Debye-Ang):
   XX=            -86.2035   YY=            -84.4404   ZZ=            -84.3501
   XY=              0.8073   XZ=             -0.6796   YZ=             -0.2550

 Normal termination of Gaussian 16 at Wed May  5 20:01:38 2021.
