 Gaussian 16, Revision A.03,
 Gaussian 16:  EM64L-G16RevA.03 25-Dec-2016

 -------------
 #p 6-31g* mp2
 -------------

 ------------------------------------------------------
 Input file generated by CHIRIPA (05-May-2021 14:57:23)
 ------------------------------------------------------
 Symbolic Z-matrix:
 Charge =  0 Multiplicity = 1

                         Standard orientation:
 ---------------------------------------------------------------------
 Center     Atomic      Atomic             Coordinates (Angstroms)
 Number     Number       Type             X           Y           Z
 ---------------------------------------------------------------------
      1          6           0       -5.080352    0.058588    0.396515
      2          6           0       -4.367579   -1.094521    0.741210
      3          6           0       -3.021677   -1.229479    0.387823
      4          6           0       -2.417233   -0.187130   -0.313210
      5          6           0       -3.100557    0.974036   -0.671052
      6          6           0       -4.445685    1.087373   -0.307275
      7          1           0       -6.125581    0.155028    0.675069
      8          1           0       -4.857891   -1.895093    1.287767
      9          1           0       -2.446199   -2.111328    0.641957
     10          1           0       -2.584609    1.755183   -1.216052
     11          1           0       -4.996752    1.984030   -0.576303
     12          7           0       -0.992797   -0.318559   -0.692824
     13          8           0       -0.483229    0.614022   -1.310296
     14          8           0       -0.412863   -1.351665   -0.365707
     15          6           0        2.104288    2.590539    0.680728
     16          6           0        1.751671    1.616009    1.620128
     17          6           0        2.050149    0.269324    1.392316
     18          6           0        2.704948   -0.068977    0.209067
     19          6           0        3.069294    0.878747   -0.746109
     20          6           0        2.760816    2.219453   -0.497315
     21          1           0        1.868539    3.634355    0.865847
     22          1           0        1.241739    1.901293    2.535894
     23          1           0        1.788659   -0.505618    2.102602
     24          1           0        3.576954    0.563739   -1.649696
     25          1           0        3.035868    2.974138   -1.228643
     26          7           0        3.026227   -1.491488   -0.043213
     27          8           0        3.603668   -1.763678   -1.093505
     28          8           0        2.694520   -2.307325    0.814117
 ---------------------------------------------------------------------

 SCF Done:  E(RHF) =  -868.337849959     A.U. after   16 cycles
 E2 =    -0.2603331286D+01 EUMP2 =    -0.87094118124447D+03

 The electronic state is 1-A.
 Alpha  occ. eigenvalues --  -20.61026 -20.61002 -20.59125 -20.59104 -15.86003
 Alpha  occ. eigenvalues --  -15.84169 -11.31392 -11.29520 -11.27983 -11.27919
 Alpha  occ. eigenvalues --  -11.27699 -11.26988 -11.26944 -11.26209 -11.26159
 Alpha  occ. eigenvalues --  -11.26071 -11.25357 -11.25251  -1.60065  -1.58152
 Alpha  occ. eigenvalues --   -1.39618  -1.37725  -1.19564  -1.17748  -1.08960
 Alpha  occ. eigenvalues --   -1.07169  -1.04962  -1.03235  -0.95794  -0.94014
 Alpha  occ. eigenvalues --   -0.86359  -0.84649  -0.82621  -0.80896  -0.77668
 Alpha  occ. eigenvalues --   -0.75897  -0.72263  -0.71401  -0.70664  -0.70447
 Alpha  occ. eigenvalues --   -0.69368  -0.69003  -0.65211  -0.64961  -0.63484
 Alpha  occ. eigenvalues --   -0.63334  -0.62303  -0.60630  -0.55472  -0.53835
 Alpha  occ. eigenvalues --   -0.53313  -0.53050  -0.51614  -0.51405  -0.49024
 Alpha  occ. eigenvalues --   -0.48837  -0.47188  -0.47168  -0.45034  -0.43132
 Alpha  occ. eigenvalues --   -0.37549  -0.36571  -0.35666  -0.34790
 Alpha virt. eigenvalues --    0.04837   0.06733   0.11085   0.12850   0.16344
 Alpha virt. eigenvalues --    0.18177   0.21246   0.22624   0.27156   0.28144
 Alpha virt. eigenvalues --    0.28485   0.29539   0.30798   0.32052   0.32407

 Mulliken charges:
               1
     1  C   -0.170874
     2  C   -0.218818
     3  C   -0.171839
     4  C    0.158555
     5  C   -0.171718
     6  C   -0.218873
     7  H    0.226075
     8  H    0.224933
     9  H    0.279758
    10  H    0.273780
    11  H    0.222957
    12  N    0.488773
    13  O   -0.461077
    14  O   -0.458094
    15  C   -0.168419
    16  C   -0.223164
    17  C   -0.169902
    18  C    0.177018
    19  C   -0.159763
    20  C   -0.212664
    21  H    0.216737
    22  H    0.213739
    23  H    0.270151
    24  H    0.271697
    25  H    0.216626
    26  N    0.494238
    27  O   -0.466381
    28  O   -0.463451
 Sum of Mulliken charges =  -0.00000

 Dipole moment (field-independent basis, Debye):
    X=             -6.3537    Y=              5.2061    Z=              2.0151  Tot=              8.4578
 Quadrupole moment (field-independent basis, Debye-Ang):
   XX=            -87.5553   YY=           -102.6574   ZZ=           -101.8494
   XY=             13.7982   XZ=             -2.0650   YZ=             -3.2816

 Normal termination of Gaussian 16 at Thu May  6 06:37:24 2021.
