 Gaussian 16, Revision A.03,
 Gaussian 16:  EM64L-G16RevA.03 25-Dec-2016

 -------------
 #p 6-31g* mp2
 -------------

 ------------------------------------------------------
 Input file generated by CHIRIPA (05-May-2021 14:55:24)
 ------------------------------------------------------
 Symbolic Z-matrix:
 Charge =  0 Multiplicity = 1

                         Standard orientation:
 ---------------------------------------------------------------------
 Center     Atomic      Atomic             Coordinates (Angstroms)
 Number     Number       Type             X           Y           Z
 ---------------------------------------------------------------------
      1          6           0        2.043659    2.512354    0.370351
      2          6           0        2.993809    2.326498   -0.639201
      3          6           0        3.615893    1.086057   -0.809094
      4          6           0        3.262335    0.048623    0.052311
      5          6           0        2.319479    0.202542    1.067507
      6          6           0        1.710115    1.451652    1.218987
      7          1           0        1.565350    3.479326    0.495176
      8          1           0        3.254808    3.148461   -1.299732
      9          1           0        4.354821    0.914596   -1.582402
     10          1           0        2.080002   -0.635709    1.710472
     11          1           0        0.972568    1.593100    2.003883
     12          7           0        3.914175   -1.269165   -0.117800
     13          8           0        3.585215   -2.167208    0.654172
     14          8           0        4.741705   -1.379053   -1.019885
     15          6           0       -4.650884   -0.057211   -0.460672
     16          6           0       -5.928157   -0.126267    0.377059
     17          6           0       -7.145065    0.443699   -0.352369
     18          1           0       -4.457705    0.988215   -0.737640
     19          1           0       -4.806648   -0.605744   -1.399951
     20          1           0       -5.769567    0.421062    1.315086
     21          1           0       -6.118213   -1.171628    0.652225
     22          1           0       -7.331381   -0.107514   -1.279758
     23          1           0       -6.980753    1.494226   -0.613131
     24          1           0       -8.047100    0.384374    0.264619
     25          6           0       -3.425670   -0.623264    0.254982
     26          6           0       -2.148398   -0.554208   -0.582749
     27          6           0       -0.931490   -1.124175    0.146678
     28          1           0       -3.269907   -0.074731    1.194261
     29          1           0       -3.618850   -1.668690    0.531950
     30          1           0       -1.958341    0.491152   -0.857915
     31          1           0       -2.306987   -1.101538   -1.520776
     32          1           0       -1.095802   -2.174701    0.407441
     33          1           0       -0.745174   -0.572962    1.074068
     34          1           0       -0.029454   -1.064850   -0.470309
 ---------------------------------------------------------------------

 SCF Done:  E(RHF) =  -669.534713815     A.U. after   15 cycles
 E2 =    -0.2092225033D+01 EUMP2 =    -0.67162693884771D+03

 The electronic state is 1-A.
 Alpha  occ. eigenvalues --  -20.60750 -20.60744 -15.85804 -11.31162 -11.27751
 Alpha  occ. eigenvalues --  -11.27731 -11.27501 -11.26752 -11.26738 -11.21856
 Alpha  occ. eigenvalues --  -11.21836 -11.21675 -11.21611 -11.21286 -11.21282
 Alpha  occ. eigenvalues --   -1.59826  -1.39379  -1.19354  -1.08746  -1.08688
 Alpha  occ. eigenvalues --   -1.04761  -1.03768  -0.96226  -0.95576  -0.87246
 Alpha  occ. eigenvalues --   -0.86151  -0.82412  -0.79842  -0.78504  -0.77452
 Alpha  occ. eigenvalues --   -0.72021  -0.71154  -0.70462  -0.65328  -0.65003
 Alpha  occ. eigenvalues --   -0.64759  -0.62123  -0.61165  -0.59593  -0.57830
 Alpha  occ. eigenvalues --   -0.55552  -0.55255  -0.53341  -0.52859  -0.52663
 Alpha  occ. eigenvalues --   -0.52595  -0.50160  -0.48781  -0.48775  -0.48154
 Alpha  occ. eigenvalues --   -0.46878  -0.46043  -0.45976  -0.44786  -0.44026
 Alpha  occ. eigenvalues --   -0.37339  -0.36272
 Alpha virt. eigenvalues --    0.05078   0.11242   0.16487   0.20873   0.22650
 Alpha virt. eigenvalues --    0.24026   0.25849   0.26628   0.27360   0.28076
 Alpha virt. eigenvalues --    0.28587   0.30215   0.31354   0.31639   0.32206

 Mulliken charges:
               1
     1  C   -0.171432
     2  C   -0.218959
     3  C   -0.171260
     4  C    0.156115
     5  C   -0.166020
     6  C   -0.216788
     7  H    0.225355
     8  H    0.223259
     9  H    0.275557
    10  H    0.276915
    11  H    0.222606
    12  N    0.488064
    13  O   -0.460119
    14  O   -0.460739
    15  C   -0.298160
    16  C   -0.299671
    17  C   -0.475754
    18  H    0.147976
    19  H    0.151019
    20  H    0.150764
    21  H    0.153129
    22  H    0.156050
    23  H    0.154454
    24  H    0.160812
    25  C   -0.298086
    26  C   -0.300313
    27  C   -0.474044
    28  H    0.145781
    29  H    0.151804
    30  H    0.149114
    31  H    0.154747
    32  H    0.159225
    33  H    0.143282
    34  H    0.165316
 Sum of Mulliken charges =  -0.00000

 Dipole moment (field-independent basis, Debye):
    X=             -2.3172    Y=              4.5879    Z=              0.5616  Tot=              5.1704
 Quadrupole moment (field-independent basis, Debye-Ang):
   XX=           -109.8576   YY=            -93.4185   ZZ=            -92.1638
   XY=             16.9163   XZ=             -0.6839   YZ=             -0.7913

 Normal termination of Gaussian 16 at Wed May  5 20:47:16 2021.
