 Gaussian 16, Revision A.03,
 Gaussian 16:  EM64L-G16RevA.03 25-Dec-2016

 -------------
 #p 6-31g* mp2
 -------------

 ------------------------------------------------------
 Input file generated by CHIRIPA (05-May-2021 14:51:14)
 ------------------------------------------------------
 Symbolic Z-matrix:
 Charge =  0 Multiplicity = 1

                         Standard orientation:
 ---------------------------------------------------------------------
 Center     Atomic      Atomic             Coordinates (Angstroms)
 Number     Number       Type             X           Y           Z
 ---------------------------------------------------------------------
      1          6           0       -4.922914   -0.328052   -0.346884
      2          6           0       -5.799721   -1.297719    0.446174
      3          6           0       -6.805781   -2.040013   -0.433961
      4          1           0       -5.565168    0.397717   -0.864296
      5          1           0       -4.387275   -0.884422   -1.128509
      6          1           0       -6.332492   -0.739912    1.226958
      7          1           0       -5.155296   -2.021146    0.961912
      8          1           0       -6.288579   -2.621160   -1.204266
      9          1           0       -7.472463   -1.332646   -0.937714
     10          1           0       -7.422165   -2.727826    0.153273
     11          6           0       -3.912083    0.421537    0.519178
     12          6           0       -3.035277    1.391204   -0.273880
     13          6           0       -2.029217    2.133498    0.606255
     14          1           0       -4.447723    0.977907    1.300803
     15          1           0       -3.269830   -0.304232    1.036590
     16          1           0       -3.679702    2.114631   -0.789618
     17          1           0       -2.502506    0.833397   -1.054664
     18          1           0       -1.362534    1.426131    1.110008
     19          1           0       -2.546419    2.714645    1.376561
     20          1           0       -1.412833    2.821311    0.019021
     21          6           0        4.023333    0.573038   -0.295760
     22          6           0        2.518953    0.445406   -0.053814
     23          6           0        1.743990    1.693261   -0.478182
     24          1           0        4.403526    1.446350    0.251710
     25          1           0        4.200687    0.771001   -1.361944
     26          1           0        2.344568    0.246368    1.011356
     27          1           0        2.142331   -0.427816   -0.601769
     28          1           0        1.888472    1.892207   -1.545021
     29          1           0        2.091858    2.570222    0.077270
     30          1           0        0.670636    1.580386   -0.296441
     31          6           0        4.811665   -0.666523    0.123465
     32          6           0        6.316045   -0.538891   -0.118480
     33          6           0        7.091008   -1.786745    0.305888
     34          1           0        4.634311   -0.864486    1.189651
     35          1           0        4.431472   -1.539836   -0.424004
     36          1           0        6.692667    0.334331    0.429475
     37          1           0        6.490430   -0.339853   -1.183651
     38          1           0        6.743140   -2.663706   -0.249565
     39          1           0        6.946525   -1.985692    1.372727
     40          1           0        8.164362   -1.673871    0.124147
 ---------------------------------------------------------------------

 SCF Done:  E(RHF) =  -470.732717996     A.U. after   11 cycles
 E2 =    -0.1582564310D+01 EUMP2 =    -0.47231528230560D+03

 The electronic state is 1-A.
 Alpha  occ. eigenvalues --  -11.21626 -11.21609 -11.21584 -11.21557 -11.21418
 Alpha  occ. eigenvalues --  -11.21375 -11.21358 -11.21314 -11.21077 -11.21077
 Alpha  occ. eigenvalues --  -11.21059 -11.20910  -1.08447  -1.08395  -1.03565
 Alpha  occ. eigenvalues --   -1.03474  -0.96050  -0.95889  -0.87098  -0.86877
 Alpha  occ. eigenvalues --   -0.79648  -0.79519  -0.78256  -0.78212  -0.65083
 Alpha  occ. eigenvalues --   -0.65027  -0.61005  -0.60883  -0.59573  -0.59133
 Alpha  occ. eigenvalues --   -0.57652  -0.57511  -0.55306  -0.55211  -0.52964
 Alpha  occ. eigenvalues --   -0.52464  -0.52385  -0.52250  -0.49925  -0.49860
 Alpha  occ. eigenvalues --   -0.47927  -0.47858  -0.46638  -0.46588  -0.45798
 Alpha  occ. eigenvalues --   -0.45752  -0.45722  -0.45681  -0.43929  -0.43567
 Alpha virt. eigenvalues --    0.21979   0.23035   0.23573   0.25029   0.26580
 Alpha virt. eigenvalues --    0.26679   0.27312   0.27375   0.27581   0.28961
 Alpha virt. eigenvalues --    0.30694   0.31367   0.31472   0.31848   0.32222

 Mulliken charges:
               1
     1  C   -0.298307
     2  C   -0.299680
     3  C   -0.475715
     4  H    0.149713
     5  H    0.149552
     6  H    0.151951
     7  H    0.151973
     8  H    0.155190
     9  H    0.155197
    10  H    0.160283
    11  C   -0.298463
    12  C   -0.301314
    13  C   -0.480447
    14  H    0.149692
    15  H    0.149862
    16  H    0.152444
    17  H    0.152586
    18  H    0.155982
    19  H    0.156328
    20  H    0.163763
    21  C   -0.298272
    22  C   -0.299210
    23  C   -0.485125
    24  H    0.149633
    25  H    0.149420
    26  H    0.151288
    27  H    0.151082
    28  H    0.153866
    29  H    0.154467
    30  H    0.172670
    31  C   -0.298189
    32  C   -0.299600
    33  C   -0.475675
    34  H    0.149389
    35  H    0.149420
    36  H    0.151938
    37  H    0.151880
    38  H    0.155095
    39  H    0.155138
    40  H    0.160197
 Sum of Mulliken charges =  -0.00000

 Dipole moment (field-independent basis, Debye):
    X=             -0.0516    Y=              0.0190    Z=              0.0087  Tot=              0.0556
 Quadrupole moment (field-independent basis, Debye-Ang):
   XX=            -85.5354   YY=            -85.1053   ZZ=            -84.2158
   XY=             -0.4235   XZ=             -0.5388   YZ=              0.4201

 Normal termination of Gaussian 16 at Wed May  5 18:24:42 2021.
