 Gaussian 16, Revision A.03,
 Gaussian 16:  EM64L-G16RevA.03 25-Dec-2016

 -------------
 #p 6-31g* mp2
 -------------

 ------------------------------------------------------
 Input file generated by CHIRIPA (05-May-2021 14:53:14)
 ------------------------------------------------------
 Symbolic Z-matrix:
 Charge =  0 Multiplicity = 1

                         Standard orientation:
 ---------------------------------------------------------------------
 Center     Atomic      Atomic             Coordinates (Angstroms)
 Number     Number       Type             X           Y           Z
 ---------------------------------------------------------------------
      1          6           0       -5.121004    0.013366   -0.347958
      2          6           0       -5.694613   -1.299874    0.185296
      3          6           0       -7.197006   -1.433632   -0.065135
      4          1           0       -5.648850    0.854371    0.122184
      5          1           0       -5.321485    0.081960   -1.426149
      6          1           0       -5.491894   -1.366609    1.261896
      7          1           0       -5.165210   -2.137850   -0.286027
      8          1           0       -7.413942   -1.392909   -1.137461
      9          1           0       -7.742482   -0.617286    0.419257
     10          1           0       -7.586229   -2.379622    0.324053
     11          6           0       -3.620090    0.161753   -0.105128
     12          6           0       -3.046481    1.474993   -0.638381
     13          6           0       -1.544087    1.608750   -0.387950
     14          1           0       -3.419608    0.093158    0.973064
     15          1           0       -3.092244   -0.679253   -0.575269
     16          1           0       -3.575884    2.312968   -0.167059
     17          1           0       -3.249200    1.541727   -1.714981
     18          1           0       -0.998611    0.792404   -0.872342
     19          1           0       -1.327151    1.568027    0.684375
     20          1           0       -1.154864    2.554741   -0.777139
     21          6           0        1.629342    1.137318    1.490533
     22          6           0        2.030645    1.625929    0.242841
     23          6           0        3.018837    0.966013   -0.493728
     24          6           0        3.587072   -0.184971    0.049998
     25          6           0        3.208632   -0.696553    1.290303
     26          6           0        2.218578   -0.020323    2.009367
     27          1           0        0.860967    1.656294    2.055918
     28          1           0        1.574779    2.524746   -0.162571
     29          1           0        3.348386    1.322426   -1.462121
     30          1           0        3.681420   -1.594881    1.668322
     31          1           0        1.908899   -0.402077    2.978082
     32          7           0        4.634212   -0.892230   -0.720509
     33          8           0        5.119328   -1.904270   -0.219437
     34          8           0        4.950017   -0.421148   -1.810915
 ---------------------------------------------------------------------

 SCF Done:  E(RHF) =  -669.534912281     A.U. after   15 cycles
 E2 =    -0.2091952069D+01 EUMP2 =    -0.67162686434993D+03

 The electronic state is 1-A.
 Alpha  occ. eigenvalues --  -20.60720 -20.60714 -15.85773 -11.31121 -11.27692
 Alpha  occ. eigenvalues --  -11.27675 -11.27410 -11.26701 -11.26665 -11.22262
 Alpha  occ. eigenvalues --  -11.21983 -11.21976 -11.21945 -11.21811 -11.21379
 Alpha  occ. eigenvalues --   -1.59796  -1.39350  -1.19294  -1.08958  -1.08688
 Alpha  occ. eigenvalues --   -1.04696  -1.04082  -0.96561  -0.95525  -0.87594
 Alpha  occ. eigenvalues --   -0.86079  -0.82362  -0.80160  -0.78744  -0.77407
 Alpha  occ. eigenvalues --   -0.71991  -0.71119  -0.70414  -0.65582  -0.64943
 Alpha  occ. eigenvalues --   -0.64698  -0.62050  -0.61480  -0.59936  -0.58159
 Alpha  occ. eigenvalues --   -0.55896  -0.55156  -0.53428  -0.53174  -0.52739
 Alpha  occ. eigenvalues --   -0.52700  -0.50482  -0.48749  -0.48746  -0.48458
 Alpha  occ. eigenvalues --   -0.47168  -0.46293  -0.46200  -0.44760  -0.44338
 Alpha  occ. eigenvalues --   -0.37224  -0.36281
 Alpha virt. eigenvalues --    0.05108   0.11305   0.16551   0.20436   0.22501
 Alpha virt. eigenvalues --    0.23946   0.25714   0.26154   0.26608   0.27452
 Alpha virt. eigenvalues --    0.28916   0.29401   0.31206   0.31666   0.32277

 Mulliken charges:
               1
     1  C   -0.298687
     2  C   -0.299983
     3  C   -0.475985
     4  H    0.149730
     5  H    0.151042
     6  H    0.151284
     7  H    0.153175
     8  H    0.156111
     9  H    0.155242
    10  H    0.161346
    11  C   -0.298510
    12  C   -0.301120
    13  C   -0.476307
    14  H    0.147229
    15  H    0.152119
    16  H    0.151986
    17  H    0.154943
    18  H    0.163369
    19  H    0.146949
    20  H    0.154288
    21  C   -0.168603
    22  C   -0.214732
    23  C   -0.173340
    24  C    0.158356
    25  C   -0.171190
    26  C   -0.219650
    27  H    0.225453
    28  H    0.225317
    29  H    0.275261
    30  H    0.275257
    31  H    0.222942
    32  N    0.488099
    33  O   -0.460708
    34  O   -0.460683
 Sum of Mulliken charges =  -0.00000

 Dipole moment (field-independent basis, Debye):
    X=             -3.8240    Y=              2.4497    Z=              2.6677  Tot=              5.2669
 Quadrupole moment (field-independent basis, Debye-Ang):
   XX=           -122.8943   YY=            -93.7808   ZZ=            -91.3629
   XY=              9.2087   XZ=              9.7873   YZ=             -2.8766

 Normal termination of Gaussian 16 at Wed May  5 21:53:08 2021.
