 Gaussian 16, Revision A.03,
 Gaussian 16:  EM64L-G16RevA.03 25-Dec-2016

 -------------
 #p 6-31g* mp2
 -------------

 ------------------------------------------------------
 Input file generated by CHIRIPA (05-May-2021 14:57:21)
 ------------------------------------------------------
 Symbolic Z-matrix:
 Charge =  0 Multiplicity = 1

                         Standard orientation:
 ---------------------------------------------------------------------
 Center     Atomic      Atomic             Coordinates (Angstroms)
 Number     Number       Type             X           Y           Z
 ---------------------------------------------------------------------
      1          6           0        4.242746    2.244689    0.030375
      2          6           0        4.998835    1.070133   -0.042213
      3          6           0        4.369399   -0.176010   -0.116291
      4          6           0        2.975817   -0.210894   -0.115544
      5          6           0        2.194866    0.941634   -0.044237
      6          6           0        2.845638    2.176811    0.029134
      7          1           0        4.739994    3.208463    0.087645
      8          1           0        6.083997    1.119820   -0.041433
      9          1           0        4.930348   -1.100939   -0.173382
     10          1           0        1.114691    0.860192   -0.046948
     11          1           0        2.255893    3.087348    0.085413
     12          7           0        2.298167   -1.524324   -0.193592
     13          8           0        1.069096   -1.528115   -0.191302
     14          8           0        3.008929   -2.525130   -0.255579
     15          6           0       -2.218277   -2.343431    0.483211
     16          6           0       -2.973882   -2.054651   -0.657923
     17          6           0       -3.460604   -0.762845   -0.879031
     18          6           0       -3.171535    0.220440    0.065892
     19          6           0       -2.421512   -0.036051    1.212613
     20          6           0       -1.944985   -1.334987    1.413197
     21          1           0       -1.844140   -3.349706    0.647001
     22          1           0       -3.187676   -2.835837   -1.381861
     23          1           0       -4.048044   -0.511726   -1.753829
     24          1           0       -2.224746    0.763581    1.916381
     25          1           0       -1.358432   -1.556370    2.300322
     26          7           0       -3.681410    1.591791   -0.157321
     27          8           0       -3.412930    2.440415    0.690259
     28          8           0       -4.339873    1.792066   -1.175630
 ---------------------------------------------------------------------

 SCF Done:  E(RHF) =  -868.339326479     A.U. after   16 cycles
 E2 =    -0.2599897994D+01 EUMP2 =    -0.87093922447334D+03

 The electronic state is 1-A.
 Alpha  occ. eigenvalues --  -20.61269 -20.61256 -20.60396 -20.60376 -15.86288
 Alpha  occ. eigenvalues --  -15.85433 -11.31457 -11.30472 -11.28011 -11.27968
 Alpha  occ. eigenvalues --  -11.27691 -11.27023 -11.26993 -11.26979 -11.26921
 Alpha  occ. eigenvalues --  -11.26537 -11.25888 -11.25877  -1.60347  -1.59476
 Alpha  occ. eigenvalues --   -1.39903  -1.39038  -1.19609  -1.18584  -1.09044
 Alpha  occ. eigenvalues --   -1.08002  -1.04972  -1.03956  -0.95914  -0.94908
 Alpha  occ. eigenvalues --   -0.86380  -0.85357  -0.82743  -0.81777  -0.77817
 Alpha  occ. eigenvalues --   -0.76896  -0.72538  -0.71669  -0.71648  -0.70803
 Alpha  occ. eigenvalues --   -0.70706  -0.69642  -0.65259  -0.64963  -0.64232
 Alpha  occ. eigenvalues --   -0.63954  -0.62315  -0.61343  -0.55478  -0.54372
 Alpha  occ. eigenvalues --   -0.53324  -0.53053  -0.52242  -0.52054  -0.49293
 Alpha  occ. eigenvalues --   -0.49272  -0.48432  -0.48380  -0.45358  -0.44520
 Alpha  occ. eigenvalues --   -0.37582  -0.36571  -0.36394  -0.35529
 Alpha virt. eigenvalues --    0.04674   0.05637   0.11084   0.12124   0.16237
 Alpha virt. eigenvalues --    0.17273   0.21255   0.22266   0.27144   0.27891
 Alpha virt. eigenvalues --    0.28251   0.29189   0.30831   0.31841   0.32209

 Mulliken charges:
               1
     1  C   -0.170268
     2  C   -0.218682
     3  C   -0.171185
     4  C    0.156719
     5  C   -0.172792
     6  C   -0.219114
     7  H    0.227469
     8  H    0.224112
     9  H    0.274993
    10  H    0.276859
    11  H    0.228646
    12  N    0.490843
    13  O   -0.466665
    14  O   -0.461511
    15  C   -0.153138
    16  C   -0.218389
    17  C   -0.172331
    18  C    0.155957
    19  C   -0.180206
    20  C   -0.205763
    21  H    0.230243
    22  H    0.222217
    23  H    0.272150
    24  H    0.268748
    25  H    0.221967
    26  N    0.487804
    27  O   -0.466591
    28  O   -0.462092
 Sum of Mulliken charges =  -0.00000

 Dipole moment (field-independent basis, Debye):
    X=              4.4347    Y=             -0.4471    Z=              1.0551  Tot=              4.5804
 Quadrupole moment (field-independent basis, Debye-Ang):
   XX=            -98.6153   YY=           -107.9159   ZZ=           -102.3498
   XY=             28.7497   XZ=              0.1299   YZ=              0.6184

 Normal termination of Gaussian 16 at Thu May  6 03:16:26 2021.
