 Gaussian 16, Revision A.03,
 Gaussian 16:  EM64L-G16RevA.03 25-Dec-2016

 -------------
 #p 6-31g* mp2
 -------------

 ------------------------------------------------------
 Input file generated by CHIRIPA (05-May-2021 14:55:24)
 ------------------------------------------------------
 Symbolic Z-matrix:
 Charge =  0 Multiplicity = 1

                         Standard orientation:
 ---------------------------------------------------------------------
 Center     Atomic      Atomic             Coordinates (Angstroms)
 Number     Number       Type             X           Y           Z
 ---------------------------------------------------------------------
      1          6           0       -1.825965   -2.775083   -0.020208
      2          6           0       -3.162929   -2.384665    0.108723
      3          6           0       -3.510274   -1.030449    0.108986
      4          6           0       -2.490527   -0.089074   -0.022227
      5          6           0       -1.149426   -0.446535   -0.152463
      6          6           0       -0.825245   -1.806480   -0.150160
      7          1           0       -1.565137   -3.829295   -0.019415
      8          1           0       -3.942201   -3.134706    0.209807
      9          1           0       -4.537321   -0.700386    0.207230
     10          1           0       -0.394737    0.324209   -0.251535
     11          1           0        0.213895   -2.106768   -0.250454
     12          7           0       -2.845984    1.347606   -0.023307
     13          8           0       -1.928903    2.157485   -0.140336
     14          8           0       -4.034942    1.636593    0.092895
     15          6           0        3.706490   -0.063598    0.027671
     16          6           0        3.294372   -1.536026    0.017538
     17          6           0        4.492930   -2.485368    0.016547
     18          1           0        4.336764    0.140211   -0.848777
     19          1           0        4.329169    0.129589    0.912175
     20          1           0        2.671511   -1.726061   -0.865948
     21          1           0        2.664848   -1.736308    0.894010
     22          1           0        5.112369   -2.324693    0.904850
     23          1           0        5.119071   -2.314388   -0.865108
     24          1           0        4.175464   -3.532755    0.009247
     25          6           0        2.519283    0.897790    0.028774
     26          6           0        2.931401    2.370217    0.038908
     27          6           0        1.732843    3.319559    0.039899
     28          1           0        1.896606    0.704603   -0.855728
     29          1           0        1.889010    0.693981    0.905224
     30          1           0        3.560925    2.570500   -0.837564
     31          1           0        3.554263    2.560252    0.922394
     32          1           0        1.106704    3.148580    0.921554
     33          1           0        1.113404    3.158886   -0.848404
     34          1           0        2.050310    4.366947    0.047198
 ---------------------------------------------------------------------

 SCF Done:  E(RHF) =  -669.535263647     A.U. after   15 cycles
 E2 =    -0.2093667191D+01 EUMP2 =    -0.67162893083880D+03

 The electronic state is 1-A.
 Alpha  occ. eigenvalues --  -20.60692 -20.60687 -15.85732 -11.31031 -11.27626
 Alpha  occ. eigenvalues --  -11.27503 -11.27352 -11.26638 -11.26533 -11.22542
 Alpha  occ. eigenvalues --  -11.22019 -11.21951 -11.21802 -11.21645 -11.20558
 Alpha  occ. eigenvalues --   -1.59763  -1.39317  -1.19208  -1.08983  -1.08620
 Alpha  occ. eigenvalues --   -1.04597  -1.03905  -0.96294  -0.95463  -0.87321
 Alpha  occ. eigenvalues --   -0.86000  -0.82303  -0.80040  -0.78880  -0.77279
 Alpha  occ. eigenvalues --   -0.71951  -0.71084  -0.70326  -0.65601  -0.64859
 Alpha  occ. eigenvalues --   -0.64624  -0.61956  -0.61287  -0.59773  -0.57915
 Alpha  occ. eigenvalues --   -0.55548  -0.55127  -0.53052  -0.52952  -0.52909
 Alpha  occ. eigenvalues --   -0.52401  -0.50245  -0.48739  -0.48703  -0.48219
 Alpha  occ. eigenvalues --   -0.47083  -0.46229  -0.46186  -0.44729  -0.44188
 Alpha  occ. eigenvalues --   -0.37204  -0.36198
 Alpha virt. eigenvalues --    0.05143   0.11410   0.16612   0.20427   0.22764
 Alpha virt. eigenvalues --    0.23288   0.25044   0.26162   0.27338   0.28142
 Alpha virt. eigenvalues --    0.29801   0.30867   0.31107   0.31574   0.32223

 Mulliken charges:
               1
     1  C   -0.171929
     2  C   -0.219011
     3  C   -0.170554
     4  C    0.158292
     5  C   -0.183272
     6  C   -0.230196
     7  H    0.225249
     8  H    0.222666
     9  H    0.274891
    10  H    0.289623
    11  H    0.234250
    12  N    0.488707
    13  O   -0.461929
    14  O   -0.460753
    15  C   -0.295764
    16  C   -0.308352
    17  C   -0.474681
    18  H    0.153149
    19  H    0.153616
    20  H    0.147420
    21  H    0.150939
    22  H    0.158914
    23  H    0.158541
    24  H    0.158848
    25  C   -0.308153
    26  C   -0.300274
    27  C   -0.478316
    28  H    0.145492
    29  H    0.150461
    30  H    0.151859
    31  H    0.152136
    32  H    0.163191
    33  H    0.164631
    34  H    0.160311
 Sum of Mulliken charges =  -0.00000

 Dipole moment (field-independent basis, Debye):
    X=              1.4445    Y=             -4.8706    Z=              0.0315  Tot=              5.0804
 Quadrupole moment (field-independent basis, Debye-Ang):
   XX=            -96.4526   YY=            -94.3661   ZZ=            -94.5260
   XY=             14.5392   XZ=             -0.5709   YZ=             -0.0584

 Normal termination of Gaussian 16 at Thu May  6 12:41:59 2021.
