 Gaussian 16, Revision A.03,
 Gaussian 16:  EM64L-G16RevA.03 25-Dec-2016

 -------------
 #p 6-31g* mp2
 -------------

 ------------------------------------------------------
 Input file generated by CHIRIPA (05-May-2021 14:53:14)
 ------------------------------------------------------
 Symbolic Z-matrix:
 Charge =  0 Multiplicity = 1

                         Standard orientation:
 ---------------------------------------------------------------------
 Center     Atomic      Atomic             Coordinates (Angstroms)
 Number     Number       Type             X           Y           Z
 ---------------------------------------------------------------------
      1          6           0        3.120127   -0.148136    0.660855
      2          6           0        3.615035   -1.569400    0.390558
      3          6           0        3.961094   -2.328557    1.671853
      4          1           0        3.890880    0.401974    1.217868
      5          1           0        2.236026   -0.192795    1.311828
      6          1           0        4.497116   -1.522145   -0.260838
      7          1           0        2.843092   -2.116132   -0.166043
      8          1           0        3.084261   -2.405296    2.322912
      9          1           0        4.747683   -1.807935    2.227578
     10          1           0        4.312691   -3.342161    1.455413
     11          6           0        2.770166    0.623506   -0.610296
     12          6           0        2.275259    2.044769   -0.339998
     13          6           0        1.929200    2.803927   -1.621294
     14          1           0        3.654268    0.668164   -1.261268
     15          1           0        1.999414    0.073395   -1.167309
     16          1           0        3.047201    2.591501    0.216603
     17          1           0        1.393178    1.997515    0.311397
     18          1           0        1.142611    2.283304   -2.177019
     19          1           0        2.806032    2.880666   -2.272352
     20          1           0        1.577603    3.817530   -1.404853
     21          6           0       -2.775336    1.402574    1.882418
     22          6           0       -1.637617    1.581185    1.088557
     23          6           0       -1.364768    0.707288    0.031957
     24          6           0       -2.255029   -0.339239   -0.203645
     25          6           0       -3.396888   -0.543501    0.569483
     26          6           0       -3.649799    0.342670    1.620809
     27          1           0       -2.979547    2.086206    2.701162
     28          1           0       -0.956740    2.403445    1.289409
     29          1           0       -0.491327    0.822349   -0.598345
     30          1           0       -4.057090   -1.372410    0.344854
     31          1           0       -4.534135    0.201525    2.235684
     32          7           0       -1.976729   -1.270891   -1.319428
     33          8           0       -2.776694   -2.185080   -1.506384
     34          8           0       -0.963903   -1.069292   -1.985894
 ---------------------------------------------------------------------

 SCF Done:  E(RHF) =  -669.535282225     A.U. after   15 cycles
 E2 =    -0.2093501451D+01 EUMP2 =    -0.67162878367582D+03

 The electronic state is 1-A.
 Alpha  occ. eigenvalues --  -20.60876 -20.60869 -15.85915 -11.31221 -11.27797
 Alpha  occ. eigenvalues --  -11.27750 -11.27530 -11.26804 -11.26779 -11.22141
 Alpha  occ. eigenvalues --  -11.21486 -11.21477 -11.21439 -11.21391 -11.20955
 Alpha  occ. eigenvalues --   -1.59940  -1.39496  -1.19398  -1.08803  -1.08580
 Alpha  occ. eigenvalues --   -1.04802  -1.03701  -0.96117  -0.95646  -0.87140
 Alpha  occ. eigenvalues --   -0.86196  -0.82491  -0.79781  -0.78327  -0.77547
 Alpha  occ. eigenvalues --   -0.72139  -0.71257  -0.70539  -0.65384  -0.65039
 Alpha  occ. eigenvalues --   -0.64734  -0.62275  -0.60905  -0.59511  -0.57714
 Alpha  occ. eigenvalues --   -0.55424  -0.55266  -0.53127  -0.52884  -0.52835
 Alpha  occ. eigenvalues --   -0.52523  -0.50080  -0.48907  -0.48886  -0.48068
 Alpha  occ. eigenvalues --   -0.46827  -0.45875  -0.45755  -0.44899  -0.43917
 Alpha  occ. eigenvalues --   -0.37378  -0.36384
 Alpha virt. eigenvalues --    0.04956   0.11231   0.16420   0.19490   0.23057
 Alpha virt. eigenvalues --    0.24020   0.25493   0.26311   0.27763   0.28224
 Alpha virt. eigenvalues --    0.29494   0.30071   0.31454   0.31578   0.32404

 Mulliken charges:
               1
     1  C   -0.297695
     2  C   -0.301720
     3  C   -0.475797
     4  H    0.147965
     5  H    0.146466
     6  H    0.152329
     7  H    0.160560
     8  H    0.154344
     9  H    0.153380
    10  H    0.161780
    11  C   -0.308789
    12  C   -0.309037
    13  C   -0.479920
    14  H    0.153098
    15  H    0.166312
    16  H    0.155941
    17  H    0.139404
    18  H    0.160037
    19  H    0.161497
    20  H    0.157911
    21  C   -0.170257
    22  C   -0.225075
    23  C   -0.177949
    24  C    0.156710
    25  C   -0.169870
    26  C   -0.219099
    27  H    0.225988
    28  H    0.226716
    29  H    0.289907
    30  H    0.275608
    31  H    0.223664
    32  N    0.488326
    33  O   -0.459265
    34  O   -0.463470
 Sum of Mulliken charges =  -0.00000

 Dipole moment (field-independent basis, Debye):
    X=             -0.9250    Y=              3.1750    Z=              3.8024  Tot=              5.0393
 Quadrupole moment (field-independent basis, Debye-Ang):
   XX=            -85.8481   YY=            -96.6048   ZZ=            -97.3835
   XY=             -4.2536   XZ=            -10.6414   YZ=             -2.0862

 Normal termination of Gaussian 16 at Thu May  6 17:06:54 2021.
