 Gaussian 16, Revision A.03,
 Gaussian 16:  EM64L-G16RevA.03 25-Dec-2016

 -------------
 #p 6-31g* mp2
 -------------

 ------------------------------------------------------
 Input file generated by CHIRIPA (05-May-2021 14:55:25)
 ------------------------------------------------------
 Symbolic Z-matrix:
 Charge =  0 Multiplicity = 1

                         Standard orientation:
 ---------------------------------------------------------------------
 Center     Atomic      Atomic             Coordinates (Angstroms)
 Number     Number       Type             X           Y           Z
 ---------------------------------------------------------------------
      1          6           0       -2.482994   -2.194403    0.386536
      2          6           0       -3.693625   -2.000138   -0.286632
      3          6           0       -4.212419   -0.713209   -0.457554
      4          6           0       -3.491079    0.361632    0.059819
      5          6           0       -2.282273    0.200486    0.735179
      6          6           0       -1.782417   -1.095408    0.894398
      7          1           0       -2.087339   -3.197602    0.514767
      8          1           0       -4.239861   -2.851771   -0.682096
      9          1           0       -5.147333   -0.534223   -0.974582
     10          1           0       -1.760502    1.069040    1.118308
     11          1           0       -0.841983   -1.243279    1.417621
     12          7           0       -4.030278    1.728791   -0.114933
     13          8           0       -3.375574    2.659177    0.350235
     14          8           0       -5.097397    1.844098   -0.713764
     15          6           0        4.837670    0.273803    0.273021
     16          6           0        6.020227    0.757441   -0.567000
     17          6           0        6.977291    1.653218    0.220023
     18          1           0        4.291559    1.144384    0.661344
     19          1           0        5.217221   -0.272619    1.147526
     20          1           0        5.638526    1.301597   -1.440392
     21          1           0        6.563476   -0.114393   -0.953527
     22          1           0        7.385819    1.116591    1.082426
     23          1           0        6.455613    2.540627    0.592794
     24          1           0        7.815254    1.987552   -0.399573
     25          6           0        3.871992   -0.622749   -0.499890
     26          6           0        2.689435   -1.106388    0.340132
     27          6           0        1.732371   -2.002165   -0.446892
     28          1           0        3.492441   -0.076327   -1.374395
     29          1           0        4.418103   -1.493330   -0.888213
     30          1           0        2.146187   -0.234553    0.726658
     31          1           0        3.071137   -1.650544    1.213523
     32          1           0        2.254050   -2.889574   -0.819663
     33          1           0        1.323844   -1.465538   -1.309296
     34          1           0        0.894408   -2.336498    0.172704
 ---------------------------------------------------------------------

 SCF Done:  E(RHF) =  -669.535077151     A.U. after   15 cycles
 E2 =    -0.2091456427D+01 EUMP2 =    -0.67162653357791D+03

 The electronic state is 1-A.
 Alpha  occ. eigenvalues --  -20.60755 -20.60750 -15.85808 -11.31169 -11.27732
 Alpha  occ. eigenvalues --  -11.27725 -11.27472 -11.26751 -11.26722 -11.22358
 Alpha  occ. eigenvalues --  -11.21917 -11.21911 -11.21892 -11.21761 -11.21293
 Alpha  occ. eigenvalues --   -1.59830  -1.39384  -1.19339  -1.08927  -1.08735
 Alpha  occ. eigenvalues --   -1.04744  -1.04051  -0.96501  -0.95571  -0.87524
 Alpha  occ. eigenvalues --   -0.86138  -0.82403  -0.80127  -0.78706  -0.77455
 Alpha  occ. eigenvalues --   -0.72027  -0.71153  -0.70449  -0.65552  -0.64995
 Alpha  occ. eigenvalues --   -0.64794  -0.62149  -0.61426  -0.59880  -0.58103
 Alpha  occ. eigenvalues --   -0.55762  -0.55239  -0.53376  -0.53007  -0.53000
 Alpha  occ. eigenvalues --   -0.52635  -0.50415  -0.48786  -0.48782  -0.48436
 Alpha  occ. eigenvalues --   -0.47148  -0.46255  -0.46152  -0.44791  -0.44304
 Alpha  occ. eigenvalues --   -0.37302  -0.36328
 Alpha virt. eigenvalues --    0.05075   0.11231   0.16552   0.19990   0.22626
 Alpha virt. eigenvalues --    0.23948   0.25970   0.26270   0.26850   0.27844
 Alpha virt. eigenvalues --    0.28633   0.30533   0.30938   0.31403   0.31896

 Mulliken charges:
               1
     1  C   -0.170824
     2  C   -0.218614
     3  C   -0.171187
     4  C    0.158529
     5  C   -0.172765
     6  C   -0.217158
     7  H    0.225650
     8  H    0.223419
     9  H    0.275503
    10  H    0.275216
    11  H    0.226345
    12  N    0.488063
    13  O   -0.460600
    14  O   -0.460446
    15  C   -0.298920
    16  C   -0.300197
    17  C   -0.476091
    18  H    0.150756
    19  H    0.149516
    20  H    0.153356
    21  H    0.152125
    22  H    0.155139
    23  H    0.156275
    24  H    0.161479
    25  C   -0.298720
    26  C   -0.301417
    27  C   -0.475536
    28  H    0.152241
    29  H    0.150914
    30  H    0.148975
    31  H    0.152163
    32  H    0.157663
    33  H    0.161365
    34  H    0.147784
 Sum of Mulliken charges =  -0.00000

 Dipole moment (field-independent basis, Debye):
    X=              2.0395    Y=             -4.7920    Z=              0.5444  Tot=              5.2363
 Quadrupole moment (field-independent basis, Debye-Ang):
   XX=           -104.9231   YY=            -97.9387   ZZ=            -94.2708
   XY=             18.5268   XZ=             -0.1225   YZ=              0.5438

 Normal termination of Gaussian 16 at Thu May  6 04:47:32 2021.
