 Gaussian 16, Revision A.03,
 Gaussian 16:  EM64L-G16RevA.03 25-Dec-2016

 -------------
 #p 6-31g* mp2
 -------------

 ------------------------------------------------------
 Input file generated by CHIRIPA (05-May-2021 14:55:22)
 ------------------------------------------------------
 Symbolic Z-matrix:
 Charge =  0 Multiplicity = 1

                         Standard orientation:
 ---------------------------------------------------------------------
 Center     Atomic      Atomic             Coordinates (Angstroms)
 Number     Number       Type             X           Y           Z
 ---------------------------------------------------------------------
      1          6           0       -1.660504   -1.794334    1.870614
      2          6           0       -2.813865   -1.006587    1.946340
      3          6           0       -3.158621   -0.149738    0.896815
      4          6           0       -2.323532   -0.105480   -0.218513
      5          6           0       -1.167832   -0.877877   -0.323632
      6          6           0       -0.842610   -1.727582    0.737867
      7          1           0       -1.400276   -2.457180    2.690561
      8          1           0       -3.450920   -1.056370    2.824820
      9          1           0       -4.045711    0.471097    0.929258
     10          1           0       -0.552471   -0.806569   -1.212262
     11          1           0        0.053714   -2.338204    0.676314
     12          7           0       -2.678170    0.797847   -1.335936
     13          8           0       -1.925835    0.818533   -2.307636
     14          8           0       -3.701755    1.468083   -1.218914
     15          6           0        2.711506   -0.412087   -0.019374
     16          6           0        3.653361   -1.201632   -0.929050
     17          6           0        3.264626   -2.675764   -1.045725
     18          1           0        2.705517   -0.871285    0.978648
     19          1           0        1.686294   -0.492359   -0.406532
     20          1           0        4.676697   -1.118751   -0.541069
     21          1           0        3.657255   -0.740386   -1.924968
     22          1           0        2.253887   -2.776467   -1.454218
     23          1           0        3.279121   -3.156981   -0.062455
     24          1           0        3.951138   -3.221371   -1.700612
     25          6           0        3.087108    1.063245    0.107305
     26          6           0        2.145253    1.852790    1.016983
     27          6           0        2.533988    3.326923    1.133658
     28          1           0        4.112320    1.143517    0.494463
     29          1           0        3.093097    1.522444   -0.890715
     30          1           0        2.141359    1.391545    2.012901
     31          1           0        1.121917    1.769910    0.629002
     32          1           0        2.519493    3.808140    0.150388
     33          1           0        3.544728    3.427625    1.542150
     34          1           0        1.847477    3.872529    1.788545
 ---------------------------------------------------------------------

 SCF Done:  E(RHF) =  -669.534743317     A.U. after   15 cycles
 E2 =    -0.2093515432D+01 EUMP2 =    -0.67162825874926D+03

 The electronic state is 1-A.
 Alpha  occ. eigenvalues --  -20.60791 -20.60785 -15.85843 -11.31198 -11.27743
 Alpha  occ. eigenvalues --  -11.27739 -11.27465 -11.26766 -11.26714 -11.22126
 Alpha  occ. eigenvalues --  -11.21944 -11.21827 -11.21743 -11.21641 -11.21101
 Alpha  occ. eigenvalues --   -1.59866  -1.39420  -1.19357  -1.08844  -1.08747
 Alpha  occ. eigenvalues --   -1.04759  -1.03900  -0.96376  -0.95594  -0.87390
 Alpha  occ. eigenvalues --   -0.86151  -0.82440  -0.79986  -0.78684  -0.77443
 Alpha  occ. eigenvalues --   -0.72061  -0.71190  -0.70476  -0.65513  -0.64991
 Alpha  occ. eigenvalues --   -0.64740  -0.62130  -0.61274  -0.59751  -0.57979
 Alpha  occ. eigenvalues --   -0.55687  -0.55249  -0.53167  -0.52993  -0.52851
 Alpha  occ. eigenvalues --   -0.52775  -0.50317  -0.48820  -0.48818  -0.48288
 Alpha  occ. eigenvalues --   -0.47015  -0.46168  -0.46073  -0.44825  -0.44157
 Alpha  occ. eigenvalues --   -0.37330  -0.36285
 Alpha virt. eigenvalues --    0.05019   0.11228   0.16473   0.19543   0.22894
 Alpha virt. eigenvalues --    0.23673   0.25325   0.26251   0.27328   0.28426
 Alpha virt. eigenvalues --    0.29649   0.30677   0.31124   0.31403   0.32234

 Mulliken charges:
               1
     1  C   -0.172031
     2  C   -0.217950
     3  C   -0.171634
     4  C    0.157777
     5  C   -0.173746
     6  C   -0.216086
     7  H    0.225617
     8  H    0.223390
     9  H    0.275467
    10  H    0.275110
    11  H    0.228644
    12  N    0.488183
    13  O   -0.461121
    14  O   -0.460132
    15  C   -0.303311
    16  C   -0.299762
    17  C   -0.477931
    18  H    0.145571
    19  H    0.147507
    20  H    0.154544
    21  H    0.156974
    22  H    0.149419
    23  H    0.152087
    24  H    0.165883
    25  C   -0.298626
    26  C   -0.300502
    27  C   -0.476281
    28  H    0.150030
    29  H    0.154587
    30  H    0.149066
    31  H    0.155137
    32  H    0.158794
    33  H    0.154140
    34  H    0.161185
 Sum of Mulliken charges =  -0.00000

 Dipole moment (field-independent basis, Debye):
    X=              1.3344    Y=             -3.1017    Z=              3.9136  Tot=              5.1689
 Quadrupole moment (field-independent basis, Debye-Ang):
   XX=            -96.7997   YY=            -95.3418   ZZ=            -95.1088
   XY=              5.7168   XZ=            -11.7395   YZ=              0.6466

 Normal termination of Gaussian 16 at Thu May  6 01:27:39 2021.
