 Gaussian 16, Revision A.03,
 Gaussian 16:  EM64L-G16RevA.03 25-Dec-2016

 -------------
 #p 6-31g* mp2
 -------------

 ------------------------------------------------------
 Input file generated by CHIRIPA (05-May-2021 14:57:27)
 ------------------------------------------------------
 Symbolic Z-matrix:
 Charge =  0 Multiplicity = 1

                         Standard orientation:
 ---------------------------------------------------------------------
 Center     Atomic      Atomic             Coordinates (Angstroms)
 Number     Number       Type             X           Y           Z
 ---------------------------------------------------------------------
      1          6           0       -2.080135   -0.830580    1.456680
      2          6           0       -2.114838    0.428099    0.847547
      3          6           0       -3.232484    0.829193    0.109619
      4          6           0       -4.302590   -0.057562    0.000856
      5          6           0       -4.298013   -1.318115    0.596065
      6          6           0       -3.169912   -1.698140    1.329220
      7          1           0       -1.207859   -1.133976    2.028067
      8          1           0       -1.269952    1.103928    0.944848
      9          1           0       -3.285821    1.797885   -0.372263
     10          1           0       -5.155505   -1.970001    0.481306
     11          1           0       -3.145735   -2.676248    1.801201
     12          7           0       -5.491326    0.355906   -0.777829
     13          8           0       -6.421200   -0.443744   -0.858652
     14          8           0       -5.470675    1.471803   -1.292596
     15          6           0        3.121119    2.372182    0.460687
     16          6           0        4.508892    2.214989    0.383890
     17          6           0        5.066015    0.974869    0.057908
     18          6           0        4.201951   -0.091475   -0.186220
     19          6           0        2.815245    0.033499   -0.117531
     20          6           0        2.280207    1.282856    0.210174
     21          1           0        2.696911    3.339124    0.714587
     22          1           0        5.164382    3.059218    0.577938
     23          1           0        6.136823    0.825254   -0.008451
     24          1           0        2.187395   -0.826568   -0.316294
     25          1           0        1.202072    1.402008    0.269091
     26          7           0        4.780062   -1.409223   -0.532234
     27          8           0        3.997229   -2.333057   -0.742813
     28          8           0        6.005070   -1.493290   -0.586310
 ---------------------------------------------------------------------

 SCF Done:  E(RHF) =  -868.336805444     A.U. after   16 cycles
 E2 =    -0.2599423533D+01 EUMP2 =    -0.87093622897690D+03

 The electronic state is 1-A.
 Alpha  occ. eigenvalues --  -20.61305 -20.61293 -20.61162 -20.61152 -15.86361
 Alpha  occ. eigenvalues --  -15.86220 -11.31822 -11.31692 -11.28465 -11.28380
 Alpha  occ. eigenvalues --  -11.28351 -11.28251 -11.28191 -11.28081 -11.27560
 Alpha  occ. eigenvalues --  -11.27470 -11.27394 -11.27256  -1.60376  -1.60233
 Alpha  occ. eigenvalues --   -1.39927  -1.39784  -1.20018  -1.19895  -1.09394
 Alpha  occ. eigenvalues --   -1.09271  -1.05450  -1.05326  -0.96207  -0.96080
 Alpha  occ. eigenvalues --   -0.86858  -0.86715  -0.83051  -0.82918  -0.78093
 Alpha  occ. eigenvalues --   -0.77935  -0.72577  -0.72436  -0.71701  -0.71558
 Alpha  occ. eigenvalues --   -0.71119  -0.70996  -0.65676  -0.65646  -0.65551
 Alpha  occ. eigenvalues --   -0.65230  -0.62875  -0.62596  -0.55943  -0.55818
 Alpha  occ. eigenvalues --   -0.53757  -0.53688  -0.53620  -0.53312  -0.49345
 Alpha  occ. eigenvalues --   -0.49325  -0.49203  -0.49183  -0.45311  -0.45166
 Alpha  occ. eigenvalues --   -0.37996  -0.37880  -0.37053  -0.36927
 Alpha virt. eigenvalues --    0.04479   0.04615   0.10592   0.10655   0.15928
 Alpha virt. eigenvalues --    0.16044   0.18045   0.21952   0.24490   0.27187
 Alpha virt. eigenvalues --    0.27918   0.28782   0.29306   0.31397   0.31887

 Mulliken charges:
               1
     1  C   -0.172027
     2  C   -0.223711
     3  C   -0.170180
     4  C    0.159093
     5  C   -0.169318
     6  C   -0.217947
     7  H    0.227069
     8  H    0.217282
     9  H    0.275645
    10  H    0.278128
    11  H    0.227097
    12  N    0.488091
    13  O   -0.458283
    14  O   -0.460145
    15  C   -0.171181
    16  C   -0.218276
    17  C   -0.169764
    18  C    0.159203
    19  C   -0.172778
    20  C   -0.222401
    21  H    0.226862
    22  H    0.225988
    23  H    0.277805
    24  H    0.275297
    25  H    0.218997
    26  N    0.488104
    27  O   -0.460365
    28  O   -0.458285
 Sum of Mulliken charges =  -0.00000

 Dipole moment (field-independent basis, Debye):
    X=              2.1623    Y=              3.0841    Z=              3.9538  Tot=              5.4607
 Quadrupole moment (field-independent basis, Debye-Ang):
   XX=           -151.5580   YY=           -101.3054   ZZ=           -106.6597
   XY=             30.6628   XZ=             -6.5036   YZ=             -2.1313

 Normal termination of Gaussian 16 at Thu May  6 06:49:57 2021.
