 Gaussian 16, Revision A.03,
 Gaussian 16:  EM64L-G16RevA.03 25-Dec-2016

 -------------
 #p 6-31g* mp2
 -------------

 ------------------------------------------------------
 Input file generated by CHIRIPA (05-May-2021 14:53:13)
 ------------------------------------------------------
 Symbolic Z-matrix:
 Charge =  0 Multiplicity = 1

                         Standard orientation:
 ---------------------------------------------------------------------
 Center     Atomic      Atomic             Coordinates (Angstroms)
 Number     Number       Type             X           Y           Z
 ---------------------------------------------------------------------
      1          6           0       -4.657401   -0.123081    0.045278
      2          6           0       -4.602114   -1.651116    0.039177
      3          6           0       -5.989859   -2.292818    0.025896
      4          1           0       -5.226928    0.213378    0.922420
      5          1           0       -5.212734    0.220316   -0.838509
      6          1           0       -4.045859   -1.991481    0.921983
      7          1           0       -4.032489   -1.983971   -0.837950
      8          1           0       -6.549648   -1.981743   -0.862063
      9          1           0       -6.563094   -1.989297    0.907870
     10          1           0       -5.926897   -3.385465    0.021711
     11          6           0       -3.277866    0.532994    0.058557
     12          6           0       -3.333153    2.061029    0.064658
     13          6           0       -1.945408    2.702731    0.077939
     14          1           0       -2.722533    0.189597    0.942344
     15          1           0       -2.708339    0.196535   -0.818585
     16          1           0       -3.902778    2.393884    0.941785
     17          1           0       -3.889409    2.401394   -0.818148
     18          1           0       -1.372174    2.399210   -0.804035
     19          1           0       -1.385620    2.391656    0.965898
     20          1           0       -2.008370    3.795378    0.082124
     21          6           0        3.917479   -2.544995    0.057248
     22          6           0        4.805769   -1.490225    0.291610
     23          6           0        4.363707   -0.164908    0.240007
     24          6           0        3.020655    0.070438   -0.050016
     25          6           0        2.111268   -0.958924   -0.288171
     26          6           0        2.575430   -2.276451   -0.231385
     27          1           0        4.269467   -3.571507    0.099347
     28          1           0        5.848571   -1.695802    0.515993
     29          1           0        5.029895    0.670656    0.417335
     30          1           0        1.077536   -0.722605   -0.509460
     31          1           0        1.883319   -3.093607   -0.413824
     32          7           0        2.540966    1.469369   -0.107390
     33          8           0        1.352853    1.650207   -0.364916
     34          8           0        3.362183    2.358524    0.106254
 ---------------------------------------------------------------------

 SCF Done:  E(RHF) =  -669.535556160     A.U. after   15 cycles
 E2 =    -0.2091085310D+01 EUMP2 =    -0.67162664147010D+03

 The electronic state is 1-A.
 Alpha  occ. eigenvalues --  -20.60825 -20.60819 -15.85867 -11.31225 -11.27795
 Alpha  occ. eigenvalues --  -11.27788 -11.27539 -11.26811 -11.26800 -11.21495
 Alpha  occ. eigenvalues --  -11.21076 -11.20996 -11.20907 -11.20751 -11.19630
 Alpha  occ. eigenvalues --   -1.59896  -1.39451  -1.19399  -1.08797  -1.07995
 Alpha  occ. eigenvalues --   -1.04800  -1.02967  -0.95643  -0.95365  -0.86384
 Alpha  occ. eigenvalues --   -0.86197  -0.82468  -0.79074  -0.77782  -0.77490
 Alpha  occ. eigenvalues --   -0.72091  -0.71215  -0.70507  -0.65055  -0.64803
 Alpha  occ. eigenvalues --   -0.64636  -0.62146  -0.60369  -0.58847  -0.56977
 Alpha  occ. eigenvalues --   -0.55304  -0.54653  -0.53132  -0.52893  -0.52060
 Alpha  occ. eigenvalues --   -0.51774  -0.49324  -0.48849  -0.48845  -0.47323
 Alpha  occ. eigenvalues --   -0.46137  -0.45295  -0.45215  -0.44810  -0.43243
 Alpha  occ. eigenvalues --   -0.37382  -0.36404
 Alpha virt. eigenvalues --    0.05008   0.11250   0.16492   0.21241   0.23180
 Alpha virt. eigenvalues --    0.24697   0.26746   0.27214   0.27631   0.28442
 Alpha virt. eigenvalues --    0.28972   0.30946   0.31893   0.32080   0.32564

 Mulliken charges:
               1
     1  C   -0.297449
     2  C   -0.298899
     3  C   -0.475230
     4  H    0.149610
     5  H    0.149448
     6  H    0.149632
     7  H    0.148772
     8  H    0.155541
     9  H    0.155619
    10  H    0.158093
    11  C   -0.296441
    12  C   -0.301566
    13  C   -0.472269
    14  H    0.146965
    15  H    0.146281
    16  H    0.148057
    17  H    0.148561
    18  H    0.168733
    19  H    0.157757
    20  H    0.156557
    21  C   -0.170764
    22  C   -0.218601
    23  C   -0.170803
    24  C    0.157584
    25  C   -0.171224
    26  C   -0.218639
    27  H    0.225738
    28  H    0.223550
    29  H    0.275696
    30  H    0.276210
    31  H    0.223843
    32  N    0.493641
    33  O   -0.464167
    34  O   -0.459836
 Sum of Mulliken charges =  -0.00000

 Dipole moment (field-independent basis, Debye):
    X=              1.9049    Y=             -4.8389    Z=              0.1794  Tot=              5.2034
 Quadrupole moment (field-independent basis, Debye-Ang):
   XX=            -82.0346   YY=            -95.8647   ZZ=            -94.4079
   XY=            -13.8765   XZ=              1.7434   YZ=              0.5894

 Normal termination of Gaussian 16 at Thu May  6 02:35:34 2021.
