 Gaussian 16, Revision A.03,
 Gaussian 16:  EM64L-G16RevA.03 25-Dec-2016

 -------------
 #p 6-31g* mp2
 -------------

 ------------------------------------------------------
 Input file generated by CHIRIPA (05-May-2021 14:51:10)
 ------------------------------------------------------
 Symbolic Z-matrix:
 Charge =  0 Multiplicity = 1

                         Standard orientation:
 ---------------------------------------------------------------------
 Center     Atomic      Atomic             Coordinates (Angstroms)
 Number     Number       Type             X           Y           Z
 ---------------------------------------------------------------------
      1          6           0        2.823889   -1.292403    0.145753
      2          6           0        1.326566   -1.405471   -0.142736
      3          6           0        0.768500   -2.795259    0.165234
      4          1           0        3.362720   -2.044891   -0.446165
      5          1           0        3.006204   -1.536050    1.201590
      6          1           0        1.146964   -1.160337   -1.197377
      7          1           0        0.791256   -0.652498    0.449794
      8          1           0        0.918601   -3.045525    1.220430
      9          1           0        1.276330   -3.556249   -0.436100
     10          1           0       -0.303360   -2.853822   -0.048180
     11          6           0        3.396425    0.091133   -0.157164
     12          6           0        4.893748    0.204200    0.131325
     13          6           0        5.451814    1.593988   -0.176645
     14          1           0        3.214110    0.334780   -1.213002
     15          1           0        2.857594    0.843621    0.434754
     16          1           0        5.429058   -0.548772   -0.461205
     17          1           0        5.073350   -0.040934    1.185966
     18          1           0        4.943984    2.354979    0.424689
     19          1           0        5.301713    1.844255   -1.231841
     20          1           0        6.523674    1.652551    0.036769
     21          6           0       -3.633021    0.066274   -0.150829
     22          6           0       -3.153324   -1.355697    0.142216
     23          6           0       -4.210424   -2.413554   -0.176014
     24          1           0       -4.542106    0.267246    0.432368
     25          1           0       -3.918426    0.138637   -1.209461
     26          1           0       -2.867602   -1.424982    1.199656
     27          1           0       -2.245166   -1.553240   -0.441601
     28          1           0       -4.489306   -2.373424   -1.233944
     29          1           0       -5.115279   -2.244436    0.416637
     30          1           0       -3.846511   -3.422709    0.040860
     31          6           0       -2.587293    1.134997    0.162240
     32          6           0       -3.066990    2.556967   -0.130805
     33          6           0       -2.009890    3.614825    0.187425
     34          1           0       -2.301888    1.062634    1.220872
     35          1           0       -1.678208    0.934024   -0.420958
     36          1           0       -3.975148    2.754511    0.453012
     37          1           0       -3.352712    2.626251   -1.188245
     38          1           0       -1.105035    3.445707   -0.405227
     39          1           0       -1.731008    3.574695    1.245355
     40          1           0       -2.373804    4.623979   -0.029448
 ---------------------------------------------------------------------

 SCF Done:  E(RHF) =  -470.733246437     A.U. after   11 cycles
 E2 =    -0.1583107482D+01 EUMP2 =    -0.47231635391837D+03

 The electronic state is 1-A.
 Alpha  occ. eigenvalues --  -11.21603 -11.21600 -11.21592 -11.21576 -11.21406
 Alpha  occ. eigenvalues --  -11.21392 -11.21346 -11.21333 -11.21085 -11.21072
 Alpha  occ. eigenvalues --  -11.21062 -11.20996  -1.08445  -1.08405  -1.03555
 Alpha  occ. eigenvalues --   -1.03493  -0.95992  -0.95950  -0.87016  -0.86958
 Alpha  occ. eigenvalues --   -0.79632  -0.79545  -0.78298  -0.78184  -0.65075
 Alpha  occ. eigenvalues --   -0.65041  -0.60958  -0.60903  -0.59508  -0.59196
 Alpha  occ. eigenvalues --   -0.57677  -0.57487  -0.55273  -0.55239  -0.52720
 Alpha  occ. eigenvalues --   -0.52628  -0.52450  -0.52344  -0.49924  -0.49895
 Alpha  occ. eigenvalues --   -0.48041  -0.47753  -0.46624  -0.46605  -0.45891
 Alpha  occ. eigenvalues --   -0.45750  -0.45695  -0.45585  -0.43808  -0.43725
 Alpha virt. eigenvalues --    0.21350   0.23148   0.23472   0.24500   0.26020
 Alpha virt. eigenvalues --    0.26416   0.27020   0.27061   0.28085   0.29258
 Alpha virt. eigenvalues --    0.30549   0.31385   0.31462   0.31780   0.32279

 Mulliken charges:
               1
     1  C   -0.298187
     2  C   -0.301749
     3  C   -0.481343
     4  H    0.149598
     5  H    0.149593
     6  H    0.150492
     7  H    0.155071
     8  H    0.154924
     9  H    0.154506
    10  H    0.166455
    11  C   -0.298371
    12  C   -0.299626
    13  C   -0.475723
    14  H    0.149155
    15  H    0.149918
    16  H    0.151893
    17  H    0.151946
    18  H    0.155306
    19  H    0.155082
    20  H    0.160225
    21  C   -0.297661
    22  C   -0.305382
    23  C   -0.476282
    24  H    0.149634
    25  H    0.149410
    26  H    0.152211
    27  H    0.157578
    28  H    0.155185
    29  H    0.155472
    30  H    0.160535
    31  C   -0.300667
    32  C   -0.299597
    33  C   -0.475823
    34  H    0.148982
    35  H    0.152670
    36  H    0.151922
    37  H    0.151954
    38  H    0.155533
    39  H    0.154873
    40  H    0.160285
 Sum of Mulliken charges =  -0.00000

 Dipole moment (field-independent basis, Debye):
    X=             -0.0196    Y=              0.0051    Z=              0.0037  Tot=              0.0206
 Quadrupole moment (field-independent basis, Debye-Ang):
   XX=            -85.4026   YY=            -86.4302   ZZ=            -82.9916
   XY=             -1.1422   XZ=             -0.5491   YZ=              0.3550

 Normal termination of Gaussian 16 at Thu May  6 03:46:14 2021.
