 Gaussian 16, Revision A.03,
 Gaussian 16:  EM64L-G16RevA.03 25-Dec-2016

 -------------
 #p 6-31g* mp2
 -------------

 ------------------------------------------------------
 Input file generated by CHIRIPA (05-May-2021 14:53:14)
 ------------------------------------------------------
 Symbolic Z-matrix:
 Charge =  0 Multiplicity = 1

                         Standard orientation:
 ---------------------------------------------------------------------
 Center     Atomic      Atomic             Coordinates (Angstroms)
 Number     Number       Type             X           Y           Z
 ---------------------------------------------------------------------
      1          6           0        3.871573   -0.001382   -0.302105
      2          6           0        5.320265    0.128726    0.169432
      3          6           0        6.143777   -1.131926   -0.095859
      4          1           0        3.404431   -0.858906    0.201261
      5          1           0        3.862183   -0.227052   -1.377456
      6          1           0        5.326889    0.355451    1.243289
      7          1           0        5.783955    0.986155   -0.334970
      8          1           0        6.166948   -1.358681   -1.166675
      9          1           0        5.707285   -1.992969    0.420552
     10          1           0        7.176117   -1.017051    0.249014
     11          6           0        3.035607    1.250877   -0.043774
     12          6           0        1.586914    1.120769   -0.515311
     13          6           0        0.763403    2.381421   -0.250019
     14          1           0        3.044997    1.476547    1.031578
     15          1           0        3.502749    2.108400   -0.547139
     16          1           0        1.123224    0.263339   -0.010908
     17          1           0        1.580291    0.894044   -1.589167
     18          1           0        1.199895    3.242464   -0.766430
     19          1           0        0.740232    2.608176    0.820797
     20          1           0       -0.268937    2.266545   -0.594892
     21          6           0       -0.613493   -1.843058    0.564424
     22          6           0       -1.395635   -2.101132   -0.566139
     23          6           0       -2.552713   -1.356644   -0.814039
     24          6           0       -2.899650   -0.357090    0.093604
     25          6           0       -2.141103   -0.076085    1.228914
     26          6           0       -0.988063   -0.833138    1.456769
     27          1           0        0.283785   -2.426274    0.749212
     28          1           0       -1.107167   -2.884834   -1.260865
     29          1           0       -3.176504   -1.535367   -1.681426
     30          1           0       -2.454249    0.711633    1.903348
     31          1           0       -0.382557   -0.630505    2.335602
     32          7           0       -4.122460    0.437717   -0.158226
     33          8           0       -4.406510    1.312851    0.656694
     34          8           0       -4.773695    0.170504   -1.165760
 ---------------------------------------------------------------------

 SCF Done:  E(RHF) =  -669.534147167     A.U. after   15 cycles
 E2 =    -0.2093976041D+01 EUMP2 =    -0.67162812320806D+03

 The electronic state is 1-A.
 Alpha  occ. eigenvalues --  -20.60819 -20.60814 -15.85875 -11.31271 -11.27843
 Alpha  occ. eigenvalues --  -11.27837 -11.27575 -11.26851 -11.26841 -11.22096
 Alpha  occ. eigenvalues --  -11.21957 -11.21791 -11.21725 -11.21564 -11.21254
 Alpha  occ. eigenvalues --   -1.59896  -1.39448  -1.19455  -1.08911  -1.08810
 Alpha  occ. eigenvalues --   -1.04859  -1.03897  -0.96365  -0.95675  -0.87377
 Alpha  occ. eigenvalues --   -0.86257  -0.82498  -0.79976  -0.78694  -0.77537
 Alpha  occ. eigenvalues --   -0.72092  -0.71221  -0.70561  -0.65541  -0.65101
 Alpha  occ. eigenvalues --   -0.64849  -0.62201  -0.61338  -0.59747  -0.57995
 Alpha  occ. eigenvalues --   -0.55704  -0.55356  -0.53286  -0.52945  -0.52891
 Alpha  occ. eigenvalues --   -0.52781  -0.50321  -0.48853  -0.48844  -0.48292
 Alpha  occ. eigenvalues --   -0.47030  -0.46236  -0.46171  -0.44847  -0.44175
 Alpha  occ. eigenvalues --   -0.37297  -0.36415
 Alpha virt. eigenvalues --    0.04965   0.11128   0.16384   0.20489   0.22785
 Alpha virt. eigenvalues --    0.23903   0.25763   0.26471   0.27277   0.27624
 Alpha virt. eigenvalues --    0.29303   0.30616   0.31196   0.31584   0.31685

 Mulliken charges:
               1
     1  C   -0.296094
     2  C   -0.299701
     3  C   -0.475615
     4  H    0.139978
     5  H    0.150682
     6  H    0.151633
     7  H    0.154438
     8  H    0.155876
     9  H    0.152549
    10  H    0.162072
    11  C   -0.297763
    12  C   -0.306935
    13  C   -0.474989
    14  H    0.146465
    15  H    0.151719
    16  H    0.157003
    17  H    0.151079
    18  H    0.156627
    19  H    0.150211
    20  H    0.163925
    21  C   -0.172084
    22  C   -0.216537
    23  C   -0.170994
    24  C    0.157784
    25  C   -0.168781
    26  C   -0.218037
    27  H    0.227055
    28  H    0.224148
    29  H    0.276049
    30  H    0.276322
    31  H    0.224224
    32  N    0.487890
    33  O   -0.459968
    34  O   -0.460232
 Sum of Mulliken charges =  -0.00000

 Dipole moment (field-independent basis, Debye):
    X=              4.2410    Y=             -2.8111    Z=              0.8534  Tot=              5.1591
 Quadrupole moment (field-independent basis, Debye-Ang):
   XX=           -120.7536   YY=            -92.4606   ZZ=            -90.4920
   XY=              7.9117   XZ=             -1.6397   YZ=              1.4724

 Normal termination of Gaussian 16 at Thu May  6 10:30:53 2021.
