 Gaussian 16, Revision A.03,
 Gaussian 16:  EM64L-G16RevA.03 25-Dec-2016

 -------------
 #p 6-31g* mp2
 -------------

 ------------------------------------------------------
 Input file generated by CHIRIPA (05-May-2021 14:57:22)
 ------------------------------------------------------
 Symbolic Z-matrix:
 Charge =  0 Multiplicity = 1

                         Standard orientation:
 ---------------------------------------------------------------------
 Center     Atomic      Atomic             Coordinates (Angstroms)
 Number     Number       Type             X           Y           Z
 ---------------------------------------------------------------------
      1          6           0       -3.469443    1.610496   -1.853178
      2          6           0       -4.045633    0.338412   -1.773641
      3          6           0       -3.738531   -0.514875   -0.709622
      4          6           0       -2.847221   -0.061725    0.261723
      5          6           0       -2.256790    1.200038    0.210395
      6          6           0       -2.578431    2.036499   -0.862652
      7          1           0       -3.713654    2.266815   -2.683240
      8          1           0       -4.737936    0.004917   -2.541459
      9          1           0       -4.170165   -1.504662   -0.623415
     10          1           0       -1.570151    1.504499    0.990939
     11          1           0       -2.129440    3.023894   -0.921839
     12          7           0       -2.514410   -0.956155    1.392932
     13          8           0       -1.726225   -0.533303    2.235901
     14          8           0       -3.048040   -2.063124    1.415183
     15          6           0        3.115614    2.124754    1.122323
     16          6           0        2.121309    1.216698    1.500891
     17          6           0        1.993724   -0.010996    0.844357
     18          6           0        2.881428   -0.299386   -0.191067
     19          6           0        3.882374    0.584434   -0.591393
     20          6           0        3.991428    1.806286    0.079228
     21          1           0        3.207527    3.076188    1.637805
     22          1           0        1.439742    1.461350    2.310617
     23          1           0        1.233053   -0.732425    1.117005
     24          1           0        4.547070    0.312377   -1.402309
     25          1           0        4.764571    2.509561   -0.216914
     26          7           0        2.756168   -1.595999   -0.893566
     27          8           0        3.550667   -1.826282   -1.802619
     28          8           0        1.865862   -2.357447   -0.521832
 ---------------------------------------------------------------------

 SCF Done:  E(RHF) =  -868.339191620     A.U. after   16 cycles
 E2 =    -0.2599630996D+01 EUMP2 =    -0.87093882261694D+03

 The electronic state is 1-A.
 Alpha  occ. eigenvalues --  -20.61197 -20.61104 -20.60491 -20.60468 -15.86178
 Alpha  occ. eigenvalues --  -15.85534 -11.31400 -11.30905 -11.28020 -11.27906
 Alpha  occ. eigenvalues --  -11.27666 -11.27552 -11.27366 -11.27304 -11.26975
 Alpha  occ. eigenvalues --  -11.26903 -11.26576 -11.26464  -1.60196  -1.59561
 Alpha  occ. eigenvalues --   -1.39764  -1.39111  -1.19557  -1.19106  -1.08976
 Alpha  occ. eigenvalues --   -1.08514  -1.04948  -1.04491  -0.95839  -0.95331
 Alpha  occ. eigenvalues --   -0.86356  -0.85898  -0.82686  -0.82146  -0.77760
 Alpha  occ. eigenvalues --   -0.77172  -0.72409  -0.71752  -0.71492  -0.70889
 Alpha  occ. eigenvalues --   -0.70680  -0.70207  -0.65222  -0.64961  -0.64749
 Alpha  occ. eigenvalues --   -0.64486  -0.62320  -0.61791  -0.55454  -0.55035
 Alpha  occ. eigenvalues --   -0.53270  -0.53062  -0.52844  -0.52561  -0.49178
 Alpha  occ. eigenvalues --   -0.49130  -0.48520  -0.48497  -0.45188  -0.44514
 Alpha  occ. eigenvalues --   -0.37519  -0.37135  -0.36555  -0.36090
 Alpha virt. eigenvalues --    0.04759   0.05326   0.11094   0.11524   0.16263
 Alpha virt. eigenvalues --    0.16726   0.20671   0.21901   0.25929   0.27466
 Alpha virt. eigenvalues --    0.28462   0.28849   0.30623   0.31420   0.32640

 Mulliken charges:
               1
     1  C   -0.169918
     2  C   -0.217873
     3  C   -0.168377
     4  C    0.160268
     5  C   -0.170347
     6  C   -0.217715
     7  H    0.226498
     8  H    0.225357
     9  H    0.277900
    10  H    0.267867
    11  H    0.222218
    12  N    0.490108
    13  O   -0.471892
    14  O   -0.451609
    15  C   -0.172011
    16  C   -0.227132
    17  C   -0.175979
    18  C    0.158192
    19  C   -0.171342
    20  C   -0.219638
    21  H    0.223481
    22  H    0.229124
    23  H    0.289324
    24  H    0.274355
    25  H    0.221551
    26  N    0.487525
    27  O   -0.463024
    28  O   -0.456911
 Sum of Mulliken charges =  -0.00000

 Dipole moment (field-independent basis, Debye):
    X=             -1.0283    Y=              7.5142    Z=             -1.5682  Tot=              7.7446
 Quadrupole moment (field-independent basis, Debye-Ang):
   XX=            -91.3370   YY=           -106.1404   ZZ=           -106.5467
   XY=              7.8554   XZ=             17.4590   YZ=             -0.0827

 Normal termination of Gaussian 16 at Thu May  6 16:13:18 2021.
