 Gaussian 16, Revision A.03,
 Gaussian 16:  EM64L-G16RevA.03 25-Dec-2016

 -------------
 #p 6-31g* mp2
 -------------

 ------------------------------------------------------
 Input file generated by CHIRIPA (05-May-2021 14:53:13)
 ------------------------------------------------------
 Symbolic Z-matrix:
 Charge =  0 Multiplicity = 1

                         Standard orientation:
 ---------------------------------------------------------------------
 Center     Atomic      Atomic             Coordinates (Angstroms)
 Number     Number       Type             X           Y           Z
 ---------------------------------------------------------------------
      1          6           0       -4.985739   -0.028205    0.441059
      2          6           0       -6.044106    0.148004   -0.648342
      3          6           0       -7.457439    0.288722   -0.082230
      4          1           0       -5.231413   -0.914367    1.042145
      5          1           0       -5.024584    0.832578    1.122923
      6          1           0       -6.002344   -0.712184   -1.328744
      7          1           0       -5.795779    1.033740   -1.247025
      8          1           0       -7.522099    1.157470    0.580866
      9          1           0       -7.729837   -0.598375    0.498682
     10          1           0       -8.198156    0.413615   -0.878221
     11          6           0       -3.567731   -0.170216   -0.109227
     12          6           0       -2.509364   -0.346425    0.980174
     13          6           0       -1.096031   -0.487143    0.414063
     14          1           0       -3.528886   -1.030999   -0.791091
     15          1           0       -3.322057    0.715946   -0.710313
     16          1           0       -2.757691   -1.232161    1.578857
     17          1           0       -2.551126    0.513763    1.660577
     18          1           0       -0.823633    0.399954   -0.166850
     19          1           0       -1.031371   -1.355891   -0.249034
     20          1           0       -0.355314   -0.612036    1.210053
     21          6           0        3.232811    2.597451   -0.065879
     22          6           0        4.342224    1.930880    0.464598
     23          6           0        4.412976    0.534940    0.434711
     24          6           0        3.351678   -0.166110   -0.135784
     25          6           0        2.232901    0.469177   -0.672476
     26          6           0        2.183540    1.865762   -0.631725
     27          1           0        3.186158    3.682101   -0.038442
     28          1           0        5.158571    2.496534    0.904664
     29          1           0        5.259987   -0.006540    0.838184
     30          1           0        1.434606   -0.121935   -1.104599
     31          1           0        1.320711    2.380763   -1.044457
     32          7           0        3.415257   -1.644272   -0.173175
     33          8           0        2.467183   -2.238901   -0.681318
     34          8           0        4.411960   -2.180235    0.306369
 ---------------------------------------------------------------------

 SCF Done:  E(RHF) =  -669.535091058     A.U. after   15 cycles
 E2 =    -0.2091861427D+01 EUMP2 =    -0.67162695248516D+03

 The electronic state is 1-A.
 Alpha  occ. eigenvalues --  -20.60716 -20.60710 -15.85765 -11.31098 -11.27701
 Alpha  occ. eigenvalues --  -11.27629 -11.27450 -11.26703 -11.26687 -11.21750
 Alpha  occ. eigenvalues --  -11.21712 -11.21555 -11.21483 -11.21287 -11.21161
 Alpha  occ. eigenvalues --   -1.59789  -1.39342  -1.19291  -1.08692  -1.08573
 Alpha  occ. eigenvalues --   -1.04697  -1.03674  -0.96146  -0.95522  -0.87176
 Alpha  occ. eigenvalues --   -0.86082  -0.82363  -0.79763  -0.78392  -0.77392
 Alpha  occ. eigenvalues --   -0.71986  -0.71111  -0.70405  -0.65207  -0.64943
 Alpha  occ. eigenvalues --   -0.64702  -0.62073  -0.61058  -0.59487  -0.57738
 Alpha  occ. eigenvalues --   -0.55445  -0.55199  -0.53153  -0.52901  -0.52674
 Alpha  occ. eigenvalues --   -0.52442  -0.50080  -0.48744  -0.48734  -0.48055
 Alpha  occ. eigenvalues --   -0.46769  -0.45932  -0.45847  -0.44756  -0.43916
 Alpha  occ. eigenvalues --   -0.37282  -0.36258
 Alpha virt. eigenvalues --    0.05107   0.11324   0.16562   0.20898   0.22753
 Alpha virt. eigenvalues --    0.24098   0.25829   0.26492   0.27493   0.27934
 Alpha virt. eigenvalues --    0.29104   0.29821   0.31579   0.31706   0.32356

 Mulliken charges:
               1
     1  C   -0.298369
     2  C   -0.299689
     3  C   -0.475784
     4  H    0.151307
     5  H    0.148741
     6  H    0.153045
     7  H    0.150635
     8  H    0.154737
     9  H    0.156051
    10  H    0.160498
    11  C   -0.298430
    12  C   -0.300902
    13  C   -0.479111
    14  H    0.152049
    15  H    0.145615
    16  H    0.155926
    17  H    0.150419
    18  H    0.140320
    19  H    0.166187
    20  H    0.165892
    21  C   -0.170642
    22  C   -0.219079
    23  C   -0.170869
    24  C    0.155420
    25  C   -0.168214
    26  C   -0.220605
    27  H    0.225184
    28  H    0.223031
    29  H    0.275256
    30  H    0.282142
    31  H    0.222611
    32  N    0.488346
    33  O   -0.460870
    34  O   -0.460848
 Sum of Mulliken charges =  -0.00000

 Dipole moment (field-independent basis, Debye):
    X=             -0.2944    Y=              5.0941    Z=              0.1662  Tot=              5.1053
 Quadrupole moment (field-independent basis, Debye-Ang):
   XX=            -93.6174   YY=            -96.0718   ZZ=            -94.5522
   XY=             18.2919   XZ=              3.0500   YZ=             -0.6604

 Normal termination of Gaussian 16 at Thu May  6 20:16:03 2021.
