 Gaussian 16, Revision A.03,
 Gaussian 16:  EM64L-G16RevA.03 25-Dec-2016

 -------------
 #p 6-31g* mp2
 -------------

 ------------------------------------------------------
 Input file generated by CHIRIPA (05-May-2021 14:53:16)
 ------------------------------------------------------
 Symbolic Z-matrix:
 Charge =  0 Multiplicity = 1

                         Standard orientation:
 ---------------------------------------------------------------------
 Center     Atomic      Atomic             Coordinates (Angstroms)
 Number     Number       Type             X           Y           Z
 ---------------------------------------------------------------------
      1          6           0       -2.091638    0.469038    0.821578
      2          6           0       -1.963296    1.805272    1.553692
      3          6           0       -0.584533    2.003934    2.184041
      4          1           0       -1.887692   -0.348880    1.526107
      5          1           0       -1.319232    0.410199    0.042270
      6          1           0       -2.736595    1.862157    2.330473
      7          1           0       -2.167760    2.620097    0.847384
      8          1           0        0.197193    1.973645    1.418151
      9          1           0       -0.374875    1.211399    2.909666
     10          1           0       -0.514759    2.965450    2.702190
     11          6           0       -3.464387    0.255830    0.186102
     12          6           0       -3.592729   -1.080404   -0.546011
     13          6           0       -4.971492   -1.279066   -1.176360
     14          1           0       -4.236794    0.314669    0.965411
     15          1           0       -3.668333    1.073748   -0.518427
     16          1           0       -3.388266   -1.895229    0.160297
     17          1           0       -2.819430   -1.137290   -1.322793
     18          1           0       -5.181151   -0.486531   -1.901986
     19          1           0       -5.753218   -1.248777   -0.410470
     20          1           0       -5.041267   -2.240582   -1.694509
     21          6           0        1.790500    1.569857   -2.063360
     22          6           0        2.915428    1.596021   -1.232473
     23          6           0        3.135985    0.574649   -0.303654
     24          6           0        2.207042   -0.462294   -0.232201
     25          6           0        1.076678   -0.516578   -1.046217
     26          6           0        0.876328    0.515501   -1.967749
     27          1           0        1.627016    2.367442   -2.782059
     28          1           0        3.627064    2.413595   -1.304524
     29          1           0        3.998421    0.570005    0.351784
     30          1           0        0.384953   -1.344770   -0.951191
     31          1           0        0.001809    0.492573   -2.611749
     32          7           0        2.429840   -1.549241    0.747241
     33          8           0        1.596523   -2.451649    0.790603
     34          8           0        3.433566   -1.478201    1.453019
 ---------------------------------------------------------------------

 SCF Done:  E(RHF) =  -669.534793189     A.U. after   15 cycles
 E2 =    -0.2094115603D+01 EUMP2 =    -0.67162890879188D+03

 The electronic state is 1-A.
 Alpha  occ. eigenvalues --  -20.60789 -20.60784 -15.85846 -11.31235 -11.27838
 Alpha  occ. eigenvalues --  -11.27812 -11.27591 -11.26850 -11.26838 -11.21936
 Alpha  occ. eigenvalues --  -11.21679 -11.21598 -11.21392 -11.21333 -11.21039
 Alpha  occ. eigenvalues --   -1.59863  -1.39416  -1.19443  -1.08821  -1.08607
 Alpha  occ. eigenvalues --   -1.04858  -1.03690  -0.96124  -0.95649  -0.87141
 Alpha  occ. eigenvalues --   -0.86237  -0.82488  -0.79768  -0.78449  -0.77502
 Alpha  occ. eigenvalues --   -0.72065  -0.71186  -0.70541  -0.65298  -0.65058
 Alpha  occ. eigenvalues --   -0.64842  -0.62189  -0.61103  -0.59501  -0.57738
 Alpha  occ. eigenvalues --   -0.55417  -0.55337  -0.53244  -0.52939  -0.52816
 Alpha  occ. eigenvalues --   -0.52543  -0.50074  -0.48826  -0.48815  -0.48064
 Alpha  occ. eigenvalues --   -0.46807  -0.45944  -0.45871  -0.44809  -0.43937
 Alpha  occ. eigenvalues --   -0.37418  -0.36337
 Alpha virt. eigenvalues --    0.04993   0.11173   0.16355   0.20072   0.22951
 Alpha virt. eigenvalues --    0.23957   0.25280   0.26683   0.27577   0.28012
 Alpha virt. eigenvalues --    0.29895   0.30726   0.31384   0.31656   0.31812

 Mulliken charges:
               1
     1  C   -0.307568
     2  C   -0.297971
     3  C   -0.479791
     4  H    0.156594
     5  H    0.150356
     6  H    0.152907
     7  H    0.147962
     8  H    0.156434
     9  H    0.159808
    10  H    0.158987
    11  C   -0.297796
    12  C   -0.299027
    13  C   -0.475665
    14  H    0.151876
    15  H    0.145961
    16  H    0.158641
    17  H    0.140418
    18  H    0.153343
    19  H    0.157682
    20  H    0.161401
    21  C   -0.171103
    22  C   -0.218936
    23  C   -0.171239
    24  C    0.159496
    25  C   -0.170823
    26  C   -0.219400
    27  H    0.226136
    28  H    0.224039
    29  H    0.276262
    30  H    0.279110
    31  H    0.224204
    32  N    0.488232
    33  O   -0.460170
    34  O   -0.460360
 Sum of Mulliken charges =  -0.00000

 Dipole moment (field-independent basis, Debye):
    X=             -0.7297    Y=              3.7589    Z=             -3.3769  Tot=              5.1054
 Quadrupole moment (field-independent basis, Debye-Ang):
   XX=            -95.4874   YY=            -97.8557   ZZ=            -92.8078
   XY=             11.2306   XZ=             -7.0441   YZ=              0.7431

 Normal termination of Gaussian 16 at Thu May  6 15:33:36 2021.
