 Gaussian 16, Revision A.03,
 Gaussian 16:  EM64L-G16RevA.03 25-Dec-2016

 -------------
 #p 6-31g* mp2
 -------------

 ------------------------------------------------------
 Input file generated by CHIRIPA (05-May-2021 14:57:26)
 ------------------------------------------------------
 Symbolic Z-matrix:
 Charge =  0 Multiplicity = 1

                         Standard orientation:
 ---------------------------------------------------------------------
 Center     Atomic      Atomic             Coordinates (Angstroms)
 Number     Number       Type             X           Y           Z
 ---------------------------------------------------------------------
      1          6           0       -0.932916    0.274044   -0.718048
      2          6           0       -1.955289    0.853296   -1.476824
      3          6           0       -3.294937    0.666396   -1.123327
      4          6           0       -3.577492   -0.109140    0.000059
      5          6           0       -2.581246   -0.699386    0.776200
      6          6           0       -1.248601   -0.499085    0.404065
      7          1           0        0.105034    0.424437   -0.999892
      8          1           0       -1.713081    1.454203   -2.348771
      9          1           0       -4.106162    1.103254   -1.692964
     10          1           0       -2.853848   -1.293285    1.640139
     11          1           0       -0.456682   -0.950153    0.995204
     12          7           0       -4.992011   -0.314096    0.384157
     13          8           0       -5.214638   -1.001664    1.378302
     14          8           0       -5.851299    0.216707   -0.316206
     15          6           0        2.781039    2.444415    0.723680
     16          6           0        2.572160    2.015824   -0.591311
     17          6           0        2.880670    0.705433   -0.968462
     18          6           0        3.398823   -0.153670   -0.000604
     19          6           0        3.618242    0.243548    1.317487
     20          6           0        3.302495    1.558471    1.672210
     21          1           0        2.538570    3.464119    1.007949
     22          1           0        2.167319    2.701678   -1.330061
     23          1           0        2.728939    0.347338   -1.979483
     24          1           0        4.023159   -0.463132    2.031675
     25          1           0        3.465759    1.888565    2.694182
     26          7           0        3.729260   -1.543322   -0.388005
     27          8           0        4.184612   -2.280786    0.483452
     28          8           0        3.526647   -1.868753   -1.555772
 ---------------------------------------------------------------------

 SCF Done:  E(RHF) =  -868.336830826     A.U. after   16 cycles
 E2 =    -0.2601632431D+01 EUMP2 =    -0.87093846325688D+03

 The electronic state is 1-A.
 Alpha  occ. eigenvalues --  -20.61790 -20.61783 -20.60793 -20.60786 -15.86851
 Alpha  occ. eigenvalues --  -15.85847 -11.32421 -11.31208 -11.28999 -11.28916
 Alpha  occ. eigenvalues --  -11.28644 -11.28032 -11.27920 -11.27812 -11.27771
 Alpha  occ. eigenvalues --  -11.27424 -11.26829 -11.26749  -1.60868  -1.59868
 Alpha  occ. eigenvalues --   -1.40413  -1.39422  -1.20592  -1.19384  -1.09911
 Alpha  occ. eigenvalues --   -1.08775  -1.06016  -1.04795  -0.96724  -0.95610
 Alpha  occ. eigenvalues --   -0.87364  -0.86191  -0.83553  -0.82448  -0.78588
 Alpha  occ. eigenvalues --   -0.77500  -0.73050  -0.72218  -0.72064  -0.71619
 Alpha  occ. eigenvalues --   -0.71193  -0.70506  -0.66203  -0.65951  -0.65034
 Alpha  occ. eigenvalues --   -0.64815  -0.63323  -0.62149  -0.56405  -0.55607
 Alpha  occ. eigenvalues --   -0.54061  -0.54009  -0.53113  -0.52886  -0.49827
 Alpha  occ. eigenvalues --   -0.49803  -0.48824  -0.48819  -0.45772  -0.44829
 Alpha  occ. eigenvalues --   -0.38546  -0.37646  -0.37287  -0.36408
 Alpha virt. eigenvalues --    0.03899   0.05035   0.09966   0.11244   0.15317
 Alpha virt. eigenvalues --    0.16551   0.20055   0.21690   0.25859   0.27076
 Alpha virt. eigenvalues --    0.27240   0.29101   0.29944   0.30997   0.32053

 Mulliken charges:
               1
     1  C   -0.172081
     2  C   -0.222887
     3  C   -0.170345
     4  C    0.157840
     5  C   -0.170568
     6  C   -0.222872
     7  H    0.231630
     8  H    0.219314
     9  H    0.275005
    10  H    0.276043
    11  H    0.224647
    12  N    0.488014
    13  O   -0.460114
    14  O   -0.460911
    15  C   -0.169073
    16  C   -0.219276
    17  C   -0.189677
    18  C    0.160460
    19  C   -0.172784
    20  C   -0.217520
    21  H    0.231071
    22  H    0.225761
    23  H    0.277475
    24  H    0.279457
    25  H    0.228860
    26  N    0.487515
    27  O   -0.456568
    28  O   -0.458416
 Sum of Mulliken charges =  -0.00000

 Dipole moment (field-independent basis, Debye):
    X=              4.1448    Y=              5.6521    Z=              0.2067  Tot=              7.0120
 Quadrupole moment (field-independent basis, Debye-Ang):
   XX=           -148.1787   YY=           -105.4836   ZZ=            -97.6611
   XY=             12.8167   XZ=             12.8246   YZ=             -3.3510

 Normal termination of Gaussian 16 at Fri May  7 08:10:43 2021.
