 Gaussian 16, Revision A.03,
 Gaussian 16:  EM64L-G16RevA.03 25-Dec-2016

 -------------
 #p 6-31g* mp2
 -------------

 ------------------------------------------------------
 Input file generated by CHIRIPA (05-May-2021 14:51:09)
 ------------------------------------------------------
 Symbolic Z-matrix:
 Charge =  0 Multiplicity = 1

                         Standard orientation:
 ---------------------------------------------------------------------
 Center     Atomic      Atomic             Coordinates (Angstroms)
 Number     Number       Type             X           Y           Z
 ---------------------------------------------------------------------
      1          6           0       -4.448049   -0.194819   -0.168891
      2          6           0       -5.934534   -0.074005    0.168379
      3          6           0       -6.720873   -1.342778   -0.162802
      4          1           0       -4.338653   -0.427392   -1.237014
      5          1           0       -4.022295   -1.045302    0.381388
      6          1           0       -6.357045    0.776845   -0.381307
      7          1           0       -6.040397    0.158497    1.235783
      8          1           0       -6.326510   -2.197399    0.396395
      9          1           0       -6.644957   -1.575537   -1.229883
     10          1           0       -7.781118   -1.234479    0.086219
     11          6           0       -3.648610    1.065625    0.156541
     12          6           0       -2.162125    0.944812   -0.180730
     13          6           0       -1.375786    2.213584    0.150452
     14          1           0       -4.074364    1.916108   -0.393739
     15          1           0       -3.758006    1.298199    1.224664
     16          1           0       -2.056262    0.712310   -1.248134
     17          1           0       -1.739614    0.093962    0.368956
     18          1           0       -1.451702    2.446344    1.217533
     19          1           0       -1.770149    3.068205   -0.408745
     20          1           0       -0.315541    2.105285   -0.098570
     21          6           0        3.307334   -0.311931   -0.132071
     22          6           0        2.409399   -1.474547    0.292218
     23          6           0        0.929846   -1.212578    0.009220
     24          1           0        2.988174    0.599577    0.391603
     25          1           0        3.166401   -0.121563   -1.205055
     26          1           0        2.553012   -1.663566    1.363789
     27          1           0        2.730857   -2.383435   -0.232382
     28          1           0        0.765895   -1.045444   -1.060259
     29          1           0        0.587040   -0.321485    0.544980
     30          1           0        0.306068   -2.056383    0.320273
     31          6           0        4.789325   -0.558875    0.144422
     32          6           0        5.687260    0.603741   -0.279868
     33          6           0        7.166813    0.341772    0.003130
     34          1           0        4.930257   -0.749244    1.217405
     35          1           0        5.108485   -1.470384   -0.379252
     36          1           0        5.365803    1.512628    0.244732
     37          1           0        5.543648    0.792760   -1.351439
     38          1           0        7.509619   -0.549321   -0.532630
     39          1           0        7.330765    0.174638    1.072610
     40          1           0        7.790591    1.185577   -0.307923
 ---------------------------------------------------------------------

 SCF Done:  E(RHF) =  -470.732597492     A.U. after   11 cycles
 E2 =    -0.1583141258D+01 EUMP2 =    -0.47231573874967D+03

 The electronic state is 1-A.
 Alpha  occ. eigenvalues --  -11.21602 -11.21583 -11.21562 -11.21451 -11.21410
 Alpha  occ. eigenvalues --  -11.21351 -11.21340 -11.21276 -11.21071 -11.21042
 Alpha  occ. eigenvalues --  -11.21027 -11.21017  -1.08435  -1.08361  -1.03560
 Alpha  occ. eigenvalues --   -1.03440  -0.96023  -0.95889  -0.87005  -0.86943
 Alpha  occ. eigenvalues --   -0.79699  -0.79441  -0.78276  -0.78132  -0.65089
 Alpha  occ. eigenvalues --   -0.64979  -0.61046  -0.60780  -0.59378  -0.59299
 Alpha  occ. eigenvalues --   -0.57761  -0.57376  -0.55346  -0.55130  -0.52693
 Alpha  occ. eigenvalues --   -0.52653  -0.52422  -0.52276  -0.49960  -0.49831
 Alpha  occ. eigenvalues --   -0.47981  -0.47771  -0.46738  -0.46442  -0.45857
 Alpha  occ. eigenvalues --   -0.45728  -0.45675  -0.45512  -0.43786  -0.43704
 Alpha virt. eigenvalues --    0.21812   0.23052   0.23503   0.25023   0.26348
 Alpha virt. eigenvalues --    0.26527   0.26786   0.27284   0.27984   0.29251
 Alpha virt. eigenvalues --    0.30762   0.31075   0.31419   0.31719   0.32194

 Mulliken charges:
               1
     1  C   -0.298118
     2  C   -0.299559
     3  C   -0.475651
     4  H    0.149531
     5  H    0.149404
     6  H    0.151841
     7  H    0.151782
     8  H    0.155075
     9  H    0.155109
    10  H    0.160097
    11  C   -0.297782
    12  C   -0.303297
    13  C   -0.478673
    14  H    0.148894
    15  H    0.148992
    16  H    0.151484
    17  H    0.159062
    18  H    0.154235
    19  H    0.155333
    20  H    0.161523
    21  C   -0.298692
    22  C   -0.300408
    23  C   -0.478881
    24  H    0.149511
    25  H    0.149421
    26  H    0.151611
    27  H    0.151697
    28  H    0.155977
    29  H    0.160900
    30  H    0.159332
    31  C   -0.298202
    32  C   -0.299673
    33  C   -0.475711
    34  H    0.149547
    35  H    0.149731
    36  H    0.152011
    37  H    0.151914
    38  H    0.155169
    39  H    0.155187
    40  H    0.160281
 Sum of Mulliken charges =  -0.00000

 Dipole moment (field-independent basis, Debye):
    X=              0.0194    Y=             -0.0166    Z=             -0.0028  Tot=              0.0257
 Quadrupole moment (field-independent basis, Debye-Ang):
   XX=            -86.6937   YY=            -85.2924   ZZ=            -83.0670
   XY=             -0.5935   XZ=             -0.2051   YZ=             -0.1034

 Normal termination of Gaussian 16 at Thu May  6 06:53:39 2021.
