 Gaussian 16, Revision A.03,
 Gaussian 16:  EM64L-G16RevA.03 25-Dec-2016

 -------------
 #p 6-31g* mp2
 -------------

 ------------------------------------------------------
 Input file generated by CHIRIPA (05-May-2021 14:57:24)
 ------------------------------------------------------
 Symbolic Z-matrix:
 Charge =  0 Multiplicity = 1

                         Standard orientation:
 ---------------------------------------------------------------------
 Center     Atomic      Atomic             Coordinates (Angstroms)
 Number     Number       Type             X           Y           Z
 ---------------------------------------------------------------------
      1          6           0        4.616806    1.319237    0.307502
      2          6           0        3.839902    1.013350    1.429721
      3          6           0        2.770616    0.118187    1.330436
      4          6           0        2.505174   -0.455325    0.087893
      5          6           0        3.260825   -0.170737   -1.048457
      6          6           0        4.325301    0.727261   -0.925831
      7          1           0        5.445585    2.015723    0.393695
      8          1           0        4.063977    1.471580    2.388815
      9          1           0        2.152930   -0.136422    2.183112
     10          1           0        3.013101   -0.643397   -1.991136
     11          1           0        4.926953    0.962951   -1.799049
     12          7           0        1.375715   -1.404495   -0.029571
     13          8           0        1.162423   -1.896359   -1.135561
     14          8           0        0.725123   -1.638618    0.986576
     15          6           0       -2.613841    2.808376   -0.357056
     16          6           0       -3.359370    2.230411    0.675739
     17          6           0       -3.409476    0.841115    0.823698
     18          6           0       -2.698813    0.056283   -0.083102
     19          6           0       -1.947062    0.602243   -1.122375
     20          6           0       -1.911305    1.993883   -1.251240
     21          1           0       -2.580490    3.888526   -0.464577
     22          1           0       -3.905958    2.860491    1.371645
     23          1           0       -3.978731    0.367308    1.614188
     24          1           0       -1.412631   -0.051841   -1.800590
     25          1           0       -1.331488    2.439975   -2.054272
     26          7           0       -2.744264   -1.415744    0.063429
     27          8           0       -2.109358   -2.085240   -0.748549
     28          8           0       -3.413931   -1.872149    0.987482
 ---------------------------------------------------------------------

 SCF Done:  E(RHF) =  -868.335854148     A.U. after   16 cycles
 E2 =    -0.2602439822D+01 EUMP2 =    -0.87093829397055D+03

 The electronic state is 1-A.
 Alpha  occ. eigenvalues --  -20.60535 -20.60519 -20.59386 -20.59232 -15.85581
 Alpha  occ. eigenvalues --  -15.84371 -11.31188 -11.30274 -11.27793 -11.27763
 Alpha  occ. eigenvalues --  -11.27558 -11.26923 -11.26849 -11.26847 -11.26827
 Alpha  occ. eigenvalues --  -11.26794 -11.26081 -11.26071  -1.59583  -1.58360
 Alpha  occ. eigenvalues --   -1.39139  -1.37905  -1.19379  -1.18504  -1.08725
 Alpha  occ. eigenvalues --   -1.07807  -1.04814  -1.03993  -0.95517  -0.94549
 Alpha  occ. eigenvalues --   -0.86200  -0.85363  -0.82349  -0.81389  -0.77362
 Alpha  occ. eigenvalues --   -0.76326  -0.71780  -0.71019  -0.70586  -0.70475
 Alpha  occ. eigenvalues --   -0.69621  -0.69608  -0.65023  -0.64809  -0.64146
 Alpha  occ. eigenvalues --   -0.64011  -0.62156  -0.61321  -0.55297  -0.54499
 Alpha  occ. eigenvalues --   -0.53137  -0.52904  -0.52297  -0.52093  -0.48564
 Alpha  occ. eigenvalues --   -0.48512  -0.47415  -0.47290  -0.44496  -0.43135
 Alpha  occ. eigenvalues --   -0.37374  -0.36518  -0.36432  -0.35635
 Alpha virt. eigenvalues --    0.05137   0.06239   0.11217   0.12000   0.16577
 Alpha virt. eigenvalues --    0.17621   0.21348   0.22082   0.27249   0.27908
 Alpha virt. eigenvalues --    0.28262   0.29059   0.30863   0.31605   0.32479

 Mulliken charges:
               1
     1  C   -0.171793
     2  C   -0.218698
     3  C   -0.171078
     4  C    0.158443
     5  C   -0.173596
     6  C   -0.218846
     7  H    0.224904
     8  H    0.223131
     9  H    0.276739
    10  H    0.274853
    11  H    0.222641
    12  N    0.486016
    13  O   -0.453620
    14  O   -0.456566
    15  C   -0.173150
    16  C   -0.219199
    17  C   -0.171763
    18  C    0.163660
    19  C   -0.178881
    20  C   -0.219624
    21  H    0.220622
    22  H    0.219584
    23  H    0.274419
    24  H    0.283807
    25  H    0.218567
    26  N    0.491146
    27  O   -0.443747
    28  O   -0.467970
 Sum of Mulliken charges =  -0.00000

 Dipole moment (field-independent basis, Debye):
    X=              4.2612    Y=              8.0870    Z=             -0.1297  Tot=              9.1418
 Quadrupole moment (field-independent basis, Debye-Ang):
   XX=            -85.9662   YY=           -108.7644   ZZ=            -97.1584
   XY=             -7.3414   XZ=             -0.9051   YZ=              1.0498

 Normal termination of Gaussian 16 at Thu May  6 06:41:33 2021.
