 Gaussian 16, Revision A.03,
 Gaussian 16:  EM64L-G16RevA.03 25-Dec-2016

 -------------
 #p 6-31g* mp2
 -------------

 ------------------------------------------------------
 Input file generated by CHIRIPA (05-May-2021 14:51:10)
 ------------------------------------------------------
 Symbolic Z-matrix:
 Charge =  0 Multiplicity = 1

                         Standard orientation:
 ---------------------------------------------------------------------
 Center     Atomic      Atomic             Coordinates (Angstroms)
 Number     Number       Type             X           Y           Z
 ---------------------------------------------------------------------
      1          6           0        3.059239   -0.463346    0.043804
      2          6           0        3.162740    0.611500   -1.038776
      3          6           0        4.586077    0.778690   -1.571650
      4          1           0        3.734491   -0.207153    0.871658
      5          1           0        3.413778   -1.420063   -0.364106
      6          1           0        2.806813    1.565605   -0.629366
      7          1           0        2.487020    0.352818   -1.864064
      8          1           0        4.947611   -0.159174   -2.005591
      9          1           0        5.269221    1.060504   -0.763878
     10          1           0        4.637176    1.551996   -2.344467
     11          6           0        1.642449   -0.642195    0.586434
     12          6           0        1.538947   -1.717041    1.669013
     13          6           0        0.115611   -1.884231    2.201887
     14          1           0        1.287910    0.314522    0.994344
     15          1           0        0.967196   -0.898388   -0.241420
     16          1           0        2.214668   -1.458359    2.494302
     17          1           0        1.894875   -2.671146    1.259604
     18          1           0       -0.567534   -2.166045    1.394115
     19          1           0       -0.245924   -0.946367    2.635829
     20          1           0        0.064512   -2.657537    2.974705
     21          6           0       -1.836578    1.108640   -0.215262
     22          6           0       -2.329610    2.234612    0.694183
     23          6           0       -1.289643    3.339203    0.884296
     24          1           0       -0.917599    0.680157    0.207617
     25          1           0       -1.564139    1.529268   -1.193140
     26          1           0       -2.602343    1.811778    1.669603
     27          1           0       -3.247627    2.660337    0.269190
     28          1           0       -1.024108    3.788121   -0.078286
     29          1           0       -0.375157    2.934741    1.330084
     30          1           0       -1.662900    4.133859    1.537795
     31          6           0       -2.865110   -0.003098   -0.414975
     32          6           0       -2.372077   -1.129071   -1.324421
     33          6           0       -3.412044   -2.233662   -1.514534
     34          1           0       -3.137548   -0.423727    0.562903
     35          1           0       -3.784088    0.425384   -0.837854
     36          1           0       -1.454060   -1.554795   -0.899428
     37          1           0       -2.099345   -0.706237   -2.299841
     38          1           0       -4.326530   -1.829200   -1.960322
     39          1           0       -3.677580   -2.682581   -0.551952
     40          1           0       -3.038788   -3.028318   -2.168034
 ---------------------------------------------------------------------

 SCF Done:  E(RHF) =  -470.731864990     A.U. after   11 cycles
 E2 =    -0.1585675394D+01 EUMP2 =    -0.47231754038375D+03

 The electronic state is 1-A.
 Alpha  occ. eigenvalues --  -11.21693 -11.21611 -11.21586 -11.21525 -11.21457
 Alpha  occ. eigenvalues --  -11.21394 -11.21297 -11.21186 -11.21141 -11.21079
 Alpha  occ. eigenvalues --  -11.21069 -11.21060  -1.08529  -1.08327  -1.03596
 Alpha  occ. eigenvalues --   -1.03493  -0.96049  -0.95931  -0.87076  -0.86944
 Alpha  occ. eigenvalues --   -0.79677  -0.79562  -0.78593  -0.77911  -0.65162
 Alpha  occ. eigenvalues --   -0.64987  -0.61136  -0.60767  -0.59419  -0.59299
 Alpha  occ. eigenvalues --   -0.57688  -0.57520  -0.55347  -0.55218  -0.52743
 Alpha  occ. eigenvalues --   -0.52646  -0.52528  -0.52328  -0.50025  -0.49853
 Alpha  occ. eigenvalues --   -0.48064  -0.47919  -0.46870  -0.46611  -0.46446
 Alpha  occ. eigenvalues --   -0.45681  -0.45622  -0.44748  -0.43842  -0.43712
 Alpha virt. eigenvalues --    0.20137   0.22040   0.23151   0.24502   0.25797
 Alpha virt. eigenvalues --    0.26207   0.26671   0.28041   0.28778   0.29974
 Alpha virt. eigenvalues --    0.30774   0.31287   0.31682   0.31705   0.32331

 Mulliken charges:
               1
     1  C   -0.296757
     2  C   -0.300053
     3  C   -0.475753
     4  H    0.149623
     5  H    0.149578
     6  H    0.152463
     7  H    0.152465
     8  H    0.155136
     9  H    0.155166
    10  H    0.160433
    11  C   -0.308795
    12  C   -0.298877
    13  C   -0.481754
    14  H    0.151907
    15  H    0.156574
    16  H    0.152248
    17  H    0.152180
    18  H    0.159694
    19  H    0.155225
    20  H    0.161191
    21  C   -0.310011
    22  C   -0.299262
    23  C   -0.476395
    24  H    0.165475
    25  H    0.147831
    26  H    0.151235
    27  H    0.151480
    28  H    0.155432
    29  H    0.154099
    30  H    0.160129
    31  C   -0.297634
    32  C   -0.307252
    33  C   -0.475691
    34  H    0.149944
    35  H    0.149132
    36  H    0.157115
    37  H    0.151786
    38  H    0.155600
    39  H    0.155345
    40  H    0.159748
 Sum of Mulliken charges =  -0.00000

 Dipole moment (field-independent basis, Debye):
    X=              0.0597    Y=             -0.0315    Z=              0.0073  Tot=              0.0679
 Quadrupole moment (field-independent basis, Debye-Ang):
   XX=            -86.0934   YY=            -84.9417   ZZ=            -83.9209
   XY=             -0.8156   XZ=              0.7322   YZ=             -0.0383

 Normal termination of Gaussian 16 at Wed May  5 19:48:05 2021.
