 Gaussian 16, Revision A.03,
 Gaussian 16:  EM64L-G16RevA.03 25-Dec-2016

 -------------
 #p 6-31g* mp2
 -------------

 ------------------------------------------------------
 Input file generated by CHIRIPA (05-May-2021 14:53:12)
 ------------------------------------------------------
 Symbolic Z-matrix:
 Charge =  0 Multiplicity = 1

                         Standard orientation:
 ---------------------------------------------------------------------
 Center     Atomic      Atomic             Coordinates (Angstroms)
 Number     Number       Type             X           Y           Z
 ---------------------------------------------------------------------
      1          6           0       -3.606997    0.721845   -0.416056
      2          6           0       -3.241705    2.005095    0.330815
      3          6           0       -3.891907    3.248318   -0.276991
      4          1           0       -3.304564    0.818529   -1.467784
      5          1           0       -4.699400    0.603326   -0.414579
      6          1           0       -2.150234    2.120439    0.329125
      7          1           0       -3.544869    1.905271    1.380930
      8          1           0       -4.982971    3.159292   -0.261011
      9          1           0       -3.580411    3.375682   -1.318792
     10          1           0       -3.617355    4.154233    0.272372
     11          6           0       -2.964610   -0.529610    0.179702
     12          6           0       -3.329902   -1.812859   -0.567169
     13          6           0       -2.679700   -3.056082    0.040637
     14          1           0       -1.872207   -0.411091    0.178225
     15          1           0       -3.267043   -0.626293    1.231430
     16          1           0       -3.026738   -1.713035   -1.617284
     17          1           0       -4.421373   -1.928203   -0.565479
     18          1           0       -2.991196   -3.183447    1.082438
     19          1           0       -1.588636   -2.967056    0.024657
     20          1           0       -2.954252   -3.961997   -0.508726
     21          6           0        1.347834   -2.268070    0.357511
     22          6           0        0.851800   -1.112796    0.970550
     23          6           0        1.519074    0.107718    0.830418
     24          6           0        2.684902    0.136917    0.066688
     25          6           0        3.204182   -0.996831   -0.556412
     26          6           0        2.520374   -2.206508   -0.402673
     27          1           0        0.823057   -3.211985    0.471654
     28          1           0       -0.058588   -1.157634    1.561505
     29          1           0        1.157182    1.017338    1.294145
     30          1           0        4.114045   -0.920816   -1.139327
     31          1           0        2.907919   -3.102110   -0.879906
     32          7           0        3.400067    1.423285   -0.088865
     33          8           0        4.425185    1.422567   -0.766927
     34          8           0        2.921952    2.407900    0.470220
 ---------------------------------------------------------------------

 SCF Done:  E(RHF) =  -669.534683037     A.U. after   15 cycles
 E2 =    -0.2093499063D+01 EUMP2 =    -0.67162818209991D+03

 The electronic state is 1-A.
 Alpha  occ. eigenvalues --  -20.60801 -20.60796 -15.85855 -11.31239 -11.27800
 Alpha  occ. eigenvalues --  -11.27793 -11.27514 -11.26818 -11.26760 -11.22346
 Alpha  occ. eigenvalues --  -11.22084 -11.22062 -11.21982 -11.21839 -11.21274
 Alpha  occ. eigenvalues --   -1.59877  -1.39429  -1.19410  -1.09035  -1.08793
 Alpha  occ. eigenvalues --   -1.04813  -1.04112  -0.96585  -0.95631  -0.87604
 Alpha  occ. eigenvalues --   -0.86211  -0.82464  -0.80208  -0.78858  -0.77492
 Alpha  occ. eigenvalues --   -0.72072  -0.71200  -0.70528  -0.65710  -0.65059
 Alpha  occ. eigenvalues --   -0.64772  -0.62166  -0.61483  -0.59955  -0.58195
 Alpha  occ. eigenvalues --   -0.55984  -0.55232  -0.53264  -0.53151  -0.53067
 Alpha  occ. eigenvalues --   -0.52835  -0.50516  -0.48837  -0.48826  -0.48494
 Alpha  occ. eigenvalues --   -0.47213  -0.46358  -0.46259  -0.44831  -0.44355
 Alpha  occ. eigenvalues --   -0.37359  -0.36369
 Alpha virt. eigenvalues --    0.04974   0.11112   0.16320   0.20343   0.22662
 Alpha virt. eigenvalues --    0.23631   0.25609   0.26053   0.26326   0.28346
 Alpha virt. eigenvalues --    0.29301   0.29832   0.31078   0.31386   0.31774

 Mulliken charges:
               1
     1  C   -0.297893
     2  C   -0.300739
     3  C   -0.476044
     4  H    0.152591
     5  H    0.150954
     6  H    0.151545
     7  H    0.150932
     8  H    0.155231
     9  H    0.157441
    10  H    0.163199
    11  C   -0.307643
    12  C   -0.297816
    13  C   -0.482638
    14  H    0.151687
    15  H    0.146898
    16  H    0.155436
    17  H    0.155270
    18  H    0.155382
    19  H    0.148168
    20  H    0.164065
    21  C   -0.174710
    22  C   -0.218169
    23  C   -0.173843
    24  C    0.158908
    25  C   -0.170779
    26  C   -0.218986
    27  H    0.228385
    28  H    0.229529
    29  H    0.276390
    30  H    0.275795
    31  H    0.223888
    32  N    0.488057
    33  O   -0.460244
    34  O   -0.460248
 Sum of Mulliken charges =  -0.00000

 Dipole moment (field-independent basis, Debye):
    X=             -2.5879    Y=             -4.4627    Z=              0.4710  Tot=              5.1802
 Quadrupole moment (field-independent basis, Debye-Ang):
   XX=           -105.3823   YY=            -96.2821   ZZ=            -93.3635
   XY=            -14.1138   XZ=             -1.3245   YZ=              1.5468

 Normal termination of Gaussian 16 at Wed May  5 17:00:36 2021.
