 Gaussian 16, Revision A.03,
 Gaussian 16:  EM64L-G16RevA.03 25-Dec-2016

 -------------
 #p 6-31g* mp2
 -------------

 ------------------------------------------------------
 Input file generated by CHIRIPA (05-May-2021 14:51:09)
 ------------------------------------------------------
 Symbolic Z-matrix:
 Charge =  0 Multiplicity = 1

                         Standard orientation:
 ---------------------------------------------------------------------
 Center     Atomic      Atomic             Coordinates (Angstroms)
 Number     Number       Type             X           Y           Z
 ---------------------------------------------------------------------
      1          6           0        2.473374    1.103567   -0.088662
      2          6           0        2.594088   -0.339654   -0.579099
      3          6           0        4.046257   -0.799547   -0.711377
      4          1           0        3.007467    1.766102   -0.783454
      5          1           0        2.978427    1.196822    0.882739
      6          1           0        2.087763   -0.430479   -1.548636
      7          1           0        2.059483   -0.998809    0.116838
      8          1           0        4.559418   -0.737542    0.253725
      9          1           0        4.587859   -0.165983   -1.421211
     10          1           0        4.109305   -1.833974   -1.063296
     11          6           0        1.027708    1.577833    0.048631
     12          6           0        0.906994    3.021053    0.539068
     13          6           0       -0.545175    3.480947    0.671345
     14          1           0        0.522655    1.484577   -0.922770
     15          1           0        0.493615    0.915297    0.743423
     16          1           0        1.441599    3.680208   -0.156869
     17          1           0        1.413319    3.111879    1.508604
     18          1           0       -1.086777    2.847383    1.381180
     19          1           0       -1.058337    3.418941   -0.293756
     20          1           0       -0.608223    4.515373    1.023264
     21          6           0       -2.239167   -0.788667    0.219856
     22          6           0       -2.977400   -0.172695   -0.969082
     23          6           0       -3.951326    0.930178   -0.553229
     24          1           0       -2.973575   -1.194332    0.929099
     25          1           0       -1.693290    0.001923    0.753131
     26          1           0       -3.520606   -0.964438   -1.500764
     27          1           0       -2.241143    0.231381   -1.675668
     28          1           0       -3.420827    1.739906   -0.041846
     29          1           0       -4.707559    0.537292    0.134051
     30          1           0       -4.468189    1.356622   -1.418595
     31          6           0       -1.261915   -1.892732   -0.179825
     32          6           0       -0.523682   -2.508704    1.009113
     33          6           0        0.450244   -3.611577    0.593260
     34          1           0       -1.807792   -2.683323   -0.713099
     35          1           0       -0.527506   -1.487067   -0.889068
     36          1           0       -1.259939   -2.912781    1.715700
     37          1           0        0.019524   -1.716961    1.540796
     38          1           0        1.206477   -3.218691   -0.094020
     39          1           0       -0.080255   -4.421305    0.081878
     40          1           0        0.967107   -4.038021    1.458626
 ---------------------------------------------------------------------

 SCF Done:  E(RHF) =  -470.731667086     A.U. after   11 cycles
 E2 =    -0.1587076215D+01 EUMP2 =    -0.47231874330174D+03

 The electronic state is 1-A.
 Alpha  occ. eigenvalues --  -11.21703 -11.21651 -11.21592 -11.21520 -11.21497
 Alpha  occ. eigenvalues --  -11.21436 -11.21291 -11.21229 -11.21182 -11.21132
 Alpha  occ. eigenvalues --  -11.21028 -11.20963  -1.08583  -1.08314  -1.03664
 Alpha  occ. eigenvalues --   -1.03443  -0.96101  -0.95890  -0.87102  -0.86921
 Alpha  occ. eigenvalues --   -0.79717  -0.79546  -0.78398  -0.78160  -0.65400
 Alpha  occ. eigenvalues --   -0.64792  -0.61233  -0.60771  -0.59386  -0.59286
 Alpha  occ. eigenvalues --   -0.57740  -0.57531  -0.55425  -0.55122  -0.52761
 Alpha  occ. eigenvalues --   -0.52618  -0.52527  -0.52306  -0.50033  -0.49828
 Alpha  occ. eigenvalues --   -0.48224  -0.47691  -0.46783  -0.46603  -0.46335
 Alpha  occ. eigenvalues --   -0.46023  -0.45388  -0.45025  -0.43873  -0.43706
 Alpha virt. eigenvalues --    0.19923   0.21460   0.23601   0.23792   0.24862
 Alpha virt. eigenvalues --    0.25534   0.26625   0.28612   0.28754   0.30131
 Alpha virt. eigenvalues --    0.30449   0.31081   0.31523   0.31819   0.32582

 Mulliken charges:
               1
     1  C   -0.297024
     2  C   -0.309629
     3  C   -0.476103
     4  H    0.149862
     5  H    0.149524
     6  H    0.151759
     7  H    0.162611
     8  H    0.155512
     9  H    0.155493
    10  H    0.160763
    11  C   -0.306485
    12  C   -0.299707
    13  C   -0.479685
    14  H    0.150359
    15  H    0.156398
    16  H    0.152483
    17  H    0.152246
    18  H    0.156757
    19  H    0.157200
    20  H    0.161252
    21  C   -0.303107
    22  C   -0.299519
    23  C   -0.480033
    24  H    0.148770
    25  H    0.155034
    26  H    0.151477
    27  H    0.151614
    28  H    0.160138
    29  H    0.154622
    30  H    0.159432
    31  C   -0.302004
    32  C   -0.303090
    33  C   -0.480036
    34  H    0.149337
    35  H    0.154922
    36  H    0.152867
    37  H    0.151138
    38  H    0.159635
    39  H    0.155540
    40  H    0.159675
 Sum of Mulliken charges =  -0.00000

 Dipole moment (field-independent basis, Debye):
    X=              0.0614    Y=              0.0452    Z=              0.0041  Tot=              0.0764
 Quadrupole moment (field-independent basis, Debye-Ang):
   XX=            -85.9092   YY=            -85.0490   ZZ=            -83.9002
   XY=              1.5483   XZ=              0.1411   YZ=             -0.5092

 Normal termination of Gaussian 16 at Wed May  5 18:09:07 2021.
