 Gaussian 16, Revision A.03,
 Gaussian 16:  EM64L-G16RevA.03 25-Dec-2016

 -------------
 #p 6-31g* mp2
 -------------

 ------------------------------------------------------
 Input file generated by CHIRIPA (05-May-2021 14:51:13)
 ------------------------------------------------------
 Symbolic Z-matrix:
 Charge =  0 Multiplicity = 1

                         Standard orientation:
 ---------------------------------------------------------------------
 Center     Atomic      Atomic             Coordinates (Angstroms)
 Number     Number       Type             X           Y           Z
 ---------------------------------------------------------------------
      1          6           0       -2.929848    0.877320   -0.526986
      2          6           0       -1.614024    1.206110   -1.233023
      3          6           0       -1.347706    2.709385   -1.316884
      4          1           0       -3.756450    1.368498   -1.058416
      5          1           0       -2.911430    1.304403    0.485267
      6          1           0       -1.634360    0.777349   -2.243155
      7          1           0       -0.790478    0.713936   -0.699962
      8          1           0       -1.300670    3.148756   -0.315215
      9          1           0       -2.149346    3.212529   -1.867175
     10          1           0       -0.402050    2.921825   -1.825279
     11          6           0       -3.210103   -0.621608   -0.435324
     12          6           0       -4.525927   -0.950398    0.270713
     13          6           0       -4.792245   -2.453673    0.354574
     14          1           0       -3.228520   -1.048691   -1.447577
     15          1           0       -2.383501   -1.112785    0.096105
     16          1           0       -5.349473   -0.458223   -0.262348
     17          1           0       -4.505591   -0.521636    1.280844
     18          1           0       -3.990604   -2.956817    0.904864
     19          1           0       -4.839281   -2.893044   -0.647096
     20          1           0       -5.737901   -2.666112    0.862968
     21          6           0        3.744235   -0.080272    0.125429
     22          6           0        4.122851   -1.354952   -0.629441
     23          6           0        5.474309   -1.244273   -1.335915
     24          1           0        3.723565    0.762794   -0.578672
     25          1           0        4.526788    0.147179    0.862499
     26          1           0        3.339138   -1.580696   -1.363914
     27          1           0        4.142436   -2.195115    0.076503
     28          1           0        6.271480   -1.042606   -0.613109
     29          1           0        5.463619   -0.424696   -2.061712
     30          1           0        5.725244   -2.166480   -1.869231
     31          6           0        2.395716   -0.175440    0.836881
     32          6           0        2.017100    1.099239    1.591752
     33          6           0        0.665642    0.988561    2.298225
     34          1           0        1.613163   -0.402891    0.099812
     35          1           0        2.416387   -1.018506    1.540982
     36          1           0        1.997515    1.939403    0.885807
     37          1           0        2.800812    1.324983    2.326224
     38          1           0        0.676332    0.168983    3.024022
     39          1           0       -0.131529    0.786893    1.575419
     40          1           0        0.414707    1.910768    2.831542
 ---------------------------------------------------------------------

 SCF Done:  E(RHF) =  -470.733177372     A.U. after   11 cycles
 E2 =    -0.1583592744D+01 EUMP2 =    -0.47231677011549D+03

 The electronic state is 1-A.
 Alpha  occ. eigenvalues --  -11.21640 -11.21631 -11.21609 -11.21601 -11.21431
 Alpha  occ. eigenvalues --  -11.21425 -11.21369 -11.21365 -11.21109 -11.21106
 Alpha  occ. eigenvalues --  -11.21076 -11.21065  -1.08480  -1.08431  -1.03595
 Alpha  occ. eigenvalues --   -1.03513  -0.96014  -0.95989  -0.87036  -0.87002
 Alpha  occ. eigenvalues --   -0.79660  -0.79577  -0.78312  -0.78222  -0.65295
 Alpha  occ. eigenvalues --   -0.64925  -0.61235  -0.60678  -0.59397  -0.59339
 Alpha  occ. eigenvalues --   -0.57616  -0.57605  -0.55345  -0.55221  -0.52699
 Alpha  occ. eigenvalues --   -0.52693  -0.52432  -0.52422  -0.50032  -0.49867
 Alpha  occ. eigenvalues --   -0.48040  -0.47864  -0.46836  -0.46515  -0.45981
 Alpha  occ. eigenvalues --   -0.45777  -0.45754  -0.45424  -0.43808  -0.43804
 Alpha virt. eigenvalues --    0.19596   0.22915   0.23827   0.25110   0.25594
 Alpha virt. eigenvalues --    0.26380   0.26874   0.28111   0.28263   0.29087
 Alpha virt. eigenvalues --    0.31067   0.31438   0.31565   0.31892   0.32071

 Mulliken charges:
               1
     1  C   -0.299611
     2  C   -0.307183
     3  C   -0.476204
     4  H    0.150140
     5  H    0.150901
     6  H    0.152479
     7  H    0.157342
     8  H    0.156496
     9  H    0.155580
    10  H    0.159684
    11  C   -0.298966
    12  C   -0.299683
    13  C   -0.475776
    14  H    0.149542
    15  H    0.149919
    16  H    0.151902
    17  H    0.152378
    18  H    0.155422
    19  H    0.155087
    20  H    0.160283
    21  C   -0.298094
    22  C   -0.299793
    23  C   -0.475730
    24  H    0.149800
    25  H    0.149641
    26  H    0.152225
    27  H    0.151918
    28  H    0.155174
    29  H    0.155225
    30  H    0.160316
    31  C   -0.302254
    32  C   -0.299611
    33  C   -0.482261
    34  H    0.152198
    35  H    0.149719
    36  H    0.152965
    37  H    0.152300
    38  H    0.155164
    39  H    0.161097
    40  H    0.160268
 Sum of Mulliken charges =  -0.00000

 Dipole moment (field-independent basis, Debye):
    X=             -0.0050    Y=              0.0038    Z=              0.0004  Tot=              0.0063
 Quadrupole moment (field-independent basis, Debye-Ang):
   XX=            -85.2770   YY=            -85.7563   ZZ=            -83.6378
   XY=             -0.4867   XZ=              1.4153   YZ=             -0.2379

 Normal termination of Gaussian 16 at Thu May  6 05:33:44 2021.
