 Gaussian 16, Revision A.03,
 Gaussian 16:  EM64L-G16RevA.03 25-Dec-2016

 -------------
 #p 6-31g* mp2
 -------------

 ------------------------------------------------------
 Input file generated by CHIRIPA (05-May-2021 14:55:23)
 ------------------------------------------------------
 Symbolic Z-matrix:
 Charge =  0 Multiplicity = 1

                         Standard orientation:
 ---------------------------------------------------------------------
 Center     Atomic      Atomic             Coordinates (Angstroms)
 Number     Number       Type             X           Y           Z
 ---------------------------------------------------------------------
      1          6           0       -3.074671    2.123230   -0.324770
      2          6           0       -1.754892    1.691134   -0.492097
      3          6           0       -1.424436    0.341678   -0.336167
      4          6           0       -2.443366   -0.552492   -0.011309
      5          6           0       -3.767568   -0.152799    0.161973
      6          6           0       -4.075033    1.201509    0.001156
      7          1           0       -3.322447    3.173405   -0.447798
      8          1           0       -0.975941    2.404720   -0.745227
      9          1           0       -0.410890   -0.020027   -0.459908
     10          1           0       -4.522386   -0.887686    0.414180
     11          1           0       -5.100848    1.534230    0.131712
     12          7           0       -2.105697   -1.983669    0.156354
     13          8           0       -3.021679   -2.751551    0.442661
     14          8           0       -0.931444   -2.310444   -0.001715
     15          6           0        2.636527    0.912949   -0.048158
     16          6           0        2.981231    2.307900    0.474601
     17          6           0        1.846581    3.312420    0.271372
     18          1           0        2.390611    0.979239   -1.116838
     19          1           0        1.731018    0.552287    0.459160
     20          1           0        3.886610    2.665252   -0.032551
     21          1           0        3.226539    2.238253    1.542117
     22          1           0        0.941739    2.981990    0.791639
     23          1           0        1.605560    3.411415   -0.791976
     24          1           0        2.114311    4.302951    0.652200
     25          6           0        3.760960   -0.102411    0.147849
     26          6           0        3.416256   -1.497362   -0.374910
     27          6           0        4.550906   -2.501883   -0.171682
     28          1           0        4.666469    0.258251   -0.359470
     29          1           0        4.006876   -0.168700    1.216529
     30          1           0        3.170948   -1.427714   -1.442425
     31          1           0        2.510877   -1.854714    0.132243
     32          1           0        4.791927   -2.600877    0.891667
     33          1           0        5.455747   -2.171451   -0.691947
     34          1           0        4.283176   -3.492414   -0.552509
 ---------------------------------------------------------------------

 SCF Done:  E(RHF) =  -669.535575889     A.U. after   15 cycles
 E2 =    -0.2092941675D+01 EUMP2 =    -0.67162851756323D+03

 The electronic state is 1-A.
 Alpha  occ. eigenvalues --  -20.60757 -20.60752 -15.85803 -11.31112 -11.27695
 Alpha  occ. eigenvalues --  -11.27617 -11.27415 -11.26704 -11.26610 -11.22165
 Alpha  occ. eigenvalues --  -11.21943 -11.21886 -11.21460 -11.21266 -11.20742
 Alpha  occ. eigenvalues --   -1.59828  -1.39383  -1.19284  -1.08704  -1.08683
 Alpha  occ. eigenvalues --   -1.04678  -1.03726  -0.96248  -0.95533  -0.87276
 Alpha  occ. eigenvalues --   -0.86070  -0.82371  -0.79876  -0.78462  -0.77381
 Alpha  occ. eigenvalues --   -0.72022  -0.71149  -0.70398  -0.65329  -0.64933
 Alpha  occ. eigenvalues --   -0.64695  -0.62046  -0.61102  -0.59644  -0.57824
 Alpha  occ. eigenvalues --   -0.55563  -0.55187  -0.53123  -0.53014  -0.52861
 Alpha  occ. eigenvalues --   -0.52327  -0.50193  -0.48791  -0.48776  -0.48125
 Alpha  occ. eigenvalues --   -0.46893  -0.45966  -0.45803  -0.44796  -0.43990
 Alpha  occ. eigenvalues --   -0.37270  -0.36266
 Alpha virt. eigenvalues --    0.05072   0.11305   0.16505   0.20438   0.22971
 Alpha virt. eigenvalues --    0.23806   0.25232   0.26032   0.26817   0.28619
 Alpha virt. eigenvalues --    0.30250   0.30807   0.31238   0.31536   0.32603

 Mulliken charges:
               1
     1  C   -0.171977
     2  C   -0.225860
     3  C   -0.180613
     4  C    0.158876
     5  C   -0.170707
     6  C   -0.218684
     7  H    0.225722
     8  H    0.232094
     9  H    0.285058
    10  H    0.275177
    11  H    0.223050
    12  N    0.488476
    13  O   -0.460357
    14  O   -0.462137
    15  C   -0.306922
    16  C   -0.297888
    17  C   -0.484301
    18  H    0.146779
    19  H    0.150765
    20  H    0.155090
    21  H    0.156048
    22  H    0.154953
    23  H    0.150523
    24  H    0.164833
    25  C   -0.297459
    26  C   -0.305710
    27  C   -0.476023
    28  H    0.149293
    29  H    0.151299
    30  H    0.150685
    31  H    0.168000
    32  H    0.155049
    33  H    0.152292
    34  H    0.164577
 Sum of Mulliken charges =  -0.00000

 Dipole moment (field-independent basis, Debye):
    X=             -1.0468    Y=              4.9492    Z=             -0.5276  Tot=              5.0861
 Quadrupole moment (field-independent basis, Debye-Ang):
   XX=            -84.4773   YY=           -101.1876   ZZ=            -94.5728
   XY=            -10.1149   XZ=              0.1594   YZ=             -0.0510

 Normal termination of Gaussian 16 at Wed May  5 16:03:40 2021.
