 Gaussian 16, Revision A.03,
 Gaussian 16:  EM64L-G16RevA.03 25-Dec-2016

 -------------
 #p 6-31g* mp2
 -------------

 ------------------------------------------------------
 Input file generated by CHIRIPA (05-May-2021 14:55:22)
 ------------------------------------------------------
 Symbolic Z-matrix:
 Charge =  0 Multiplicity = 1

                         Standard orientation:
 ---------------------------------------------------------------------
 Center     Atomic      Atomic             Coordinates (Angstroms)
 Number     Number       Type             X           Y           Z
 ---------------------------------------------------------------------
      1          6           0       -5.766284   -0.256239   -0.047668
      2          6           0       -5.084706    0.772353   -0.706433
      3          6           0       -3.687145    0.791523   -0.738108
      4          6           0       -2.999794   -0.238381   -0.097690
      5          6           0       -3.650196   -1.276921    0.566917
      6          6           0       -5.048120   -1.275796    0.585788
      7          1           0       -6.852084   -0.263248   -0.028035
      8          1           0       -5.639836    1.565457   -1.199242
      9          1           0       -3.134192    1.575712   -1.240810
     10          1           0       -3.069358   -2.053790    1.049119
     11          1           0       -5.574790   -2.075884    1.098157
     12          7           0       -1.520066   -0.228829   -0.124445
     13          8           0       -0.937690   -1.147773    0.447409
     14          8           0       -0.970651    0.697421   -0.716763
     15          6           0        4.449884   -0.394618    0.072840
     16          6           0        5.904884   -0.405605   -0.397095
     17          6           0        6.487011   -1.816690   -0.485196
     18          1           0        4.384908   -0.881619    1.055466
     19          1           0        3.844657   -0.999564   -0.616460
     20          1           0        6.506942    0.200317    0.292108
     21          1           0        5.966433    0.081648   -1.378630
     22          1           0        5.911234   -2.427776   -1.187802
     23          1           0        6.454815   -2.308433    0.492430
     24          1           0        7.527913   -1.801192   -0.823045
     25          6           0        3.853913    1.008904    0.165957
     26          6           0        2.398913    1.019890    0.635892
     27          6           0        1.816786    2.430975    0.723993
     28          1           0        4.459140    1.613850    0.855258
     29          1           0        3.918889    1.495904   -0.816669
     30          1           0        2.337364    0.532638    1.617427
     31          1           0        1.796854    0.413969   -0.053311
     32          1           0        1.848983    2.922719   -0.253633
     33          1           0        2.392564    3.042062    1.426598
     34          1           0        0.775884    2.415478    1.061842
 ---------------------------------------------------------------------

 SCF Done:  E(RHF) =  -669.536512857     A.U. after   15 cycles
 E2 =    -0.2092072380D+01 EUMP2 =    -0.67162858523755D+03

 The electronic state is 1-A.
 Alpha  occ. eigenvalues --  -20.61108 -20.61096 -15.86094 -11.31379 -11.27930
 Alpha  occ. eigenvalues --  -11.27927 -11.27660 -11.26926 -11.26916 -11.20625
 Alpha  occ. eigenvalues --  -11.20257 -11.20127 -11.19900 -11.19511 -11.19317
 Alpha  occ. eigenvalues --   -1.60138  -1.39696  -1.19538  -1.08952  -1.07049
 Alpha  occ. eigenvalues --   -1.04925  -1.02105  -0.95801  -0.94621  -0.86328
 Alpha  occ. eigenvalues --   -0.85661  -0.82633  -0.78229  -0.77694  -0.76759
 Alpha  occ. eigenvalues --   -0.72305  -0.71444  -0.70645  -0.65193  -0.64930
 Alpha  occ. eigenvalues --   -0.63691  -0.62272  -0.59508  -0.58045  -0.56204
 Alpha  occ. eigenvalues --   -0.55422  -0.53945  -0.53259  -0.53015  -0.51352
 Alpha  occ. eigenvalues --   -0.51048  -0.49091  -0.49068  -0.48610  -0.46527
 Alpha  occ. eigenvalues --   -0.45255  -0.45094  -0.44339  -0.44092  -0.42376
 Alpha  occ. eigenvalues --   -0.37514  -0.36523
 Alpha virt. eigenvalues --    0.04818   0.11133   0.16321   0.21269   0.24142
 Alpha virt. eigenvalues --    0.25731   0.27198   0.27986   0.28159   0.28936
 Alpha virt. eigenvalues --    0.29262   0.30854   0.32382   0.32714   0.33046

 Mulliken charges:
               1
     1  C   -0.170391
     2  C   -0.218574
     3  C   -0.170739
     4  C    0.158762
     5  C   -0.170669
     6  C   -0.218615
     7  H    0.226317
     8  H    0.224174
     9  H    0.276162
    10  H    0.276078
    11  H    0.224131
    12  N    0.488223
    13  O   -0.457957
    14  O   -0.457897
    15  C   -0.297082
    16  C   -0.298504
    17  C   -0.474829
    18  H    0.147995
    19  H    0.152196
    20  H    0.149271
    21  H    0.149999
    22  H    0.154693
    23  H    0.153899
    24  H    0.156685
    25  C   -0.298121
    26  C   -0.305044
    27  C   -0.468718
    28  H    0.142534
    29  H    0.145922
    30  H    0.145787
    31  H    0.179810
    32  H    0.151029
    33  H    0.142598
    34  H    0.160876
 Sum of Mulliken charges =  -0.00000

 Dipole moment (field-independent basis, Debye):
    X=             -5.7296    Y=             -0.1854    Z=             -0.0033  Tot=              5.7326
 Quadrupole moment (field-independent basis, Debye-Ang):
   XX=            -65.9469   YY=            -92.9109   ZZ=            -93.2726
   XY=              1.4990   XZ=              0.4302   YZ=             -3.0373

 Normal termination of Gaussian 16 at Wed May  5 19:02:46 2021.
