 Gaussian 16, Revision A.03,
 Gaussian 16:  EM64L-G16RevA.03 25-Dec-2016

 -------------
 #p 6-31g* mp2
 -------------

 ------------------------------------------------------
 Input file generated by CHIRIPA (05-May-2021 14:53:18)
 ------------------------------------------------------
 Symbolic Z-matrix:
 Charge =  0 Multiplicity = 1

                         Standard orientation:
 ---------------------------------------------------------------------
 Center     Atomic      Atomic             Coordinates (Angstroms)
 Number     Number       Type             X           Y           Z
 ---------------------------------------------------------------------
      1          6           0        3.488508   -0.268351   -0.013984
      2          6           0        2.966828   -1.342372   -0.969135
      3          6           0        3.717657   -2.667579   -0.835428
      4          1           0        4.558334   -0.106071   -0.203942
      5          1           0        3.406470   -0.634756    1.018688
      6          1           0        3.048543   -0.973506   -1.999608
      7          1           0        1.898076   -1.501977   -0.777011
      8          1           0        3.625850   -3.061420    0.181952
      9          1           0        4.782854   -2.529946   -1.047592
     10          1           0        3.328516   -3.421062   -1.527305
     11          6           0        2.747873    1.062195   -0.135791
     12          6           0        3.269553    2.136216    0.819360
     13          6           0        2.518725    3.461423    0.685653
     14          1           0        2.829912    1.428599   -1.168463
     15          1           0        1.678048    0.899915    0.054166
     16          1           0        4.338305    2.295821    0.627236
     17          1           0        3.187839    1.767349    1.849833
     18          1           0        1.453528    3.323790    0.897817
     19          1           0        2.610531    3.855264   -0.331727
     20          1           0        2.907866    4.214906    1.377530
     21          6           0       -1.281236   -1.987161    1.548370
     22          6           0       -0.942442   -1.904100    0.193807
     23          6           0       -1.575795   -0.978650   -0.641031
     24          6           0       -2.547734   -0.147963   -0.085529
     25          6           0       -2.907249   -0.206631    1.260056
     26          6           0       -2.260832   -1.139656    2.076239
     27          1           0       -0.784158   -2.709015    2.189646
     28          1           0       -0.182049   -2.561017   -0.218880
     29          1           0       -1.332894   -0.893093   -1.693219
     30          1           0       -3.669199    0.461571    1.642622
     31          1           0       -2.525976   -1.201934    3.127841
     32          7           0       -3.225151    0.835779   -0.959460
     33          8           0       -4.078093    1.556341   -0.445730
     34          8           0       -2.890344    0.867647   -2.141630
 ---------------------------------------------------------------------

 SCF Done:  E(RHF) =  -669.535474349     A.U. after   15 cycles
 E2 =    -0.2092094496D+01 EUMP2 =    -0.67162756884586D+03

 The electronic state is 1-A.
 Alpha  occ. eigenvalues --  -20.60804 -20.60798 -15.85859 -11.31255 -11.27837
 Alpha  occ. eigenvalues --  -11.27831 -11.27577 -11.26847 -11.26835 -11.22222
 Alpha  occ. eigenvalues --  -11.21816 -11.21767 -11.21746 -11.21590 -11.21103
 Alpha  occ. eigenvalues --   -1.59879  -1.39431  -1.19438  -1.08832  -1.08788
 Alpha  occ. eigenvalues --   -1.04846  -1.03905  -0.96334  -0.95651  -0.87350
 Alpha  occ. eigenvalues --   -0.86237  -0.82488  -0.79995  -0.78582  -0.77520
 Alpha  occ. eigenvalues --   -0.72076  -0.71203  -0.70534  -0.65495  -0.65085
 Alpha  occ. eigenvalues --   -0.64815  -0.62226  -0.61271  -0.59729  -0.57941
 Alpha  occ. eigenvalues --   -0.55621  -0.55335  -0.53190  -0.53036  -0.52945
 Alpha  occ. eigenvalues --   -0.52740  -0.50271  -0.48842  -0.48829  -0.48286
 Alpha  occ. eigenvalues --   -0.47026  -0.46118  -0.46023  -0.44829  -0.44141
 Alpha  occ. eigenvalues --   -0.37412  -0.36414
 Alpha virt. eigenvalues --    0.04990   0.11147   0.16346   0.20375   0.22814
 Alpha virt. eigenvalues --    0.23853   0.25866   0.26686   0.27372   0.28335
 Alpha virt. eigenvalues --    0.28535   0.30482   0.31211   0.31429   0.32196

 Mulliken charges:
               1
     1  C   -0.296910
     2  C   -0.304973
     3  C   -0.476504
     4  H    0.151592
     5  H    0.147199
     6  H    0.155808
     7  H    0.145412
     8  H    0.152258
     9  H    0.159703
    10  H    0.158706
    11  C   -0.300680
    12  C   -0.299797
    13  C   -0.476048
    14  H    0.151854
    15  H    0.151803
    16  H    0.152009
    17  H    0.150223
    18  H    0.156868
    19  H    0.157405
    20  H    0.160364
    21  C   -0.172197
    22  C   -0.218810
    23  C   -0.171200
    24  C    0.158031
    25  C   -0.170673
    26  C   -0.218719
    27  H    0.226082
    28  H    0.226660
    29  H    0.276847
    30  H    0.275976
    31  H    0.223770
    32  N    0.488144
    33  O   -0.460327
    34  O   -0.459876
 Sum of Mulliken charges =  -0.00000

 Dipole moment (field-independent basis, Debye):
    X=              2.3903    Y=             -3.3843    Z=              3.0702  Tot=              5.1569
 Quadrupole moment (field-independent basis, Debye-Ang):
   XX=           -105.5452   YY=            -94.8218   ZZ=            -91.9662
   XY=              8.3456   XZ=            -11.1884   YZ=              0.8885

 Normal termination of Gaussian 16 at Thu May  6 12:21:32 2021.
