 Gaussian 16, Revision A.03,
 Gaussian 16:  EM64L-G16RevA.03 25-Dec-2016

 -------------
 #p 6-31g* mp2
 -------------

 ------------------------------------------------------
 Input file generated by CHIRIPA (05-May-2021 14:51:12)
 ------------------------------------------------------
 Symbolic Z-matrix:
 Charge =  0 Multiplicity = 1

                         Standard orientation:
 ---------------------------------------------------------------------
 Center     Atomic      Atomic             Coordinates (Angstroms)
 Number     Number       Type             X           Y           Z
 ---------------------------------------------------------------------
      1          6           0        4.990959   -0.246379   -0.088539
      2          6           0        5.140959   -1.750912    0.139202
      3          6           0        6.571954   -2.242369   -0.081062
      4          1           0        5.310392   -0.003125   -1.111151
      5          1           0        5.671762    0.289392    0.587368
      6          1           0        4.459071   -2.283638   -0.535963
      7          1           0        4.820950   -1.990640    1.161328
      8          1           0        7.262239   -1.737211    0.602257
      9          1           0        6.898303   -2.031874   -1.104678
     10          1           0        6.656500   -3.320542    0.087034
     11          6           0        3.566009    0.259995    0.127861
     12          6           0        3.416009    1.764528   -0.099881
     13          6           0        1.985013    2.255985    0.120383
     14          1           0        2.885205   -0.275776   -0.548047
     15          1           0        3.246575    0.016741    1.150472
     16          1           0        3.736017    2.004256   -1.122006
     17          1           0        4.097897    2.297254    0.575285
     18          1           0        1.658665    2.045490    1.143999
     19          1           0        1.294729    1.750827   -0.562935
     20          1           0        1.900468    3.334158   -0.047712
     21          6           0       -3.528615    0.115251   -0.098590
     22          6           0       -3.134158    1.584707    0.053375
     23          6           0       -1.630840    1.812884   -0.107136
     24          1           0       -2.984087   -0.482753    0.644932
     25          1           0       -3.205657   -0.243677   -1.085637
     26          1           0       -3.458994    1.941142    1.039301
     27          1           0       -3.679832    2.179308   -0.690470
     28          1           0       -1.294673    1.484038   -1.095798
     29          1           0       -1.072580    1.244517    0.643801
     30          1           0       -1.370988    2.870101    0.005254
     31          6           0       -5.028353   -0.128868    0.059268
     32          6           0       -5.422809   -1.598322   -0.092696
     33          6           0       -6.926128   -1.826501    0.067815
     34          1           0       -5.351311    0.230061    1.046317
     35          1           0       -5.572880    0.469137   -0.684253
     36          1           0       -4.877136   -2.192924    0.651148
     37          1           0       -5.097974   -1.954758   -1.078623
     38          1           0       -7.484388   -1.258134   -0.683122
     39          1           0       -7.262294   -1.497653    1.056477
     40          1           0       -7.185980   -2.883716   -0.044575
 ---------------------------------------------------------------------

 SCF Done:  E(RHF) =  -470.732791645     A.U. after   11 cycles
 E2 =    -0.1582569894D+01 EUMP2 =    -0.47231536153932D+03

 The electronic state is 1-A.
 Alpha  occ. eigenvalues --  -11.21585 -11.21575 -11.21529 -11.21506 -11.21376
 Alpha  occ. eigenvalues --  -11.21361 -11.21316 -11.21300 -11.21058 -11.21051
 Alpha  occ. eigenvalues --  -11.20970 -11.20898  -1.08400  -1.08374  -1.03517
 Alpha  occ. eigenvalues --   -1.03440  -0.96018  -0.95840  -0.87101  -0.86794
 Alpha  occ. eigenvalues --   -0.79693  -0.79398  -0.78235  -0.78162  -0.65032
 Alpha  occ. eigenvalues --   -0.65005  -0.60920  -0.60836  -0.59347  -0.59249
 Alpha  occ. eigenvalues --   -0.57653  -0.57441  -0.55303  -0.55139  -0.52869
 Alpha  occ. eigenvalues --   -0.52585  -0.52438  -0.52064  -0.49967  -0.49765
 Alpha  occ. eigenvalues --   -0.48048  -0.47651  -0.46636  -0.46507  -0.45822
 Alpha  occ. eigenvalues --   -0.45700  -0.45655  -0.45601  -0.43808  -0.43642
 Alpha virt. eigenvalues --    0.22539   0.22997   0.23622   0.24791   0.26273
 Alpha virt. eigenvalues --    0.26471   0.26877   0.27517   0.27679   0.29398
 Alpha virt. eigenvalues --    0.30085   0.30728   0.31404   0.32124   0.32316

 Mulliken charges:
               1
     1  C   -0.298146
     2  C   -0.299586
     3  C   -0.475668
     4  H    0.149545
     5  H    0.149444
     6  H    0.151852
     7  H    0.151798
     8  H    0.155138
     9  H    0.155135
    10  H    0.160133
    11  C   -0.298129
    12  C   -0.300585
    13  C   -0.476922
    14  H    0.149370
    15  H    0.149161
    16  H    0.151314
    17  H    0.151143
    18  H    0.154309
    19  H    0.162119
    20  H    0.158799
    21  C   -0.298257
    22  C   -0.301417
    23  C   -0.474295
    24  H    0.149527
    25  H    0.149120
    26  H    0.151588
    27  H    0.151404
    28  H    0.153179
    29  H    0.157300
    30  H    0.161834
    31  C   -0.298176
    32  C   -0.299585
    33  C   -0.475679
    34  H    0.149475
    35  H    0.149583
    36  H    0.151889
    37  H    0.151810
    38  H    0.155144
    39  H    0.155160
    40  H    0.160173
 Sum of Mulliken charges =  -0.00000

 Dipole moment (field-independent basis, Debye):
    X=             -0.0137    Y=              0.0138    Z=             -0.0012  Tot=              0.0195
 Quadrupole moment (field-independent basis, Debye-Ang):
   XX=            -87.1710   YY=            -85.1402   ZZ=            -82.7954
   XY=              0.1316   XZ=              0.5325   YZ=             -0.0112

 Normal termination of Gaussian 16 at Thu May  6 00:42:47 2021.
