 Gaussian 16, Revision A.03,
 Gaussian 16:  EM64L-G16RevA.03 25-Dec-2016

 -------------
 #p 6-31g* mp2
 -------------

 ------------------------------------------------------
 Input file generated by CHIRIPA (05-May-2021 14:53:14)
 ------------------------------------------------------
 Symbolic Z-matrix:
 Charge =  0 Multiplicity = 1

                         Standard orientation:
 ---------------------------------------------------------------------
 Center     Atomic      Atomic             Coordinates (Angstroms)
 Number     Number       Type             X           Y           Z
 ---------------------------------------------------------------------
      1          6           0       -3.987718   -0.615281    0.418237
      2          6           0       -2.689744   -0.743900   -0.379702
      3          6           0       -1.556191   -1.370959    0.432486
      4          1           0       -3.800246   -0.010796    1.316233
      5          1           0       -4.294077   -1.610310    0.769599
      6          1           0       -2.386663    0.250892   -0.730626
      7          1           0       -2.880372   -1.347988   -1.276002
      8          1           0       -1.833843   -2.374641    0.770321
      9          1           0       -1.337328   -0.766677    1.318795
     10          1           0       -0.637823   -1.453415   -0.157143
     11          6           0       -5.130273    0.009865   -0.380192
     12          6           0       -6.428247    0.138484    0.417746
     13          6           0       -7.561800    0.765544   -0.394441
     14          1           0       -4.823913    1.004894   -0.731555
     15          1           0       -5.317745   -0.594619   -1.278189
     16          1           0       -6.237618    0.742573    1.314046
     17          1           0       -6.731328   -0.856307    0.768671
     18          1           0       -7.780662    0.161261   -1.280750
     19          1           0       -7.284148    1.769226   -0.732276
     20          1           0       -8.480167    0.848000    0.195188
     21          6           0        2.604334    2.567501    0.110579
     22          6           0        3.988163    2.382822    0.024370
     23          6           0        4.529715    1.095822   -0.045644
     24          6           0        3.654272    0.011136   -0.026988
     25          6           0        2.271125    0.162598    0.058190
     26          6           0        1.751734    1.458754    0.127184
     27          1           0        2.192252    3.570829    0.164571
     28          1           0        4.652705    3.242040    0.011279
     29          1           0        5.597142    0.924138   -0.113015
     30          1           0        1.633992   -0.713393    0.069181
     31          1           0        0.676627    1.599169    0.194069
     32          7           0        4.215856   -1.356199   -0.100569
     33          8           0        3.423217   -2.295363   -0.082396
     34          8           0        5.438033   -1.462863   -0.175023
 ---------------------------------------------------------------------

 SCF Done:  E(RHF) =  -669.535527125     A.U. after   15 cycles
 E2 =    -0.2091118551D+01 EUMP2 =    -0.67162664567639D+03

 The electronic state is 1-A.
 Alpha  occ. eigenvalues --  -20.60719 -20.60714 -15.85770 -11.31122 -11.27705
 Alpha  occ. eigenvalues --  -11.27662 -11.27453 -11.26724 -11.26700 -11.22233
 Alpha  occ. eigenvalues --  -11.21940 -11.21879 -11.21802 -11.21777 -11.21360
 Alpha  occ. eigenvalues --   -1.59794  -1.39348  -1.19302  -1.08904  -1.08702
 Alpha  occ. eigenvalues --   -1.04705  -1.04021  -0.96476  -0.95536  -0.87494
 Alpha  occ. eigenvalues --   -0.86104  -0.82367  -0.80083  -0.78694  -0.77414
 Alpha  occ. eigenvalues --   -0.71991  -0.71116  -0.70425  -0.65537  -0.64955
 Alpha  occ. eigenvalues --   -0.64716  -0.62127  -0.61398  -0.59829  -0.58071
 Alpha  occ. eigenvalues --   -0.55755  -0.55215  -0.53253  -0.53040  -0.52918
 Alpha  occ. eigenvalues --   -0.52673  -0.50404  -0.48748  -0.48745  -0.48392
 Alpha  occ. eigenvalues --   -0.47113  -0.46239  -0.46157  -0.44755  -0.44268
 Alpha  occ. eigenvalues --   -0.37291  -0.36306
 Alpha virt. eigenvalues --    0.05113   0.11340   0.16599   0.19586   0.22645
 Alpha virt. eigenvalues --    0.23710   0.25893   0.26030   0.26973   0.27551
 Alpha virt. eigenvalues --    0.28807   0.29953   0.31274   0.31536   0.31863

 Mulliken charges:
               1
     1  C   -0.298962
     2  C   -0.299475
     3  C   -0.483732
     4  H    0.148651
     5  H    0.152663
     6  H    0.145977
     7  H    0.156889
     8  H    0.164537
     9  H    0.152538
    10  H    0.160180
    11  C   -0.298400
    12  C   -0.299980
    13  C   -0.475906
    14  H    0.148057
    15  H    0.151406
    16  H    0.151668
    17  H    0.153370
    18  H    0.156120
    19  H    0.154707
    20  H    0.161331
    21  C   -0.170737
    22  C   -0.218903
    23  C   -0.170355
    24  C    0.159810
    25  C   -0.179260
    26  C   -0.222839
    27  H    0.225238
    28  H    0.223187
    29  H    0.275418
    30  H    0.285360
    31  H    0.225005
    32  N    0.487354
    33  O   -0.460265
    34  O   -0.460653
 Sum of Mulliken charges =  -0.00000

 Dipole moment (field-independent basis, Debye):
    X=             -2.1628    Y=              4.7275    Z=              0.2646  Tot=              5.2054
 Quadrupole moment (field-independent basis, Debye-Ang):
   XX=           -105.2282   YY=            -93.5751   ZZ=            -95.7995
   XY=             20.7204   XZ=              0.4665   YZ=              0.2696

 Normal termination of Gaussian 16 at Thu May  6 17:08:55 2021.
