 Gaussian 16, Revision A.03,
 Gaussian 16:  EM64L-G16RevA.03 25-Dec-2016

 -------------
 #p 6-31g* mp2
 -------------

 ------------------------------------------------------
 Input file generated by CHIRIPA (05-May-2021 14:57:21)
 ------------------------------------------------------
 Symbolic Z-matrix:
 Charge =  0 Multiplicity = 1

                         Standard orientation:
 ---------------------------------------------------------------------
 Center     Atomic      Atomic             Coordinates (Angstroms)
 Number     Number       Type             X           Y           Z
 ---------------------------------------------------------------------
      1          6           0        1.595823   -1.356919    1.025136
      2          6           0        2.643245   -2.129506    0.512751
      3          6           0        3.758520   -1.518047   -0.067619
      4          6           0        3.793599   -0.125424   -0.119193
      5          6           0        2.765930    0.671702    0.382581
      6          6           0        1.660395    0.038758    0.958533
      7          1           0        0.733234   -1.840260    1.474266
      8          1           0        2.595804   -3.213599    0.563108
      9          1           0        4.583432   -2.091999   -0.471992
     10          1           0        2.841733    1.750358    0.317974
     11          1           0        0.848424    0.641291    1.355651
     12          7           0        4.969135    0.533273   -0.731266
     13          8           0        4.975969    1.761883   -0.764538
     14          8           0        5.861428   -0.191524   -1.166147
     15          6           0       -1.915296    1.545380    1.363091
     16          6           0       -2.634666    2.171778    0.340030
     17          6           0       -3.570553    1.454966   -0.411530
     18          6           0       -3.762714    0.107205   -0.111693
     19          6           0       -3.061544   -0.545119    0.901287
     20          6           0       -2.130652    0.191318    1.639966
     21          1           0       -1.190216    2.109839    1.941919
     22          1           0       -2.469491    3.223238    0.122789
     23          1           0       -4.141192    1.914996   -1.209128
     24          1           0       -3.248033   -1.594557    1.094474
     25          1           0       -1.573418   -0.297761    2.433904
     26          7           0       -4.750852   -0.662041   -0.900518
     27          8           0       -4.901712   -1.848331   -0.616629
     28          8           0       -5.355784   -0.064118   -1.787752
 ---------------------------------------------------------------------

 SCF Done:  E(RHF) =  -868.335866145     A.U. after   16 cycles
 E2 =    -0.2601624976D+01 EUMP2 =    -0.87093749112100D+03

 The electronic state is 1-A.
 Alpha  occ. eigenvalues --  -20.61487 -20.61475 -20.61142 -20.61132 -15.86545
 Alpha  occ. eigenvalues --  -15.86196 -11.32119 -11.31637 -11.28764 -11.28660
 Alpha  occ. eigenvalues --  -11.28573 -11.28246 -11.28181 -11.28021 -11.27908
 Alpha  occ. eigenvalues --  -11.27723 -11.27288 -11.27224  -1.60554  -1.60213
 Alpha  occ. eigenvalues --   -1.40102  -1.39765  -1.20329  -1.19821  -1.09715
 Alpha  occ. eigenvalues --   -1.09210  -1.05763  -1.05241  -0.96503  -0.96034
 Alpha  occ. eigenvalues --   -0.87188  -0.86630  -0.83333  -0.82863  -0.78321
 Alpha  occ. eigenvalues --   -0.77897  -0.72762  -0.72415  -0.71878  -0.71536
 Alpha  occ. eigenvalues --   -0.71499  -0.70971  -0.66036  -0.65867  -0.65475
 Alpha  occ. eigenvalues --   -0.65184  -0.63100  -0.62586  -0.56348  -0.55765
 Alpha  occ. eigenvalues --   -0.54146  -0.53858  -0.53546  -0.53263  -0.49537
 Alpha  occ. eigenvalues --   -0.49501  -0.49179  -0.49163  -0.45461  -0.45153
 Alpha  occ. eigenvalues --   -0.38361  -0.37811  -0.37327  -0.36811
 Alpha virt. eigenvalues --    0.04162   0.04660   0.10107   0.10854   0.15456
 Alpha virt. eigenvalues --    0.16156   0.18415   0.22260   0.24618   0.25546
 Alpha virt. eigenvalues --    0.28137   0.28844   0.30160   0.31396   0.32429

 Mulliken charges:
               1
     1  C   -0.171875
     2  C   -0.217704
     3  C   -0.170326
     4  C    0.159483
     5  C   -0.172834
     6  C   -0.215500
     7  H    0.220160
     8  H    0.225667
     9  H    0.277444
    10  H    0.274036
    11  H    0.217258
    12  N    0.488088
    13  O   -0.460642
    14  O   -0.458578
    15  C   -0.175800
    16  C   -0.217615
    17  C   -0.168707
    18  C    0.160199
    19  C   -0.170177
    20  C   -0.221525
    21  H    0.223750
    22  H    0.228132
    23  H    0.279761
    24  H    0.276278
    25  H    0.219014
    26  N    0.488009
    27  O   -0.459220
    28  O   -0.456777
 Sum of Mulliken charges =  -0.00000

 Dipole moment (field-independent basis, Debye):
    X=             -0.8647    Y=              0.4001    Z=              4.7078  Tot=              4.8033
 Quadrupole moment (field-independent basis, Debye-Ang):
   XX=           -161.2383   YY=            -96.2172   ZZ=           -105.9365
   XY=            -21.7442   XZ=             -1.7798   YZ=             -1.6463

 Normal termination of Gaussian 16 at Thu May  6 12:52:02 2021.
