 Gaussian 16, Revision A.03,
 Gaussian 16:  EM64L-G16RevA.03 25-Dec-2016

 -------------
 #p 6-31g* mp2
 -------------

 ------------------------------------------------------
 Input file generated by CHIRIPA (05-May-2021 14:51:07)
 ------------------------------------------------------
 Symbolic Z-matrix:
 Charge =  0 Multiplicity = 1

                         Standard orientation:
 ---------------------------------------------------------------------
 Center     Atomic      Atomic             Coordinates (Angstroms)
 Number     Number       Type             X           Y           Z
 ---------------------------------------------------------------------
      1          6           0        3.152581    0.113910   -0.154079
      2          6           0        4.600096   -0.211403   -0.524023
      3          6           0        5.191763    0.781258   -1.525196
      4          1           0        2.541151    0.124809   -1.066756
      5          1           0        3.107659    1.128931    0.264383
      6          1           0        4.642483   -1.226028   -0.940383
      7          1           0        5.208114   -0.221718    0.389663
      8          1           0        5.178696    1.796203   -1.114932
      9          1           0        4.609852    0.786186   -2.452535
     10          1           0        6.227102    0.529887   -1.775688
     11          6           0        2.547210   -0.869537    0.845964
     12          6           0        1.099696   -0.544223    1.215909
     13          6           0        0.508029   -1.536885    2.217082
     14          1           0        2.592132   -1.884557    0.427502
     15          1           0        3.158640   -0.880436    1.758641
     16          1           0        0.491677   -0.533909    0.302222
     17          1           0        1.057308    0.470402    1.632268
     18          1           0        1.089940   -1.541813    3.144420
     19          1           0        0.521095   -2.551830    1.806817
     20          1           0       -0.527310   -1.285513    2.467573
     21          6           0       -2.442846    1.016906   -0.442396
     22          6           0       -2.839509    2.139120    0.517436
     23          6           0       -2.016285    3.411113    0.312185
     24          1           0       -1.376007    0.790201   -0.310468
     25          1           0       -2.562024    1.369045   -1.476412
     26          1           0       -2.720937    1.784506    1.549330
     27          1           0       -3.905573    2.363049    0.383343
     28          1           0       -2.142583    3.791528   -0.706606
     29          1           0       -0.951216    3.209697    0.466006
     30          1           0       -2.316361    4.200277    1.008630
     31          6           0       -3.256945   -0.261279   -0.249489
     32          6           0       -2.860282   -1.383494   -1.209322
     33          6           0       -3.683507   -2.655487   -1.004070
     34          1           0       -3.137767   -0.613418    0.784528
     35          1           0       -4.323784   -0.034574   -0.381416
     36          1           0       -1.794219   -1.607422   -1.075228
     37          1           0       -2.978855   -1.028880   -2.241215
     38          1           0       -4.748576   -2.454070   -1.157891
     39          1           0       -3.557210   -3.035901    0.014721
     40          1           0       -3.383431   -3.444650   -1.700515
 ---------------------------------------------------------------------

 SCF Done:  E(RHF) =  -470.733203847     A.U. after   11 cycles
 E2 =    -0.1583682130D+01 EUMP2 =    -0.47231688597621D+03

 The electronic state is 1-A.
 Alpha  occ. eigenvalues --  -11.21700 -11.21635 -11.21610 -11.21565 -11.21466
 Alpha  occ. eigenvalues --  -11.21403 -11.21369 -11.21278 -11.21177 -11.21091
 Alpha  occ. eigenvalues --  -11.21069 -11.21040  -1.08505  -1.08395  -1.03599
 Alpha  occ. eigenvalues --   -1.03508  -0.96045  -0.95952  -0.87061  -0.86970
 Alpha  occ. eigenvalues --   -0.79687  -0.79569  -0.78381  -0.78145  -0.65227
 Alpha  occ. eigenvalues --   -0.64962  -0.61021  -0.60879  -0.59413  -0.59322
 Alpha  occ. eigenvalues --   -0.57665  -0.57561  -0.55339  -0.55223  -0.52740
 Alpha  occ. eigenvalues --   -0.52656  -0.52468  -0.52381  -0.50005  -0.49887
 Alpha  occ. eigenvalues --   -0.48063  -0.47875  -0.46796  -0.46612  -0.46115
 Alpha  occ. eigenvalues --   -0.45787  -0.45726  -0.45222  -0.43840  -0.43757
 Alpha virt. eigenvalues --    0.19722   0.23086   0.23664   0.24689   0.25300
 Alpha virt. eigenvalues --    0.26133   0.26639   0.27850   0.28448   0.29506
 Alpha virt. eigenvalues --    0.30362   0.31408   0.31828   0.31911   0.32025

 Mulliken charges:
               1
     1  C   -0.298608
     2  C   -0.299688
     3  C   -0.475784
     4  H    0.149824
     5  H    0.149524
     6  H    0.152037
     7  H    0.152041
     8  H    0.155303
     9  H    0.155374
    10  H    0.160372
    11  C   -0.297419
    12  C   -0.307875
    13  C   -0.476556
    14  H    0.149708
    15  H    0.149963
    16  H    0.158649
    17  H    0.151930
    18  H    0.155918
    19  H    0.155573
    20  H    0.160532
    21  C   -0.306381
    22  C   -0.298957
    23  C   -0.476093
    24  H    0.158730
    25  H    0.148887
    26  H    0.151424
    27  H    0.151677
    28  H    0.155108
    29  H    0.155604
    30  H    0.159956
    31  C   -0.298495
    32  C   -0.302040
    33  C   -0.475700
    34  H    0.149883
    35  H    0.149650
    36  H    0.153163
    37  H    0.151904
    38  H    0.155288
    39  H    0.155569
    40  H    0.160004
 Sum of Mulliken charges =  -0.00000

 Dipole moment (field-independent basis, Debye):
    X=              0.0415    Y=             -0.0125    Z=              0.0033  Tot=              0.0435
 Quadrupole moment (field-independent basis, Debye-Ang):
   XX=            -84.8058   YY=            -85.7458   ZZ=            -84.2333
   XY=             -0.8789   XZ=              1.1530   YZ=              0.6884

 Normal termination of Gaussian 16 at Thu May  6 06:50:55 2021.
