 Gaussian 16, Revision A.03,
 Gaussian 16:  EM64L-G16RevA.03 25-Dec-2016

 -------------
 #p 6-31g* mp2
 -------------

 ------------------------------------------------------
 Input file generated by CHIRIPA (05-May-2021 14:53:13)
 ------------------------------------------------------
 Symbolic Z-matrix:
 Charge =  0 Multiplicity = 1

                         Standard orientation:
 ---------------------------------------------------------------------
 Center     Atomic      Atomic             Coordinates (Angstroms)
 Number     Number       Type             X           Y           Z
 ---------------------------------------------------------------------
      1          6           0       -3.736030   -0.064941   -0.166729
      2          6           0       -3.754386   -1.593872   -0.170929
      3          6           0       -4.854598   -2.169409   -1.063165
      4          1           0       -4.714014    0.306234    0.169014
      5          1           0       -3.601184    0.296017   -1.195767
      6          1           0       -3.887772   -1.951855    0.857989
      7          1           0       -2.776183   -1.961452   -0.506518
      8          1           0       -4.721993   -1.840564   -2.098963
      9          1           0       -5.839898   -1.830913   -0.726704
     10          1           0       -4.849584   -3.263802   -1.051383
     11          6           0       -2.641600    0.525340    0.720693
     12          6           0       -2.623244    2.054271    0.724894
     13          6           0       -1.523032    2.629808    1.617129
     14          1           0       -2.776446    0.164382    1.749732
     15          1           0       -1.663616    0.154165    0.384951
     16          1           0       -3.601447    2.421851    1.060482
     17          1           0       -2.489858    2.412255   -0.304024
     18          1           0       -0.537732    2.291313    1.280668
     19          1           0       -1.655637    2.300963    2.652928
     20          1           0       -1.528047    3.724201    1.605348
     21          6           0        3.193974   -2.316341    0.927067
     22          6           0        4.141932   -1.325432    0.651391
     23          6           0        3.763895   -0.137685    0.018230
     24          6           0        2.423326    0.026705   -0.326938
     25          6           0        1.455409   -0.941898   -0.065723
     26          6           0        1.856096   -2.121754    0.568262
     27          1           0        3.496440   -3.235946    1.419243
     28          1           0        5.181649   -1.473823    0.928906
     29          1           0        4.477087    0.645911   -0.207055
     30          1           0        0.426382   -0.765244   -0.354368
     31          1           0        1.117732   -2.889581    0.781112
     32          7           0        2.011126    1.279943   -0.997674
     33          8           0        0.823823    1.400515   -1.291632
     34          8           0        2.883151    2.117927   -1.216739
 ---------------------------------------------------------------------

 SCF Done:  E(RHF) =  -669.536012515     A.U. after   15 cycles
 E2 =    -0.2092529557D+01 EUMP2 =    -0.67162854207198D+03

 The electronic state is 1-A.
 Alpha  occ. eigenvalues --  -20.60960 -20.60955 -15.85980 -11.31272 -11.27831
 Alpha  occ. eigenvalues --  -11.27819 -11.27562 -11.26836 -11.26821 -11.21706
 Alpha  occ. eigenvalues --  -11.21202 -11.21120 -11.21112 -11.20946 -11.20322
 Alpha  occ. eigenvalues --   -1.60014  -1.39572  -1.19438  -1.08848  -1.08183
 Alpha  occ. eigenvalues --   -1.04830  -1.03214  -0.95695  -0.95669  -0.86696
 Alpha  occ. eigenvalues --   -0.86235  -0.82529  -0.79332  -0.78025  -0.77562
 Alpha  occ. eigenvalues --   -0.72207  -0.71324  -0.70556  -0.65102  -0.64942
 Alpha  occ. eigenvalues --   -0.64697  -0.62185  -0.60578  -0.59082  -0.57285
 Alpha  occ. eigenvalues --   -0.55347  -0.54934  -0.53161  -0.52939  -0.52371
 Alpha  occ. eigenvalues --   -0.52095  -0.49622  -0.48975  -0.48951  -0.47645
 Alpha  occ. eigenvalues --   -0.46374  -0.45583  -0.45407  -0.44857  -0.43495
 Alpha  occ. eigenvalues --   -0.37415  -0.36423
 Alpha virt. eigenvalues --    0.04905   0.11172   0.16402   0.20013   0.23039
 Alpha virt. eigenvalues --    0.24586   0.25049   0.27304   0.27808   0.28253
 Alpha virt. eigenvalues --    0.29726   0.31113   0.31679   0.32011   0.32355

 Mulliken charges:
               1
     1  C   -0.298691
     2  C   -0.298031
     3  C   -0.475518
     4  H    0.150086
     5  H    0.154939
     6  H    0.150216
     7  H    0.142699
     8  H    0.157347
     9  H    0.156467
    10  H    0.158128
    11  C   -0.303370
    12  C   -0.297410
    13  C   -0.477420
    14  H    0.145292
    15  H    0.149388
    16  H    0.147903
    17  H    0.163563
    18  H    0.161800
    19  H    0.147619
    20  H    0.161050
    21  C   -0.170387
    22  C   -0.218683
    23  C   -0.170153
    24  C    0.156270
    25  C   -0.175645
    26  C   -0.221117
    27  H    0.226038
    28  H    0.223785
    29  H    0.275760
    30  H    0.286065
    31  H    0.224641
    32  N    0.487525
    33  O   -0.462046
    34  O   -0.458109
 Sum of Mulliken charges =  -0.00000

 Dipole moment (field-independent basis, Debye):
    X=              1.5541    Y=             -4.2988    Z=              2.2384  Tot=              5.0897
 Quadrupole moment (field-independent basis, Debye-Ang):
   XX=            -83.2386   YY=            -95.2589   ZZ=            -97.1081
   XY=             -9.7103   XZ=              4.9617   YZ=              0.8934

 Normal termination of Gaussian 16 at Thu May  6 07:23:21 2021.
