 Gaussian 16, Revision A.03,
 Gaussian 16:  EM64L-G16RevA.03 25-Dec-2016

 -------------
 #p 6-31g* mp2
 -------------

 ------------------------------------------------------
 Input file generated by CHIRIPA (05-May-2021 14:57:22)
 ------------------------------------------------------
 Symbolic Z-matrix:
 Charge =  0 Multiplicity = 1

                         Standard orientation:
 ---------------------------------------------------------------------
 Center     Atomic      Atomic             Coordinates (Angstroms)
 Number     Number       Type             X           Y           Z
 ---------------------------------------------------------------------
      1          6           0        1.412333   -0.247606    0.952540
      2          6           0        2.009415    0.972878    0.620229
      3          6           0        3.315487    1.012278    0.123066
      4          6           0        3.998505   -0.193292   -0.029830
      5          6           0        3.430964   -1.425126    0.292305
      6          6           0        2.123759   -1.440610    0.787808
      7          1           0        0.397305   -0.268924    1.338104
      8          1           0        1.459298    1.900948    0.747124
      9          1           0        3.801857    1.943165   -0.142099
     10          1           0        4.004485   -2.333752    0.154866
     11          1           0        1.662586   -2.389919    1.045057
     12          7           0        5.381785   -0.164240   -0.555276
     13          8           0        5.962303   -1.240296   -0.680737
     14          8           0        5.859289    0.934036   -0.831710
     15          6           0       -1.882210    1.723060    0.632164
     16          6           0       -2.389386    1.781244   -0.670107
     17          6           0       -3.435508    0.941045   -1.062845
     18          6           0       -3.953079    0.050650   -0.123373
     19          6           0       -3.469270   -0.031040    1.181442
     20          6           0       -2.422818    0.818698    1.552160
     21          1           0       -1.069429    2.379453    0.928698
     22          1           0       -1.971490    2.482599   -1.386703
     23          1           0       -3.847119    0.965159   -2.064549
     24          1           0       -3.906363   -0.740558    1.873506
     25          1           0       -2.030927    0.771318    2.564198
     26          7           0       -5.060736   -0.843881   -0.527491
     27          8           0       -5.499399   -1.619561    0.318991
     28          8           0       -5.469281   -0.752396   -1.683068
 ---------------------------------------------------------------------

 SCF Done:  E(RHF) =  -868.336321093     A.U. after   16 cycles
 E2 =    -0.2601406183D+01 EUMP2 =    -0.87093772727634D+03

 The electronic state is 1-A.
 Alpha  occ. eigenvalues --  -20.61560 -20.61550 -20.61155 -20.61145 -15.86619
 Alpha  occ. eigenvalues --  -15.86213 -11.32208 -11.31659 -11.28837 -11.28761
 Alpha  occ. eigenvalues --  -11.28697 -11.28312 -11.28225 -11.27979 -11.27951
 Alpha  occ. eigenvalues --  -11.27830 -11.27407 -11.27220  -1.60629  -1.60227
 Alpha  occ. eigenvalues --   -1.40176  -1.39779  -1.20426  -1.19858  -1.09810
 Alpha  occ. eigenvalues --   -1.09232  -1.05847  -1.05290  -0.96597  -0.96045
 Alpha  occ. eigenvalues --   -0.87247  -0.86695  -0.83402  -0.82892  -0.78387
 Alpha  occ. eigenvalues --   -0.77930  -0.72834  -0.72432  -0.71956  -0.71628
 Alpha  occ. eigenvalues --   -0.71553  -0.70941  -0.66079  -0.65866  -0.65513
 Alpha  occ. eigenvalues --   -0.65315  -0.63165  -0.62652  -0.56440  -0.55851
 Alpha  occ. eigenvalues --   -0.54096  -0.53927  -0.53584  -0.53385  -0.49610
 Alpha  occ. eigenvalues --   -0.49573  -0.49195  -0.49177  -0.45531  -0.45166
 Alpha  occ. eigenvalues --   -0.38502  -0.37773  -0.37441  -0.36893
 Alpha virt. eigenvalues --    0.04093   0.04652   0.10005   0.10751   0.15453
 Alpha virt. eigenvalues --    0.16095   0.18307   0.22143   0.24488   0.25861
 Alpha virt. eigenvalues --    0.27886   0.29041   0.29764   0.31330   0.32304

 Mulliken charges:
               1
     1  C   -0.171983
     2  C   -0.222222
     3  C   -0.170328
     4  C    0.158398
     5  C   -0.169386
     6  C   -0.220352
     7  H    0.228269
     8  H    0.212391
     9  H    0.275778
    10  H    0.277641
    11  H    0.226232
    12  N    0.488017
    13  O   -0.458627
    14  O   -0.460279
    15  C   -0.174181
    16  C   -0.216759
    17  C   -0.168789
    18  C    0.159601
    19  C   -0.170768
    20  C   -0.228559
    21  H    0.223265
    22  H    0.227632
    23  H    0.279924
    24  H    0.278475
    25  H    0.224060
    26  N    0.487866
    27  O   -0.458453
    28  O   -0.456863
 Sum of Mulliken charges =  -0.00000

 Dipole moment (field-independent basis, Debye):
    X=             -1.2128    Y=              2.9125    Z=              3.0943  Tot=              4.4191
 Quadrupole moment (field-independent basis, Debye-Ang):
   XX=           -174.5652   YY=            -99.2239   ZZ=           -101.9346
   XY=            -12.2941   XZ=              1.6328   YZ=             -3.4451

 Normal termination of Gaussian 16 at Thu May  6 12:55:43 2021.
