 Gaussian 16, Revision A.03,
 Gaussian 16:  EM64L-G16RevA.03 25-Dec-2016

 -------------
 #p 6-31g* mp2
 -------------

 ------------------------------------------------------
 Input file generated by CHIRIPA (05-May-2021 14:55:23)
 ------------------------------------------------------
 Symbolic Z-matrix:
 Charge =  0 Multiplicity = 1

                         Standard orientation:
 ---------------------------------------------------------------------
 Center     Atomic      Atomic             Coordinates (Angstroms)
 Number     Number       Type             X           Y           Z
 ---------------------------------------------------------------------
      1          6           0        5.812517    1.415292   -0.035300
      2          6           0        4.614603    2.021958    0.356464
      3          6           0        3.418865    1.297556    0.357005
      4          6           0        3.457656   -0.037593   -0.041947
      5          6           0        4.635154   -0.670191   -0.437684
      6          6           0        5.818958    0.073519   -0.430427
      7          1           0        6.736759    1.985524   -0.032692
      8          1           0        4.606606    3.063840    0.663813
      9          1           0        2.477351    1.742368    0.655519
     10          1           0        4.611575   -1.710440   -0.738923
     11          1           0        6.747792   -0.400231   -0.735177
     12          7           0        2.198099   -0.814706   -0.045502
     13          8           0        2.258910   -1.989581   -0.401320
     14          8           0        1.173897   -0.234216    0.307597
     15          6           0       -5.247513    0.129753   -0.409650
     16          6           0       -6.243426    1.062008    0.281033
     17          6           0       -7.349806    1.544882   -0.657343
     18          1           0       -4.801104    0.651160   -1.267438
     19          1           0       -5.787998   -0.735968   -0.816836
     20          1           0       -5.701029    1.925027    0.687997
     21          1           0       -6.687374    0.538388    1.137390
     22          1           0       -7.916369    0.696107   -1.053813
     23          1           0       -6.924419    2.090626   -1.505760
     24          1           0       -8.050524    2.209990   -0.143061
     25          6           0       -4.135516   -0.361392    0.515534
     26          6           0       -3.139603   -1.293647   -0.175149
     27          6           0       -2.033224   -1.776522    0.763226
     28          1           0       -3.595031    0.504328    0.922719
     29          1           0       -4.581924   -0.882799    1.373321
     30          1           0       -2.695654   -0.770027   -1.031507
     31          1           0       -3.682000   -2.156667   -0.582114
     32          1           0       -2.458610   -2.322265    1.611644
     33          1           0       -1.466661   -0.927747    1.159696
     34          1           0       -1.332505   -2.441629    0.248945
 ---------------------------------------------------------------------

 SCF Done:  E(RHF) =  -669.535883309     A.U. after   15 cycles
 E2 =    -0.2091011063D+01 EUMP2 =    -0.67162689437240D+03

 The electronic state is 1-A.
 Alpha  occ. eigenvalues --  -20.60938 -20.60931 -15.85972 -11.31300 -11.27865
 Alpha  occ. eigenvalues --  -11.27859 -11.27601 -11.26872 -11.26862 -11.20957
 Alpha  occ. eigenvalues --  -11.20556 -11.20550 -11.20304 -11.20157 -11.19048
 Alpha  occ. eigenvalues --   -1.59995  -1.39553  -1.19468  -1.08871  -1.07441
 Alpha  occ. eigenvalues --   -1.04866  -1.02416  -0.95715  -0.94835  -0.86266
 Alpha  occ. eigenvalues --   -0.85852  -0.82547  -0.78541  -0.77598  -0.77196
 Alpha  occ. eigenvalues --   -0.72196  -0.71311  -0.70577  -0.65125  -0.64869
 Alpha  occ. eigenvalues --   -0.64082  -0.62214  -0.59813  -0.58308  -0.56431
 Alpha  occ. eigenvalues --   -0.55371  -0.54134  -0.53197  -0.52957  -0.51503
 Alpha  occ. eigenvalues --   -0.51276  -0.49179  -0.48943  -0.48525  -0.46826
 Alpha  occ. eigenvalues --   -0.45586  -0.44970  -0.44732  -0.44606  -0.42659
 Alpha  occ. eigenvalues --   -0.37447  -0.36467
 Alpha virt. eigenvalues --    0.04933   0.11188   0.16431   0.21320   0.23767
 Alpha virt. eigenvalues --    0.25509   0.27239   0.27575   0.28191   0.28416
 Alpha virt. eigenvalues --    0.29272   0.30898   0.32358   0.32539   0.32656

 Mulliken charges:
               1
     1  C   -0.170620
     2  C   -0.218520
     3  C   -0.170828
     4  C    0.157903
     5  C   -0.170561
     6  C   -0.218570
     7  H    0.225997
     8  H    0.223791
     9  H    0.275421
    10  H    0.275894
    11  H    0.223838
    12  N    0.490748
    13  O   -0.459608
    14  O   -0.461089
    15  C   -0.297290
    16  C   -0.298728
    17  C   -0.475078
    18  H    0.148343
    19  H    0.147933
    20  H    0.150439
    21  H    0.150828
    22  H    0.154474
    23  H    0.154103
    24  H    0.157923
    25  C   -0.297315
    26  C   -0.299801
    27  C   -0.475426
    28  H    0.148478
    29  H    0.146649
    30  H    0.152535
    31  H    0.145762
    32  H    0.142131
    33  H    0.170150
    34  H    0.170093
 Sum of Mulliken charges =  -0.00000

 Dipole moment (field-independent basis, Debye):
    X=              4.8492    Y=              2.7414    Z=              0.0001  Tot=              5.5705
 Quadrupole moment (field-independent basis, Debye-Ang):
   XX=            -65.2357   YY=            -91.6639   ZZ=            -95.4647
   XY=              7.9621   XZ=             -1.6753   YZ=              1.5796

 Normal termination of Gaussian 16 at Thu May  6 15:57:27 2021.
