 Gaussian 16, Revision A.03,
 Gaussian 16:  EM64L-G16RevA.03 25-Dec-2016

 -------------
 #p 6-31g* mp2
 -------------

 ------------------------------------------------------
 Input file generated by CHIRIPA (05-May-2021 14:57:21)
 ------------------------------------------------------
 Symbolic Z-matrix:
 Charge =  0 Multiplicity = 1

                         Standard orientation:
 ---------------------------------------------------------------------
 Center     Atomic      Atomic             Coordinates (Angstroms)
 Number     Number       Type             X           Y           Z
 ---------------------------------------------------------------------
      1          6           0        3.400241   -2.295263   -0.499314
      2          6           0        4.753508   -1.941546   -0.507886
      3          6           0        5.145830   -0.628145   -0.232914
      4          6           0        4.153945    0.310284    0.047809
      5          6           0        2.797602   -0.011216    0.063968
      6          6           0        2.428321   -1.330670   -0.213917
      7          1           0        3.104426   -3.317896   -0.714050
      8          1           0        5.510492   -2.688570   -0.729193
      9          1           0        6.186381   -0.327028   -0.232829
     10          1           0        2.065942    0.755499    0.288110
     11          1           0        1.376612   -1.602512   -0.206556
     12          7           0        4.557083    1.703927    0.340452
     13          8           0        3.663866    2.512072    0.584787
     14          8           0        5.758646    1.961729    0.319948
     15          6           0       -1.987677   -1.445297    0.307406
     16          6           0       -3.099245   -1.677767    1.124041
     17          6           0       -4.267970   -0.927661    0.962883
     18          6           0       -4.290507    0.051340   -0.029256
     19          6           0       -3.199497    0.306633   -0.858600
     20          6           0       -2.041255   -0.455583   -0.679569
     21          1           0       -1.083855   -2.032701    0.439540
     22          1           0       -3.060489   -2.445737    1.891352
     23          1           0       -5.143044   -1.086739    1.581234
     24          1           0       -3.268191    1.079078   -1.614925
     25          1           0       -1.179520   -0.272855   -1.315231
     26          7           0       -5.522234    0.851854   -0.209328
     27          8           0       -5.516710    1.708533   -1.090638
     28          8           0       -6.469862    0.607458    0.534250
 ---------------------------------------------------------------------

 SCF Done:  E(RHF) =  -868.336247395     A.U. after   16 cycles
 E2 =    -0.2599864905D+01 EUMP2 =    -0.87093611229962D+03

 The electronic state is 1-A.
 Alpha  occ. eigenvalues --  -20.61326 -20.61319 -20.61118 -20.61113 -15.86388
 Alpha  occ. eigenvalues --  -15.86177 -11.31910 -11.31702 -11.28574 -11.28480
 Alpha  occ. eigenvalues --  -11.28323 -11.28289 -11.28271 -11.28211 -11.27716
 Alpha  occ. eigenvalues --  -11.27502 -11.27427 -11.27362  -1.60398  -1.60189
 Alpha  occ. eigenvalues --   -1.39947  -1.39738  -1.20121  -1.19907  -1.09488
 Alpha  occ. eigenvalues --   -1.09305  -1.05566  -1.05326  -0.96286  -0.96107
 Alpha  occ. eigenvalues --   -0.86962  -0.86738  -0.83133  -0.82922  -0.78152
 Alpha  occ. eigenvalues --   -0.77911  -0.72602  -0.72395  -0.71726  -0.71513
 Alpha  occ. eigenvalues --   -0.71225  -0.71113  -0.65781  -0.65683  -0.65549
 Alpha  occ. eigenvalues --   -0.65310  -0.62929  -0.62645  -0.56103  -0.55910
 Alpha  occ. eigenvalues --   -0.53864  -0.53677  -0.53636  -0.53430  -0.49375
 Alpha  occ. eigenvalues --   -0.49346  -0.49168  -0.49136  -0.45318  -0.45107
 Alpha  occ. eigenvalues --   -0.38104  -0.37942  -0.37169  -0.36913
 Alpha virt. eigenvalues --    0.04415   0.04612   0.10471   0.10704   0.15835
 Alpha virt. eigenvalues --    0.16035   0.17361   0.22053   0.24634   0.26368
 Alpha virt. eigenvalues --    0.27758   0.28749   0.29954   0.31172   0.32005

 Mulliken charges:
               1
     1  C   -0.171173
     2  C   -0.218287
     3  C   -0.169307
     4  C    0.159303
     5  C   -0.172183
     6  C   -0.222836
     7  H    0.226352
     8  H    0.226165
     9  H    0.278342
    10  H    0.276593
    11  H    0.216069
    12  N    0.488017
    13  O   -0.458934
    14  O   -0.458150
    15  C   -0.174201
    16  C   -0.217370
    17  C   -0.169804
    18  C    0.159415
    19  C   -0.169044
    20  C   -0.220506
    21  H    0.218607
    22  H    0.225072
    23  H    0.277791
    24  H    0.278667
    25  H    0.220490
    26  N    0.487920
    27  O   -0.458224
    28  O   -0.458784
 Sum of Mulliken charges =  -0.00000

 Dipole moment (field-independent basis, Debye):
    X=              2.9391    Y=             -7.6146    Z=             -0.3810  Tot=              8.1711
 Quadrupole moment (field-independent basis, Debye-Ang):
   XX=           -146.4977   YY=           -107.6868   ZZ=           -103.2729
   XY=             -8.8770   XZ=             -9.8942   YZ=             -2.5054

 Normal termination of Gaussian 16 at Thu May  6 04:54:29 2021.
