 Gaussian 16, Revision A.03,
 Gaussian 16:  EM64L-G16RevA.03 25-Dec-2016

 -------------
 #p 6-31g* mp2
 -------------

 ------------------------------------------------------
 Input file generated by CHIRIPA (05-May-2021 14:57:23)
 ------------------------------------------------------
 Symbolic Z-matrix:
 Charge =  0 Multiplicity = 1

                         Standard orientation:
 ---------------------------------------------------------------------
 Center     Atomic      Atomic             Coordinates (Angstroms)
 Number     Number       Type             X           Y           Z
 ---------------------------------------------------------------------
      1          6           0        1.233255   -1.508093    1.002131
      2          6           0        1.732866   -0.342518    1.592337
      3          6           0        2.868548    0.285830    1.072767
      4          6           0        3.482421   -0.281205   -0.042993
      5          6           0        3.008696   -1.441510   -0.653377
      6          6           0        1.871639   -2.052909   -0.116870
      7          1           0        0.350495   -1.989626    1.412324
      8          1           0        1.239138    0.082833    2.461449
      9          1           0        3.276551    1.189050    1.509967
     10          1           0        3.522470   -1.841915   -1.518900
     11          1           0        1.485859   -2.958019   -0.577299
     12          7           0        4.685445    0.375027   -0.602004
     13          8           0        5.208032   -0.144462   -1.585707
     14          8           0        5.083009    1.396444   -0.045868
     15          6           0       -5.049809   -1.321098   -0.617204
     16          6           0       -4.288681   -1.461190    0.547949
     17          6           0       -3.307667   -0.519541    0.872689
     18          6           0       -3.113451    0.554722    0.005779
     19          6           0       -3.855573    0.721919   -1.162377
     20          6           0       -4.831211   -0.231911   -1.467149
     21          1           0       -5.809796   -2.057325   -0.861714
     22          1           0       -4.456267   -2.306056    1.209885
     23          1           0       -2.704125   -0.603623    1.768281
     24          1           0       -3.665536    1.574769   -1.802652
     25          1           0       -5.420813   -0.120559   -2.372696
     26          7           0       -2.077741    1.558051    0.338998
     27          8           0       -1.926037    2.495490   -0.441278
     28          8           0       -1.437267    1.388023    1.374141
 ---------------------------------------------------------------------

 SCF Done:  E(RHF) =  -868.338398101     A.U. after   16 cycles
 E2 =    -0.2599822799D+01 EUMP2 =    -0.87093822090052D+03

 The electronic state is 1-A.
 Alpha  occ. eigenvalues --  -20.61523 -20.61480 -20.60168 -20.60150 -15.86546
 Alpha  occ. eigenvalues --  -15.85208 -11.31892 -11.30499 -11.28515 -11.28394
 Alpha  occ. eigenvalues --  -11.28152 -11.27485 -11.27405 -11.27085 -11.26938
 Alpha  occ. eigenvalues --  -11.26817 -11.26169 -11.25921  -1.60557  -1.59236
 Alpha  occ. eigenvalues --   -1.40120  -1.38792  -1.20049  -1.18649  -1.09440
 Alpha  occ. eigenvalues --   -1.08078  -1.05454  -1.04022  -0.96286  -0.94930
 Alpha  occ. eigenvalues --   -0.86848  -0.85435  -0.83127  -0.81749  -0.78186
 Alpha  occ. eigenvalues --   -0.76793  -0.72781  -0.71868  -0.71432  -0.71152
 Alpha  occ. eigenvalues --   -0.70553  -0.69814  -0.65706  -0.65449  -0.64306
 Alpha  occ. eigenvalues --   -0.64014  -0.62808  -0.61362  -0.55932  -0.54610
 Alpha  occ. eigenvalues --   -0.53773  -0.53541  -0.52374  -0.52110  -0.49546
 Alpha  occ. eigenvalues --   -0.49501  -0.48191  -0.48182  -0.45528  -0.44214
 Alpha  occ. eigenvalues --   -0.38011  -0.37062  -0.36647  -0.35580
 Alpha virt. eigenvalues --    0.04340   0.05707   0.10575   0.12046   0.15868
 Alpha virt. eigenvalues --    0.17226   0.20333   0.22026   0.26118   0.27190
 Alpha virt. eigenvalues --    0.28217   0.28935   0.30665   0.31286   0.32533

 Mulliken charges:
               1
     1  C   -0.173319
     2  C   -0.206539
     3  C   -0.170998
     4  C    0.158798
     5  C   -0.172905
     6  C   -0.218797
     7  H    0.216542
     8  H    0.233106
     9  H    0.276912
    10  H    0.272558
    11  H    0.218095
    12  N    0.488167
    13  O   -0.463337
    14  O   -0.459684
    15  C   -0.170665
    16  C   -0.218624
    17  C   -0.173760
    18  C    0.160398
    19  C   -0.170189
    20  C   -0.218079
    21  H    0.227644
    22  H    0.223286
    23  H    0.269014
    24  H    0.278300
    25  H    0.226251
    26  N    0.490599
    27  O   -0.454182
    28  O   -0.468591
 Sum of Mulliken charges =  -0.00000

 Dipole moment (field-independent basis, Debye):
    X=             -8.1414    Y=             -5.5936    Z=              0.7785  Tot=              9.9084
 Quadrupole moment (field-independent basis, Debye-Ang):
   XX=           -112.5232   YY=           -104.7466   ZZ=            -99.5570
   XY=              1.7088   XZ=             12.4298   YZ=             -0.7049

 Normal termination of Gaussian 16 at Fri May  7 09:31:24 2021.
