 Gaussian 16, Revision A.03,
 Gaussian 16:  EM64L-G16RevA.03 25-Dec-2016

 -------------
 #p 6-31g* mp2
 -------------

 ------------------------------------------------------
 Input file generated by CHIRIPA (05-May-2021 14:57:23)
 ------------------------------------------------------
 Symbolic Z-matrix:
 Charge =  0 Multiplicity = 1

                         Standard orientation:
 ---------------------------------------------------------------------
 Center     Atomic      Atomic             Coordinates (Angstroms)
 Number     Number       Type             X           Y           Z
 ---------------------------------------------------------------------
      1          6           0       -4.978508    2.166719    0.694569
      2          6           0       -5.435130    0.946949    1.204646
      3          6           0       -4.863556   -0.257375    0.783393
      4          6           0       -3.832574   -0.204790   -0.153410
      5          6           0       -3.355716    0.994552   -0.680169
      6          6           0       -3.942085    2.186592   -0.244555
      7          1           0       -5.428268    3.097495    1.027386
      8          1           0       -6.239879    0.928483    1.934087
      9          1           0       -5.197721   -1.215748    1.161906
     10          1           0       -2.551912    0.981010   -1.406209
     11          1           0       -3.585439    3.132406   -0.642404
     12          7           0       -3.219642   -1.473252   -0.606974
     13          8           0       -2.312688   -1.399950   -1.433230
     14          8           0       -3.657785   -2.516755   -0.127632
     15          6           0        1.530914   -0.772638    0.027059
     16          6           0        1.991143    0.150260   -0.917910
     17          6           0        3.320386    0.583036   -0.898826
     18          6           0        4.165874    0.070016    0.083646
     19          6           0        3.737210   -0.850475    1.038755
     20          6           0        2.403877   -1.269186    1.000659
     21          1           0        0.496736   -1.103366    0.004849
     22          1           0        1.315433    0.537577   -1.675172
     23          1           0        3.703042    1.296646   -1.618378
     24          1           0        4.434442   -1.218740    1.781498
     25          1           0        2.049220   -1.986012    1.735794
     26          7           0        5.575250    0.520731    0.113913
     27          8           0        6.300158    0.053704    0.989716
     28          8           0        5.928323    1.332494   -0.738739
 ---------------------------------------------------------------------

 SCF Done:  E(RHF) =  -868.339682047     A.U. after   16 cycles
 E2 =    -0.2598506411D+01 EUMP2 =    -0.87093818845784D+03

 The electronic state is 1-A.
 Alpha  occ. eigenvalues --  -20.61959 -20.61900 -20.60411 -20.60405 -15.86947
 Alpha  occ. eigenvalues --  -15.85462 -11.32075 -11.30705 -11.28645 -11.28581
 Alpha  occ. eigenvalues --  -11.28271 -11.27563 -11.27533 -11.27290 -11.27275
 Alpha  occ. eigenvalues --  -11.26833 -11.26218 -11.26197  -1.60991  -1.59490
 Alpha  occ. eigenvalues --   -1.40552  -1.39047  -1.20217  -1.18860  -1.09649
 Alpha  occ. eigenvalues --   -1.08244  -1.05581  -1.04258  -0.96525  -0.95102
 Alpha  occ. eigenvalues --   -0.86989  -0.85641  -0.83366  -0.81953  -0.78453
 Alpha  occ. eigenvalues --   -0.77047  -0.73165  -0.72307  -0.71681  -0.71312
 Alpha  occ. eigenvalues --   -0.70814  -0.69867  -0.65867  -0.65572  -0.64497
 Alpha  occ. eigenvalues --   -0.64248  -0.62936  -0.61619  -0.56069  -0.54632
 Alpha  occ. eigenvalues --   -0.53921  -0.53665  -0.52584  -0.52339  -0.49946
 Alpha  occ. eigenvalues --   -0.49896  -0.48444  -0.48428  -0.45991  -0.44481
 Alpha  occ. eigenvalues --   -0.38170  -0.37173  -0.36786  -0.35882
 Alpha virt. eigenvalues --    0.04033   0.05503   0.10479   0.11786   0.15561
 Alpha virt. eigenvalues --    0.17040   0.20432   0.21986   0.26210   0.27081
 Alpha virt. eigenvalues --    0.28181   0.28857   0.30574   0.31424   0.31932

 Mulliken charges:
               1
     1  C   -0.169726
     2  C   -0.218191
     3  C   -0.170607
     4  C    0.157347
     5  C   -0.171624
     6  C   -0.217713
     7  H    0.228987
     8  H    0.226442
     9  H    0.277011
    10  H    0.271037
    11  H    0.225896
    12  N    0.487349
    13  O   -0.467727
    14  O   -0.454676
    15  C   -0.174493
    16  C   -0.220284
    17  C   -0.171855
    18  C    0.157438
    19  C   -0.171333
    20  C   -0.219786
    21  H    0.239474
    22  H    0.221994
    23  H    0.273032
    24  H    0.273950
    25  H    0.223843
    26  N    0.488252
    27  O   -0.461701
    28  O   -0.462337
 Sum of Mulliken charges =  -0.00000

 Dipole moment (field-independent basis, Debye):
    X=             -7.6129    Y=              2.8764    Z=              1.5767  Tot=              8.2896
 Quadrupole moment (field-independent basis, Debye-Ang):
   XX=           -128.2877   YY=           -104.4390   ZZ=           -101.2964
   XY=            -23.0683   XZ=             -8.5023   YZ=             -5.5832

 Normal termination of Gaussian 16 at Thu May  6 05:01:44 2021.
