 Gaussian 16, Revision A.03,
 Gaussian 16:  EM64L-G16RevA.03 25-Dec-2016

 -------------
 #p 6-31g* mp2
 -------------

 ------------------------------------------------------
 Input file generated by CHIRIPA (05-May-2021 14:55:23)
 ------------------------------------------------------
 Symbolic Z-matrix:
 Charge =  0 Multiplicity = 1

                         Standard orientation:
 ---------------------------------------------------------------------
 Center     Atomic      Atomic             Coordinates (Angstroms)
 Number     Number       Type             X           Y           Z
 ---------------------------------------------------------------------
      1          6           0       -1.793176    1.460842    1.967413
      2          6           0       -1.761300    1.844605    0.622708
      3          6           0       -2.169194    0.958167   -0.378490
      4          6           0       -2.605157   -0.309958    0.002409
      5          6           0       -2.648482   -0.721802    1.333498
      6          6           0       -2.235884    0.181119    2.317898
      7          1           0       -1.474487    2.155851    2.738643
      8          1           0       -1.417959    2.837817    0.347585
      9          1           0       -2.154722    1.229241   -1.427169
     10          1           0       -2.995728   -1.718604    1.576859
     11          1           0       -2.261709   -0.119643    3.361411
     12          7           0       -3.039466   -1.257116   -1.048623
     13          8           0       -3.419338   -2.368663   -0.686967
     14          8           0       -2.991781   -0.870015   -2.214178
     15          6           0        2.615790    0.629520   -0.170622
     16          6           0        2.652312    1.865766   -1.069703
     17          6           0        1.390630    2.721140   -0.950164
     18          1           0        1.735187    0.024253   -0.425838
     19          1           0        2.484750    0.947458    0.872997
     20          1           0        2.784632    1.545659   -2.111162
     21          1           0        3.533035    2.468063   -0.812446
     22          1           0        1.256945    3.068686    0.079371
     23          1           0        0.504288    2.141042   -1.226724
     24          1           0        1.437950    3.599556   -1.601320
     25          6           0        3.870168   -0.235650   -0.278995
     26          6           0        3.833647   -1.471897    0.620086
     27          6           0        5.095329   -2.327270    0.500547
     28          1           0        4.001209   -0.553588   -1.322614
     29          1           0        4.750772    0.369617   -0.023779
     30          1           0        2.952923   -2.074193    0.362830
     31          1           0        3.701327   -1.151790    1.661546
     32          1           0        5.981670   -1.747172    0.777107
     33          1           0        5.229014   -2.674817   -0.528987
     34          1           0        5.048010   -3.205687    1.151703
 ---------------------------------------------------------------------

 SCF Done:  E(RHF) =  -669.534563299     A.U. after   15 cycles
 E2 =    -0.2092685641D+01 EUMP2 =    -0.67162724894017D+03

 The electronic state is 1-A.
 Alpha  occ. eigenvalues --  -20.60778 -20.60773 -15.85830 -11.31192 -11.27723
 Alpha  occ. eigenvalues --  -11.27720 -11.27450 -11.26765 -11.26701 -11.22017
 Alpha  occ. eigenvalues --  -11.21750 -11.21733 -11.21666 -11.21558 -11.21170
 Alpha  occ. eigenvalues --   -1.59854  -1.39407  -1.19347  -1.08750  -1.08694
 Alpha  occ. eigenvalues --   -1.04756  -1.03842  -0.96321  -0.95582  -0.87363
 Alpha  occ. eigenvalues --   -0.86135  -0.82421  -0.79931  -0.78496  -0.77456
 Alpha  occ. eigenvalues --   -0.72047  -0.71178  -0.70453  -0.65335  -0.64995
 Alpha  occ. eigenvalues --   -0.64752  -0.62129  -0.61238  -0.59683  -0.57914
 Alpha  occ. eigenvalues --   -0.55618  -0.55243  -0.53241  -0.53052  -0.52893
 Alpha  occ. eigenvalues --   -0.52492  -0.50268  -0.48807  -0.48804  -0.48212
 Alpha  occ. eigenvalues --   -0.46939  -0.46040  -0.45946  -0.44814  -0.44084
 Alpha  occ. eigenvalues --   -0.37317  -0.36272
 Alpha virt. eigenvalues --    0.05027   0.11257   0.16472   0.20916   0.22652
 Alpha virt. eigenvalues --    0.24105   0.26015   0.26061   0.27355   0.27829
 Alpha virt. eigenvalues --    0.28905   0.30159   0.31079   0.31522   0.32068

 Mulliken charges:
               1
     1  C   -0.173126
     2  C   -0.213265
     3  C   -0.174459
     4  C    0.158001
     5  C   -0.171856
     6  C   -0.217699
     7  H    0.225152
     8  H    0.228659
     9  H    0.275118
    10  H    0.275364
    11  H    0.223328
    12  N    0.488022
    13  O   -0.460330
    14  O   -0.460673
    15  C   -0.298377
    16  C   -0.299749
    17  C   -0.479117
    18  H    0.153398
    19  H    0.146290
    20  H    0.155773
    21  H    0.152526
    22  H    0.147940
    23  H    0.155565
    24  H    0.161024
    25  C   -0.298812
    26  C   -0.299940
    27  C   -0.475894
    28  H    0.151781
    29  H    0.149062
    30  H    0.154340
    31  H    0.149822
    32  H    0.154619
    33  H    0.156771
    34  H    0.160742
 Sum of Mulliken charges =  -0.00000

 Dipole moment (field-independent basis, Debye):
    X=              1.5909    Y=              3.2887    Z=              3.6862  Tot=              5.1898
 Quadrupole moment (field-independent basis, Debye-Ang):
   XX=           -103.8274   YY=            -95.2101   ZZ=            -92.0217
   XY=             -7.7694   XZ=            -10.3923   YZ=             -3.4252

 Normal termination of Gaussian 16 at Wed May  5 20:44:52 2021.
