 Gaussian 16, Revision A.03,
 Gaussian 16:  EM64L-G16RevA.03 25-Dec-2016

 -------------
 #p 6-31g* mp2
 -------------

 ------------------------------------------------------
 Input file generated by CHIRIPA (05-May-2021 14:57:22)
 ------------------------------------------------------
 Symbolic Z-matrix:
 Charge =  0 Multiplicity = 1

                         Standard orientation:
 ---------------------------------------------------------------------
 Center     Atomic      Atomic             Coordinates (Angstroms)
 Number     Number       Type             X           Y           Z
 ---------------------------------------------------------------------
      1          6           0        2.301159    1.785379    0.819916
      2          6           0        1.789984    0.527838    0.482555
      3          6           0        2.643013   -0.493920    0.054889
      4          6           0        4.008018   -0.222239   -0.024118
      5          6           0        4.547660    1.020238    0.305014
      6          6           0        3.675942    2.027139    0.730226
      7          1           0        1.631246    2.573335    1.151184
      8          1           0        0.722746    0.337235    0.551252
      9          1           0        2.274054   -1.476679   -0.212451
     10          1           0        5.616142    1.180215    0.226443
     11          1           0        4.075735    3.002796    0.991578
     12          7           0        4.920975   -1.296064   -0.475570
     13          8           0        6.119657   -1.031363   -0.536656
     14          8           0        4.420581   -2.382096   -0.759784
     15          6           0       -5.107555   -2.053471    0.581178
     16          6           0       -4.028712   -1.620443    1.359065
     17          6           0       -3.328851   -0.459047    1.018623
     18          6           0       -3.736706    0.248157   -0.111335
     19          6           0       -4.807444   -0.157605   -0.906425
     20          6           0       -5.492797   -1.321960   -0.547095
     21          1           0       -5.645589   -2.956821    0.852977
     22          1           0       -3.727305   -2.186545    2.235835
     23          1           0       -2.489996   -0.101158    1.603137
     24          1           0       -5.084484    0.427782   -1.774750
     25          1           0       -6.330257   -1.655880   -1.153068
     26          7           0       -3.003473    1.479241   -0.481743
     27          8           0       -3.382564    2.084501   -1.482037
     28          8           0       -2.063558    1.815594    0.235239
 ---------------------------------------------------------------------

 SCF Done:  E(RHF) =  -868.339787204     A.U. after   16 cycles
 E2 =    -0.2598538138D+01 EUMP2 =    -0.87093832534145D+03

 The electronic state is 1-A.
 Alpha  occ. eigenvalues --  -20.61792 -20.61713 -20.60345 -20.60339 -15.86782
 Alpha  occ. eigenvalues --  -15.85392 -11.31932 -11.30599 -11.28513 -11.28429
 Alpha  occ. eigenvalues --  -11.28131 -11.27434 -11.27394 -11.27160 -11.27143
 Alpha  occ. eigenvalues --  -11.26731 -11.26109 -11.26006  -1.60807  -1.59423
 Alpha  occ. eigenvalues --   -1.40374  -1.38982  -1.20073  -1.18738  -1.09500
 Alpha  occ. eigenvalues --   -1.08132  -1.05444  -1.04122  -0.96376  -0.95003
 Alpha  occ. eigenvalues --   -0.86851  -0.85503  -0.83220  -0.81852  -0.78303
 Alpha  occ. eigenvalues --   -0.76944  -0.73014  -0.72111  -0.71613  -0.71172
 Alpha  occ. eigenvalues --   -0.70745  -0.69781  -0.65728  -0.65436  -0.64374
 Alpha  occ. eigenvalues --   -0.64087  -0.62801  -0.61475  -0.55930  -0.54527
 Alpha  occ. eigenvalues --   -0.53779  -0.53530  -0.52456  -0.52195  -0.49778
 Alpha  occ. eigenvalues --   -0.49730  -0.48380  -0.48353  -0.45814  -0.44424
 Alpha  occ. eigenvalues --   -0.38024  -0.37037  -0.36665  -0.35739
 Alpha virt. eigenvalues --    0.04188   0.05588   0.10602   0.11932   0.15724
 Alpha virt. eigenvalues --    0.17142   0.20410   0.22126   0.25832   0.27126
 Alpha virt. eigenvalues --    0.28515   0.29061   0.30245   0.31151   0.32542

 Mulliken charges:
               1
     1  C   -0.171041
     2  C   -0.221594
     3  C   -0.172901
     4  C    0.158108
     5  C   -0.172040
     6  C   -0.219271
     7  H    0.234819
     8  H    0.230623
     9  H    0.271491
    10  H    0.273448
    11  H    0.222223
    12  N    0.488267
    13  O   -0.461912
    14  O   -0.463144
    15  C   -0.169793
    16  C   -0.217885
    17  C   -0.173371
    18  C    0.158674
    19  C   -0.170202
    20  C   -0.218034
    21  H    0.228736
    22  H    0.225726
    23  H    0.270960
    24  H    0.277320
    25  H    0.226393
    26  N    0.489923
    27  O   -0.453796
    28  O   -0.471727
 Sum of Mulliken charges =  -0.00000

 Dipole moment (field-independent basis, Debye):
    X=             -6.2921    Y=             -0.4969    Z=              2.8546  Tot=              6.9272
 Quadrupole moment (field-independent basis, Debye-Ang):
   XX=           -106.6832   YY=           -107.4411   ZZ=           -103.0744
   XY=             34.7953   XZ=              5.3771   YZ=              0.0127

 Normal termination of Gaussian 16 at Thu May  6 17:54:47 2021.
