 Gaussian 16, Revision A.03,
 Gaussian 16:  EM64L-G16RevA.03 25-Dec-2016

 -------------
 #p 6-31g* mp2
 -------------

 ------------------------------------------------------
 Input file generated by CHIRIPA (05-May-2021 14:53:16)
 ------------------------------------------------------
 Symbolic Z-matrix:
 Charge =  0 Multiplicity = 1

                         Standard orientation:
 ---------------------------------------------------------------------
 Center     Atomic      Atomic             Coordinates (Angstroms)
 Number     Number       Type             X           Y           Z
 ---------------------------------------------------------------------
      1          6           0       -3.988306    0.877301    0.143844
      2          6           0       -2.949594    1.951706   -0.179756
      3          6           0       -3.512358    3.369320   -0.072707
      4          1           0       -4.843532    0.986220   -0.537090
      5          1           0       -4.373958    1.044004    1.159166
      6          1           0       -2.565009    1.782206   -1.193649
      7          1           0       -2.096657    1.840096    0.501902
      8          1           0       -3.878966    3.562767    0.940593
      9          1           0       -4.349980    3.504548   -0.764592
     10          1           0       -2.753022    4.121544   -0.308137
     11          6           0       -3.440757   -0.545152    0.041164
     12          6           0       -4.479469   -1.619556    0.364764
     13          6           0       -3.916705   -3.037171    0.257715
     14          1           0       -3.055105   -0.711855   -0.974158
     15          1           0       -2.585531   -0.654071    0.722098
     16          1           0       -5.332406   -1.507947   -0.316894
     17          1           0       -4.864054   -1.450056    1.378658
     18          1           0       -3.079083   -3.172399    0.949600
     19          1           0       -3.550096   -3.230618   -0.755585
     20          1           0       -4.676041   -3.789395    0.493145
     21          6           0        0.474270   -0.637166   -0.535605
     22          6           0        1.418182   -1.669415   -0.539071
     23          6           0        2.766019   -1.399885   -0.283651
     24          6           0        3.136680   -0.080690   -0.027475
     25          6           0        2.219916    0.969417   -0.017009
     26          6           0        0.877438    0.676639   -0.275045
     27          1           0       -0.570680   -0.855573   -0.735038
     28          1           0        1.107945   -2.690679   -0.741109
     29          1           0        3.517658   -2.179912   -0.280145
     30          1           0        2.559412    1.977505    0.187733
     31          1           0        0.146573    1.480300   -0.271705
     32          7           0        4.560737    0.216955    0.244312
     33          8           0        4.861762    1.387574    0.467183
     34          8           0        5.348923   -0.726006    0.229319
 ---------------------------------------------------------------------

 SCF Done:  E(RHF) =  -669.535062467     A.U. after   15 cycles
 E2 =    -0.2092918551D+01 EUMP2 =    -0.67162798101836D+03

 The electronic state is 1-A.
 Alpha  occ. eigenvalues --  -20.60658 -20.60653 -15.85710 -11.31037 -11.27609
 Alpha  occ. eigenvalues --  -11.27595 -11.27224 -11.26594 -11.26526 -11.22921
 Alpha  occ. eigenvalues --  -11.22752 -11.22646 -11.22547 -11.22084 -11.22073
 Alpha  occ. eigenvalues --   -1.59735  -1.39290  -1.19199  -1.09663  -1.08587
 Alpha  occ. eigenvalues --   -1.04679  -1.04587  -0.97097  -0.95436  -0.88110
 Alpha  occ. eigenvalues --   -0.85997  -0.82284  -0.80761  -0.79572  -0.77329
 Alpha  occ. eigenvalues --   -0.71928  -0.71058  -0.70281  -0.66274  -0.64841
 Alpha  occ. eigenvalues --   -0.64610  -0.62099  -0.61917  -0.60460  -0.58758
 Alpha  occ. eigenvalues --   -0.56364  -0.55125  -0.53755  -0.53468  -0.52931
 Alpha  occ. eigenvalues --   -0.52696  -0.51020  -0.49056  -0.48687  -0.48647
 Alpha  occ. eigenvalues --   -0.47771  -0.46975  -0.46955  -0.44938  -0.44704
 Alpha  occ. eigenvalues --   -0.37156  -0.36211
 Alpha virt. eigenvalues --    0.05180   0.11373   0.16628   0.20215   0.22382
 Alpha virt. eigenvalues --    0.22709   0.25005   0.25591   0.26611   0.27722
 Alpha virt. eigenvalues --    0.29832   0.30074   0.30396   0.31286   0.31612

 Mulliken charges:
               1
     1  C   -0.296596
     2  C   -0.310005
     3  C   -0.475698
     4  H    0.154313
     5  H    0.154703
     6  H    0.150524
     7  H    0.150375
     8  H    0.159288
     9  H    0.159271
    10  H    0.161715
    11  C   -0.308938
    12  C   -0.298799
    13  C   -0.478368
    14  H    0.145451
    15  H    0.151168
    16  H    0.155572
    17  H    0.156371
    18  H    0.155218
    19  H    0.152985
    20  H    0.165754
    21  C   -0.179108
    22  C   -0.221436
    23  C   -0.171042
    24  C    0.158387
    25  C   -0.171804
    26  C   -0.228569
    27  H    0.238030
    28  H    0.223235
    29  H    0.274869
    30  H    0.275066
    31  H    0.231958
    32  N    0.487982
    33  O   -0.460929
    34  O   -0.460941
 Sum of Mulliken charges =  -0.00000

 Dipole moment (field-independent basis, Debye):
    X=             -5.4295    Y=             -1.0056    Z=             -0.8924  Tot=              5.5935
 Quadrupole moment (field-independent basis, Debye-Ang):
   XX=           -125.2838   YY=            -90.5921   ZZ=            -94.5298
   XY=             -3.9856   XZ=             -2.9896   YZ=              0.6715

 Normal termination of Gaussian 16 at Thu May  6 07:32:06 2021.
