 Gaussian 16, Revision A.03,
 Gaussian 16:  EM64L-G16RevA.03 25-Dec-2016

 -------------
 #p 6-31g* mp2
 -------------

 ------------------------------------------------------
 Input file generated by CHIRIPA (05-May-2021 14:51:11)
 ------------------------------------------------------
 Symbolic Z-matrix:
 Charge =  0 Multiplicity = 1

                         Standard orientation:
 ---------------------------------------------------------------------
 Center     Atomic      Atomic             Coordinates (Angstroms)
 Number     Number       Type             X           Y           Z
 ---------------------------------------------------------------------
      1          6           0        2.451520   -0.734578    0.322922
      2          6           0        1.834191   -0.917586    1.709788
      3          6           0        0.726511   -1.971367    1.729434
      4          1           0        1.662904   -0.452963   -0.388220
      5          1           0        2.853867   -1.697284   -0.021621
      6          1           0        1.434359    0.045484    2.052200
      7          1           0        2.624400   -1.198611    2.417750
      8          1           0        1.115097   -2.944689    1.412817
      9          1           0       -0.081707   -1.693525    1.045191
     10          1           0        0.299167   -2.086009    2.730480
     11          6           0        3.560383    0.315599    0.287164
     12          6           0        4.177712    0.498607   -1.099703
     13          6           0        5.285392    1.552388   -1.119348
     14          1           0        3.158035    1.278305    0.631707
     15          1           0        4.348999    0.033984    0.998305
     16          1           0        3.387502    0.779632   -1.807664
     17          1           0        4.577544   -0.464463   -1.442114
     18          1           0        6.093610    1.274546   -0.435105
     19          1           0        4.896806    2.525710   -0.802732
     20          1           0        5.712736    1.667030   -2.120395
     21          6           0       -3.443198    0.831761   -0.234147
     22          6           0       -2.712223    2.017939    0.395649
     23          6           0       -3.600104    3.255353    0.530811
     24          1           0       -3.819518    1.124668   -1.223861
     25          1           0       -4.324137    0.587285    0.375420
     26          1           0       -1.832153    2.259223   -0.214164
     27          1           0       -2.337434    1.722115    1.383899
     28          1           0       -4.471511    3.037723    1.156820
     29          1           0       -3.963358    3.577884   -0.450322
     30          1           0       -3.057569    4.091274    0.983305
     31          6           0       -2.568705   -0.412781   -0.375938
     32          6           0       -3.299679   -1.598960   -1.005735
     33          6           0       -2.411799   -2.836373   -1.140896
     34          1           0       -1.687766   -0.168305   -0.985505
     35          1           0       -2.192384   -0.705688    0.613776
     36          1           0       -3.674469   -1.303136   -1.993984
     37          1           0       -4.179751   -1.840245   -0.395921
     38          1           0       -2.048544   -3.158905   -0.159764
     39          1           0       -1.540392   -2.618744   -1.766906
     40          1           0       -2.954334   -3.672295   -1.593390
 ---------------------------------------------------------------------

 SCF Done:  E(RHF) =  -470.733007640     A.U. after   11 cycles
 E2 =    -0.1583416935D+01 EUMP2 =    -0.47231642457514D+03

 The electronic state is 1-A.
 Alpha  occ. eigenvalues --  -11.21652 -11.21626 -11.21590 -11.21547 -11.21453
 Alpha  occ. eigenvalues --  -11.21393 -11.21374 -11.21313 -11.21109 -11.21063
 Alpha  occ. eigenvalues --  -11.21052 -11.20945  -1.08483  -1.08391  -1.03571
 Alpha  occ. eigenvalues --   -1.03483  -0.96010  -0.95942  -0.87027  -0.86962
 Alpha  occ. eigenvalues --   -0.79676  -0.79520  -0.78342  -0.78168  -0.65129
 Alpha  occ. eigenvalues --   -0.65011  -0.60998  -0.60861  -0.59401  -0.59298
 Alpha  occ. eigenvalues --   -0.57634  -0.57540  -0.55329  -0.55208  -0.52703
 Alpha  occ. eigenvalues --   -0.52637  -0.52444  -0.52370  -0.49998  -0.49881
 Alpha  occ. eigenvalues --   -0.48086  -0.47763  -0.46737  -0.46580  -0.45952
 Alpha  occ. eigenvalues --   -0.45748  -0.45692  -0.45387  -0.43821  -0.43750
 Alpha virt. eigenvalues --    0.21308   0.23261   0.23485   0.24637   0.25434
 Alpha virt. eigenvalues --    0.26286   0.27106   0.27803   0.28416   0.29285
 Alpha virt. eigenvalues --    0.30849   0.31065   0.31597   0.31841   0.32253

 Mulliken charges:
               1
     1  C   -0.298803
     2  C   -0.299043
     3  C   -0.485838
     4  H    0.149946
     5  H    0.149491
     6  H    0.151735
     7  H    0.151551
     8  H    0.154848
     9  H    0.166919
    10  H    0.158470
    11  C   -0.298330
    12  C   -0.299560
    13  C   -0.475680
    14  H    0.149553
    15  H    0.149635
    16  H    0.151559
    17  H    0.151932
    18  H    0.155211
    19  H    0.155142
    20  H    0.160149
    21  C   -0.297527
    22  C   -0.299805
    23  C   -0.475716
    24  H    0.149824
    25  H    0.149835
    26  H    0.151395
    27  H    0.152014
    28  H    0.155398
    29  H    0.155308
    30  H    0.160313
    31  C   -0.304334
    32  C   -0.299352
    33  C   -0.478550
    34  H    0.149047
    35  H    0.154938
    36  H    0.151924
    37  H    0.152009
    38  H    0.158857
    39  H    0.155247
    40  H    0.160286
 Sum of Mulliken charges =  -0.00000

 Dipole moment (field-independent basis, Debye):
    X=             -0.0456    Y=             -0.0048    Z=             -0.0090  Tot=              0.0467
 Quadrupole moment (field-independent basis, Debye-Ang):
   XX=            -85.1223   YY=            -85.6462   ZZ=            -84.0151
   XY=             -0.4729   XZ=              0.0500   YZ=             -0.4373

 Normal termination of Gaussian 16 at Wed May  5 23:05:23 2021.
