 Gaussian 16, Revision A.03,
 Gaussian 16:  EM64L-G16RevA.03 25-Dec-2016

 -------------
 #p 6-31g* mp2
 -------------

 ------------------------------------------------------
 Input file generated by CHIRIPA (05-May-2021 14:55:19)
 ------------------------------------------------------
 Symbolic Z-matrix:
 Charge =  0 Multiplicity = 1

                         Standard orientation:
 ---------------------------------------------------------------------
 Center     Atomic      Atomic             Coordinates (Angstroms)
 Number     Number       Type             X           Y           Z
 ---------------------------------------------------------------------
      1          6           0        1.126190   -2.147817    0.072068
      2          6           0        2.379399   -2.423833    0.628667
      3          6           0        3.416427   -1.490331    0.540957
      4          6           0        3.164268   -0.285522   -0.113369
      5          6           0        1.926582    0.018762   -0.678025
      6          6           0        0.904173   -0.929548   -0.578355
      7          1           0        0.326279   -2.878736    0.144849
      8          1           0        2.554684   -3.369126    1.134376
      9          1           0        4.396254   -1.678175    0.962942
     10          1           0        1.782021    0.969831   -1.176008
     11          1           0       -0.068076   -0.712482   -1.011551
     12          7           0        4.254385    0.710573   -0.212555
     13          8           0        4.006759    1.764620   -0.794195
     14          8           0        5.335803    0.418405    0.293221
     15          6           0       -4.057142   -0.149044    0.171300
     16          6           0       -5.457842   -0.367623   -0.401628
     17          6           0       -5.917667   -1.822291   -0.300151
     18          1           0       -3.345967   -0.797685   -0.358266
     19          1           0       -4.045388   -0.465733    1.223423
     20          1           0       -5.467311   -0.049324   -1.451967
     21          1           0       -6.165735    0.281754    0.129233
     22          1           0       -5.936631   -2.148318    0.744812
     23          1           0       -5.234239   -2.481276   -0.845372
     24          1           0       -6.921394   -1.955961   -0.715513
     25          6           0       -3.583442    1.300252    0.077076
     26          6           0       -2.182741    1.518832    0.650004
     27          6           0       -1.722917    2.973499    0.548527
     28          1           0       -3.595195    1.616942   -0.975048
     29          1           0       -4.294617    1.948893    0.606642
     30          1           0       -1.474849    0.869454    0.119143
     31          1           0       -2.173272    1.200532    1.700343
     32          1           0       -2.406344    3.632485    1.093748
     33          1           0       -1.703953    3.299526   -0.496436
     34          1           0       -0.719190    3.107169    0.963889
 ---------------------------------------------------------------------

 SCF Done:  E(RHF) =  -669.535284748     A.U. after   15 cycles
 E2 =    -0.2091656286D+01 EUMP2 =    -0.67162694103314D+03

 The electronic state is 1-A.
 Alpha  occ. eigenvalues --  -20.60765 -20.60760 -15.85820 -11.31191 -11.27768
 Alpha  occ. eigenvalues --  -11.27764 -11.27505 -11.26779 -11.26765 -11.22239
 Alpha  occ. eigenvalues --  -11.22212 -11.22125 -11.21996 -11.21656 -11.21504
 Alpha  occ. eigenvalues --   -1.59841  -1.39394  -1.19369  -1.09085  -1.08760
 Alpha  occ. eigenvalues --   -1.04778  -1.04121  -0.96559  -0.95593  -0.87571
 Alpha  occ. eigenvalues --   -0.86173  -0.82432  -0.80192  -0.78916  -0.77471
 Alpha  occ. eigenvalues --   -0.72037  -0.71164  -0.70470  -0.65765  -0.65021
 Alpha  occ. eigenvalues --   -0.64771  -0.62176  -0.61481  -0.59918  -0.58170
 Alpha  occ. eigenvalues --   -0.55854  -0.55270  -0.53236  -0.53093  -0.52997
 Alpha  occ. eigenvalues --   -0.52865  -0.50501  -0.48804  -0.48792  -0.48487
 Alpha  occ. eigenvalues --   -0.47231  -0.46441  -0.46366  -0.44798  -0.44385
 Alpha  occ. eigenvalues --   -0.37340  -0.36354
 Alpha virt. eigenvalues --    0.05051   0.11218   0.16437   0.19554   0.22735
 Alpha virt. eigenvalues --    0.23735   0.24910   0.26495   0.27068   0.28428
 Alpha virt. eigenvalues --    0.29076   0.30478   0.31179   0.31500   0.32065

 Mulliken charges:
               1
     1  C   -0.171648
     2  C   -0.218697
     3  C   -0.170682
     4  C    0.158365
     5  C   -0.171792
     6  C   -0.217297
     7  H    0.226029
     8  H    0.223518
     9  H    0.275682
    10  H    0.276051
    11  H    0.225029
    12  N    0.488093
    13  O   -0.460336
    14  O   -0.460463
    15  C   -0.296805
    16  C   -0.300023
    17  C   -0.475818
    18  H    0.140071
    19  H    0.151065
    20  H    0.152907
    21  H    0.154655
    22  H    0.155720
    23  H    0.152813
    24  H    0.162708
    25  C   -0.298877
    26  C   -0.302759
    27  C   -0.477353
    28  H    0.149603
    29  H    0.153173
    30  H    0.144198
    31  H    0.154741
    32  H    0.158119
    33  H    0.155029
    34  H    0.164982
 Sum of Mulliken charges =  -0.00000

 Dipole moment (field-independent basis, Debye):
    X=             -3.9376    Y=             -3.4436    Z=              0.4201  Tot=              5.2478
 Quadrupole moment (field-independent basis, Debye-Ang):
   XX=           -117.1364   YY=            -91.9525   ZZ=            -93.3733
   XY=            -13.0011   XZ=              2.8071   YZ=             -1.2567

 Normal termination of Gaussian 16 at Thu May  6 10:46:35 2021.
