 Gaussian 16, Revision A.03,
 Gaussian 16:  EM64L-G16RevA.03 25-Dec-2016

 -------------
 #p 6-31g* mp2
 -------------

 ------------------------------------------------------
 Input file generated by CHIRIPA (05-May-2021 14:55:21)
 ------------------------------------------------------
 Symbolic Z-matrix:
 Charge =  0 Multiplicity = 1

                         Standard orientation:
 ---------------------------------------------------------------------
 Center     Atomic      Atomic             Coordinates (Angstroms)
 Number     Number       Type             X           Y           Z
 ---------------------------------------------------------------------
      1          6           0       -1.461583    0.300924    0.748725
      2          6           0       -2.132492    1.208388   -0.077660
      3          6           0       -3.450800    0.966205   -0.475102
      4          6           0       -4.070639   -0.198695   -0.025549
      5          6           0       -3.428853   -1.122001    0.798409
      6          6           0       -2.110760   -0.859329    1.183356
      7          1           0       -0.437574    0.497016    1.052614
      8          1           0       -1.630826    2.110280   -0.416727
      9          1           0       -3.993717    1.651812   -1.114322
     10          1           0       -3.955206   -2.012367    1.120309
     11          1           0       -1.592189   -1.565851    1.825193
     12          7           0       -5.466158   -0.465929   -0.439688
     13          8           0       -5.990061   -1.499539   -0.030039
     14          8           0       -6.009639    0.363284   -1.166099
     15          6           0        4.343737    0.466536    0.374041
     16          6           0        3.657381    1.692249   -0.229721
     17          6           0        2.514615    2.217943    0.639488
     18          1           0        3.598746   -0.327193    0.522120
     19          1           0        4.728380    0.724062    1.370598
     20          1           0        3.275361    1.432885   -1.225414
     21          1           0        4.404129    2.483086   -0.376558
     22          1           0        2.883872    2.503841    1.629697
     23          1           0        1.748689    1.447672    0.776018
     24          1           0        2.038014    3.094228    0.189115
     25          6           0        5.488302   -0.070628   -0.483370
     26          6           0        6.174658   -1.296341    0.120391
     27          6           0        7.317424   -1.822035   -0.748817
     28          1           0        5.103660   -0.328153   -1.479927
     29          1           0        6.233293    0.723101   -0.631450
     30          1           0        5.427910   -2.087177    0.267229
     31          1           0        6.556680   -1.036976    1.116086
     32          1           0        8.083351   -1.051764   -0.885347
     33          1           0        6.948168   -2.107932   -1.739026
     34          1           0        7.794026   -2.698321   -0.298445
 ---------------------------------------------------------------------

 SCF Done:  E(RHF) =  -669.535525918     A.U. after   15 cycles
 E2 =    -0.2090767250D+01 EUMP2 =    -0.67162629316797D+03

 The electronic state is 1-A.
 Alpha  occ. eigenvalues --  -20.60733 -20.60728 -15.85787 -11.31146 -11.27716
 Alpha  occ. eigenvalues --  -11.27711 -11.27433 -11.26728 -11.26713 -11.22534
 Alpha  occ. eigenvalues --  -11.22333 -11.22197 -11.22147 -11.22004 -11.21515
 Alpha  occ. eigenvalues --   -1.59809  -1.39362  -1.19317  -1.09180  -1.08711
 Alpha  occ. eigenvalues --   -1.04720  -1.04307  -0.96777  -0.95549  -0.87797
 Alpha  occ. eigenvalues --   -0.86115  -0.82384  -0.80378  -0.78958  -0.77430
 Alpha  occ. eigenvalues --   -0.72004  -0.71132  -0.70446  -0.65809  -0.64968
 Alpha  occ. eigenvalues --   -0.64724  -0.62069  -0.61708  -0.60158  -0.58372
 Alpha  occ. eigenvalues --   -0.56160  -0.55176  -0.53470  -0.53180  -0.53050
 Alpha  occ. eigenvalues --   -0.52810  -0.50711  -0.48771  -0.48760  -0.48679
 Alpha  occ. eigenvalues --   -0.47397  -0.46511  -0.46406  -0.44769  -0.44544
 Alpha  occ. eigenvalues --   -0.37294  -0.36327
 Alpha virt. eigenvalues --    0.05103   0.11328   0.16587   0.19558   0.22425
 Alpha virt. eigenvalues --    0.23792   0.25174   0.26271   0.26752   0.27413
 Alpha virt. eigenvalues --    0.28752   0.30023   0.30976   0.31406   0.32362

 Mulliken charges:
               1
     1  C   -0.176962
     2  C   -0.221869
     3  C   -0.170900
     4  C    0.158280
     5  C   -0.170721
     6  C   -0.220524
     7  H    0.236174
     8  H    0.224022
     9  H    0.275482
    10  H    0.275381
    11  H    0.223772
    12  N    0.488001
    13  O   -0.460555
    14  O   -0.460549
    15  C   -0.298334
    16  C   -0.299586
    17  C   -0.480761
    18  H    0.146562
    19  H    0.150945
    20  H    0.153631
    21  H    0.156160
    22  H    0.160421
    23  H    0.145684
    24  H    0.161322
    25  C   -0.298939
    26  C   -0.300074
    27  C   -0.476125
    28  H    0.150775
    29  H    0.151345
    30  H    0.151623
    31  H    0.152514
    32  H    0.156088
    33  H    0.156048
    34  H    0.161668
 Sum of Mulliken charges =  -0.00000

 Dipole moment (field-independent basis, Debye):
    X=              5.1671    Y=              0.9739    Z=              1.4330  Tot=              5.4498
 Quadrupole moment (field-independent basis, Debye-Ang):
   XX=           -134.8390   YY=            -91.4009   ZZ=            -94.1242
   XY=             -3.9209   XZ=             -5.3655   YZ=             -2.8806

 Normal termination of Gaussian 16 at Thu May  6 01:26:08 2021.
