 Gaussian 16, Revision A.03,
 Gaussian 16:  EM64L-G16RevA.03 25-Dec-2016

 -------------
 #p 6-31g* mp2
 -------------

 ------------------------------------------------------
 Input file generated by CHIRIPA (05-May-2021 14:51:11)
 ------------------------------------------------------
 Symbolic Z-matrix:
 Charge =  0 Multiplicity = 1

                         Standard orientation:
 ---------------------------------------------------------------------
 Center     Atomic      Atomic             Coordinates (Angstroms)
 Number     Number       Type             X           Y           Z
 ---------------------------------------------------------------------
      1          6           0        2.358459    1.045078   -0.114795
      2          6           0        2.408036    2.516603    0.297687
      3          6           0        1.042014    3.198942    0.219003
      4          1           0        1.968432    0.970944   -1.139162
      5          1           0        1.644785    0.514439    0.530562
      6          1           0        3.122434    3.044022   -0.347356
      7          1           0        2.798171    2.587256    1.321122
      8          1           0        0.323092    2.698665    0.875872
      9          1           0        0.649198    3.158026   -0.802086
     10          1           0        1.100492    4.250112    0.518138
     11          6           0        3.716457    0.349249   -0.041364
     12          6           0        3.666880   -1.122276   -0.453846
     13          6           0        5.032903   -1.804614   -0.375162
     14          1           0        4.430131    0.879889   -0.686721
     15          1           0        4.106485    0.423384    0.983003
     16          1           0        3.276745   -1.192929   -1.477281
     17          1           0        2.952482   -1.649694    0.191197
     18          1           0        5.425718   -1.763698    0.645927
     19          1           0        5.751824   -1.304338   -1.032031
     20          1           0        4.974425   -2.855784   -0.674298
     21          6           0       -2.384958   -1.005140   -0.172572
     22          6           0       -1.477982   -1.503526    0.953034
     23          6           0       -0.176495   -2.116993    0.435748
     24          1           0       -2.614753   -1.841286   -0.847109
     25          1           0       -1.840371   -0.261529   -0.770788
     26          1           0       -2.024593   -2.244958    1.549783
     27          1           0       -1.250475   -0.666139    1.625077
     28          1           0        0.392737   -1.381963   -0.142444
     29          1           0       -0.385781   -2.969753   -0.218166
     30          1           0        0.456768   -2.466661    1.257069
     31          6           0       -3.689958   -0.389187    0.328731
     32          6           0       -4.596935    0.109197   -0.796875
     33          6           0       -5.898420    0.722666   -0.279588
     34          1           0       -4.234545   -1.132797    0.926948
     35          1           0       -3.460163    0.446958    1.003268
     36          1           0       -4.824442   -0.728189   -1.468917
     37          1           0       -4.050323    0.850631   -1.393623
     38          1           0       -5.689136    1.575425    0.374325
     39          1           0       -6.467653   -0.012365    0.298604
     40          1           0       -6.531684    1.072333   -1.100911
 ---------------------------------------------------------------------

 SCF Done:  E(RHF) =  -470.732544812     A.U. after   11 cycles
 E2 =    -0.1583867049D+01 EUMP2 =    -0.47231641186058D+03

 The electronic state is 1-A.
 Alpha  occ. eigenvalues --  -11.21637 -11.21593 -11.21583 -11.21518 -11.21411
 Alpha  occ. eigenvalues --  -11.21385 -11.21347 -11.21326 -11.21134 -11.21054
 Alpha  occ. eigenvalues --  -11.21028 -11.20976  -1.08458  -1.08395  -1.03534
 Alpha  occ. eigenvalues --   -1.03506  -0.96007  -0.95943  -0.87006  -0.86981
 Alpha  occ. eigenvalues --   -0.79646  -0.79549  -0.78320  -0.78158  -0.65171
 Alpha  occ. eigenvalues --   -0.64956  -0.60933  -0.60916  -0.59387  -0.59298
 Alpha  occ. eigenvalues --   -0.57648  -0.57531  -0.55378  -0.55165  -0.52737
 Alpha  occ. eigenvalues --   -0.52637  -0.52416  -0.52359  -0.49980  -0.49890
 Alpha  occ. eigenvalues --   -0.47922  -0.47911  -0.46741  -0.46612  -0.45905
 Alpha  occ. eigenvalues --   -0.45751  -0.45709  -0.45306  -0.43791  -0.43739
 Alpha virt. eigenvalues --    0.20975   0.23134   0.24018   0.24190   0.25887
 Alpha virt. eigenvalues --    0.26353   0.26912   0.27762   0.28055   0.29672
 Alpha virt. eigenvalues --    0.30038   0.31357   0.31631   0.31753   0.32231

 Mulliken charges:
               1
     1  C   -0.304320
     2  C   -0.299095
     3  C   -0.475884
     4  H    0.148754
     5  H    0.155658
     6  H    0.152166
     7  H    0.152103
     8  H    0.154451
     9  H    0.154943
    10  H    0.160669
    11  C   -0.297421
    12  C   -0.305223
    13  C   -0.475560
    14  H    0.149291
    15  H    0.149311
    16  H    0.151259
    17  H    0.159615
    18  H    0.154787
    19  H    0.154778
    20  H    0.160334
    21  C   -0.298709
    22  C   -0.300444
    23  C   -0.482985
    24  H    0.149585
    25  H    0.150398
    26  H    0.151863
    27  H    0.150847
    28  H    0.165516
    29  H    0.154990
    30  H    0.158407
    31  C   -0.298217
    32  C   -0.299662
    33  C   -0.475710
    34  H    0.149403
    35  H    0.149580
    36  H    0.151827
    37  H    0.152133
    38  H    0.155277
    39  H    0.155086
    40  H    0.160200
 Sum of Mulliken charges =  -0.00000

 Dipole moment (field-independent basis, Debye):
    X=              0.0110    Y=              0.0015    Z=             -0.0080  Tot=              0.0137
 Quadrupole moment (field-independent basis, Debye-Ang):
   XX=            -86.4909   YY=            -84.5335   ZZ=            -83.9167
   XY=              1.4880   XZ=              0.1092   YZ=             -0.2870

 Normal termination of Gaussian 16 at Thu May  6 02:14:42 2021.
