 Gaussian 16, Revision A.03,
 Gaussian 16:  EM64L-G16RevA.03 25-Dec-2016

 -------------
 #p 6-31g* mp2
 -------------

 ------------------------------------------------------
 Input file generated by CHIRIPA (05-May-2021 14:53:12)
 ------------------------------------------------------
 Symbolic Z-matrix:
 Charge =  0 Multiplicity = 1

                         Standard orientation:
 ---------------------------------------------------------------------
 Center     Atomic      Atomic             Coordinates (Angstroms)
 Number     Number       Type             X           Y           Z
 ---------------------------------------------------------------------
      1          6           0       -3.611623   -0.216174   -0.520416
      2          6           0       -2.251732   -0.248929    0.177873
      3          6           0       -1.129008   -0.738898   -0.737122
      4          1           0       -3.851039   -1.222528   -0.890383
      5          1           0       -3.546911    0.434344   -1.403611
      6          1           0       -2.319365   -0.898096    1.060270
      7          1           0       -2.015613    0.757579    0.546390
      8          1           0       -1.032614   -0.087219   -1.611550
      9          1           0       -1.338092   -1.752302   -1.094750
     10          1           0       -0.165754   -0.754413   -0.217737
     11          6           0       -4.744131    0.271507    0.381427
     12          6           0       -6.104023    0.304262   -0.316863
     13          6           0       -7.226746    0.794231    0.598133
     14          1           0       -4.808843   -0.379011    1.264622
     15          1           0       -4.504716    1.277861    0.751394
     16          1           0       -6.340141   -0.702246   -0.685379
     17          1           0       -6.036389    0.953429   -1.199260
     18          1           0       -7.017662    1.807635    0.955760
     19          1           0       -7.323140    0.142552    1.472561
     20          1           0       -8.190000    0.809746    0.078748
     21          6           0        4.080734    2.361843   -0.079663
     22          6           0        3.659597    1.700066   -1.237772
     23          6           0        3.205110    0.379422   -1.175393
     24          6           0        3.185005   -0.252038    0.067243
     25          6           0        3.598034    0.380460    1.238842
     26          6           0        4.048666    1.701093    1.152775
     27          1           0        4.432293    3.387747   -0.137321
     28          1           0        3.683406    2.210728   -2.196260
     29          1           0        2.873291   -0.156593   -2.056302
     30          1           0        3.562756   -0.154772    2.179958
     31          1           0        4.375120    2.212555    2.053817
     32          7           0        2.705901   -1.650139    0.145820
     33          8           0        2.697933   -2.184355    1.252701
     34          8           0        2.347418   -2.185281   -0.900962
 ---------------------------------------------------------------------

 SCF Done:  E(RHF) =  -669.535531074     A.U. after   15 cycles
 E2 =    -0.2091413444D+01 EUMP2 =    -0.67162694451888D+03

 The electronic state is 1-A.
 Alpha  occ. eigenvalues --  -20.60817 -20.60804 -15.85844 -11.31208 -11.27781
 Alpha  occ. eigenvalues --  -11.27772 -11.27525 -11.26792 -11.26782 -11.21394
 Alpha  occ. eigenvalues --  -11.21163 -11.21127 -11.21027 -11.20907 -11.20478
 Alpha  occ. eigenvalues --   -1.59885  -1.39435  -1.19383  -1.08783  -1.08119
 Alpha  occ. eigenvalues --   -1.04782  -1.03189  -0.95636  -0.95612  -0.86644
 Alpha  occ. eigenvalues --   -0.86182  -0.82447  -0.79257  -0.77932  -0.77494
 Alpha  occ. eigenvalues --   -0.72071  -0.71230  -0.70490  -0.65036  -0.64787
 Alpha  occ. eigenvalues --   -0.64751  -0.62129  -0.60584  -0.59011  -0.57247
 Alpha  occ. eigenvalues --   -0.55288  -0.54915  -0.53115  -0.52875  -0.52319
 Alpha  occ. eigenvalues --   -0.52056  -0.49570  -0.48832  -0.48828  -0.47575
 Alpha  occ. eigenvalues --   -0.46297  -0.45470  -0.45400  -0.44852  -0.43405
 Alpha  occ. eigenvalues --   -0.37364  -0.36382
 Alpha virt. eigenvalues --    0.05025   0.11256   0.16505   0.21392   0.23150
 Alpha virt. eigenvalues --    0.24552   0.26939   0.27281   0.27788   0.27918
 Alpha virt. eigenvalues --    0.28503   0.30744   0.31673   0.31867   0.32103

 Mulliken charges:
               1
     1  C   -0.298204
     2  C   -0.300782
     3  C   -0.470596
     4  H    0.151118
     5  H    0.147242
     6  H    0.154576
     7  H    0.147458
     8  H    0.148050
     9  H    0.163026
    10  H    0.157910
    11  C   -0.297897
    12  C   -0.299397
    13  C   -0.475510
    14  H    0.150202
    15  H    0.147844
    16  H    0.152535
    17  H    0.150853
    18  H    0.154168
    19  H    0.155448
    20  H    0.159619
    21  C   -0.170622
    22  C   -0.218689
    23  C   -0.170275
    24  C    0.155521
    25  C   -0.171129
    26  C   -0.218655
    27  H    0.225656
    28  H    0.223531
    29  H    0.276369
    30  H    0.275740
    31  H    0.223510
    32  N    0.488449
    33  O   -0.459789
    34  O   -0.457279
 Sum of Mulliken charges =  -0.00000

 Dipole moment (field-independent basis, Debye):
    X=              1.7813    Y=              4.8364    Z=             -0.2924  Tot=              5.1622
 Quadrupole moment (field-independent basis, Debye-Ang):
   XX=            -85.8152   YY=            -96.9507   ZZ=            -90.1417
   XY=             16.2520   XZ=              0.5522   YZ=             -0.0184

 Normal termination of Gaussian 16 at Wed May  5 15:30:41 2021.
