 Gaussian 16, Revision A.03,
 Gaussian 16:  EM64L-G16RevA.03 25-Dec-2016

 -------------
 #p 6-31g* mp2
 -------------

 ------------------------------------------------------
 Input file generated by CHIRIPA (05-May-2021 14:55:24)
 ------------------------------------------------------
 Symbolic Z-matrix:
 Charge =  0 Multiplicity = 1

                         Standard orientation:
 ---------------------------------------------------------------------
 Center     Atomic      Atomic             Coordinates (Angstroms)
 Number     Number       Type             X           Y           Z
 ---------------------------------------------------------------------
      1          6           0       -0.951465   -2.817078    0.990730
      2          6           0       -0.979325   -2.672021   -0.400206
      3          6           0       -1.430448   -1.483114   -0.981184
      4          6           0       -1.848255   -0.455052   -0.137493
      5          6           0       -1.832414   -0.569162    1.251758
      6          6           0       -1.377348   -1.767037    1.810827
      7          1           0       -0.599491   -3.744133    1.433539
      8          1           0       -0.649182   -3.485821   -1.039565
      9          1           0       -1.462531   -1.343980   -2.054977
     10          1           0       -2.167862    0.259733    1.863170
     11          1           0       -1.356813   -1.876877    2.891363
     12          7           0       -2.327926    0.808338   -0.740952
     13          8           0       -2.690658    1.699153    0.024235
     14          8           0       -2.332077    0.883845   -1.967703
     15          6           0        2.937717    0.488707    0.026127
     16          6           0        2.844180   -0.937590   -0.516934
     17          6           0        4.198939   -1.645333   -0.555912
     18          1           0        3.636653    1.065599   -0.594862
     19          1           0        3.367317    0.461240    1.037109
     20          1           0        2.413600   -0.907561   -1.526050
     21          1           0        2.145239   -1.511100    0.105305
     22          1           0        4.631539   -1.704794    0.448042
     23          1           0        4.901425   -1.097825   -1.192584
     24          1           0        4.108908   -2.663424   -0.947377
     25          6           0        1.591434    1.209274    0.071244
     26          6           0        1.684971    2.635569    0.614306
     27          6           0        0.330211    3.343313    0.653284
     28          1           0        1.161833    1.236740   -0.939738
     29          1           0        0.892499    0.632382    0.692234
     30          1           0        2.383912    3.209080   -0.007935
     31          1           0        2.115551    2.605542    1.623422
     32          1           0       -0.372274    2.795806    1.289955
     33          1           0       -0.102389    3.402773   -0.350670
     34          1           0        0.420244    4.361404    1.044749
 ---------------------------------------------------------------------

 SCF Done:  E(RHF) =  -669.535151633     A.U. after   15 cycles
 E2 =    -0.2095940120D+01 EUMP2 =    -0.67163109175272D+03

 The electronic state is 1-A.
 Alpha  occ. eigenvalues --  -20.60899 -20.60867 -15.85895 -11.31254 -11.27835
 Alpha  occ. eigenvalues --  -11.27821 -11.27603 -11.26892 -11.26871 -11.21643
 Alpha  occ. eigenvalues --  -11.21290 -11.21240 -11.21121 -11.21051 -11.20144
 Alpha  occ. eigenvalues --   -1.59936  -1.39495  -1.19456  -1.08849  -1.08236
 Alpha  occ. eigenvalues --   -1.04861  -1.03275  -0.95711  -0.95669  -0.86707
 Alpha  occ. eigenvalues --   -0.86256  -0.82520  -0.79357  -0.78068  -0.77556
 Alpha  occ. eigenvalues --   -0.72137  -0.71231  -0.70564  -0.65114  -0.64886
 Alpha  occ. eigenvalues --   -0.64860  -0.62208  -0.60676  -0.59145  -0.57323
 Alpha  occ. eigenvalues --   -0.55363  -0.54989  -0.53302  -0.52951  -0.52378
 Alpha  occ. eigenvalues --   -0.52076  -0.49657  -0.48895  -0.48885  -0.47682
 Alpha  occ. eigenvalues --   -0.46414  -0.45550  -0.45494  -0.44678  -0.43531
 Alpha  occ. eigenvalues --   -0.37374  -0.36422
 Alpha virt. eigenvalues --    0.04921   0.11091   0.16417   0.21147   0.23024
 Alpha virt. eigenvalues --    0.24267   0.26543   0.27156   0.27254   0.27855
 Alpha virt. eigenvalues --    0.28675   0.30616   0.31439   0.31914   0.32216

 Mulliken charges:
               1
     1  C   -0.172075
     2  C   -0.215532
     3  C   -0.170226
     4  C    0.165324
     5  C   -0.175492
     6  C   -0.217645
     7  H    0.226313
     8  H    0.224359
     9  H    0.275691
    10  H    0.275745
    11  H    0.224030
    12  N    0.488805
    13  O   -0.457454
    14  O   -0.460921
    15  C   -0.296769
    16  C   -0.301623
    17  C   -0.475245
    18  H    0.150486
    19  H    0.147352
    20  H    0.149977
    21  H    0.151089
    22  H    0.154249
    23  H    0.156844
    24  H    0.155955
    25  C   -0.306688
    26  C   -0.299852
    27  C   -0.478256
    28  H    0.151368
    29  H    0.150948
    30  H    0.150793
    31  H    0.146966
    32  H    0.158025
    33  H    0.166474
    34  H    0.156987
 Sum of Mulliken charges =  -0.00000

 Dipole moment (field-independent basis, Debye):
    X=              1.4459    Y=             -4.4277    Z=              2.0684  Tot=              5.0964
 Quadrupole moment (field-independent basis, Debye-Ang):
   XX=           -102.8819   YY=            -90.6868   ZZ=            -90.4369
   XY=              7.7153   XZ=             -5.2110   YZ=              0.9733

 Normal termination of Gaussian 16 at Thu May  6 03:11:03 2021.
