 Gaussian 16, Revision A.03,
 Gaussian 16:  EM64L-G16RevA.03 25-Dec-2016

 -------------
 #p 6-31g* mp2
 -------------

 ------------------------------------------------------
 Input file generated by CHIRIPA (05-May-2021 14:53:15)
 ------------------------------------------------------
 Symbolic Z-matrix:
 Charge =  0 Multiplicity = 1

                         Standard orientation:
 ---------------------------------------------------------------------
 Center     Atomic      Atomic             Coordinates (Angstroms)
 Number     Number       Type             X           Y           Z
 ---------------------------------------------------------------------
      1          6           0        3.438161    0.778468    0.393799
      2          6           0        3.386744    2.239730   -0.053473
      3          6           0        2.595979    3.125363    0.909926
      4          1           0        2.413234    0.394665    0.489538
      5          1           0        3.886999    0.724398    1.395306
      6          1           0        2.939403    2.290894   -1.054415
      7          1           0        4.411917    2.620042   -0.148344
      8          1           0        3.043993    3.104059    1.908641
      9          1           0        1.563112    2.773041    0.997422
     10          1           0        2.571985    4.165748    0.570981
     11          6           0        4.225217   -0.119429   -0.559119
     12          6           0        4.276633   -1.580692   -0.111847
     13          6           0        5.067398   -2.466325   -1.075246
     14          1           0        3.776379   -0.065360   -1.560626
     15          1           0        5.250144    0.264374   -0.654858
     16          1           0        3.251461   -1.961003   -0.016976
     17          1           0        4.723975   -1.631856    0.889095
     18          1           0        6.100265   -2.114002   -1.162742
     19          1           0        4.619385   -2.445020   -2.073961
     20          1           0        5.091393   -3.506710   -0.736301
     21          6           0       -0.915302   -1.003991    1.285089
     22          6           0       -0.805306   -0.256000    0.108258
     23          6           0       -1.950004    0.163014   -0.576315
     24          6           0       -3.194420   -0.185263   -0.053417
     25          6           0       -3.336754   -0.929440    1.116725
     26          6           0       -2.178449   -1.337736    1.784686
     27          1           0       -0.020788   -1.325327    1.810430
     28          1           0        0.174368    0.004647   -0.282060
     29          1           0       -1.893738    0.743021   -1.489465
     30          1           0       -4.327071   -1.173909    1.481315
     31          1           0       -2.266902   -1.918536    2.698410
     32          7           0       -4.413464    0.252654   -0.769350
     33          8           0       -5.498204   -0.067144   -0.287992
     34          8           0       -4.261127    0.907400   -1.798300
 ---------------------------------------------------------------------

 SCF Done:  E(RHF) =  -669.535519111     A.U. after   15 cycles
 E2 =    -0.2091492677D+01 EUMP2 =    -0.67162701178799D+03

 The electronic state is 1-A.
 Alpha  occ. eigenvalues --  -20.60761 -20.60756 -15.85815 -11.31185 -11.27761
 Alpha  occ. eigenvalues --  -11.27757 -11.27497 -11.26768 -11.26754 -11.22489
 Alpha  occ. eigenvalues --  -11.22483 -11.22419 -11.22265 -11.21778 -11.21756
 Alpha  occ. eigenvalues --   -1.59837  -1.39390  -1.19360  -1.09354  -1.08753
 Alpha  occ. eigenvalues --   -1.04766  -1.04347  -0.96787  -0.95586  -0.87797
 Alpha  occ. eigenvalues --   -0.86168  -0.82420  -0.80413  -0.79189  -0.77467
 Alpha  occ. eigenvalues --   -0.72034  -0.71160  -0.70464  -0.66069  -0.65012
 Alpha  occ. eigenvalues --   -0.64736  -0.62140  -0.61718  -0.60151  -0.58399
 Alpha  occ. eigenvalues --   -0.56083  -0.55258  -0.53438  -0.53216  -0.53092
 Alpha  occ. eigenvalues --   -0.52859  -0.50726  -0.48803  -0.48788  -0.48712
 Alpha  occ. eigenvalues --   -0.47458  -0.46707  -0.46635  -0.44795  -0.44632
 Alpha  occ. eigenvalues --   -0.37338  -0.36369
 Alpha virt. eigenvalues --    0.05071   0.11223   0.16544   0.18453   0.22799
 Alpha virt. eigenvalues --    0.23444   0.24925   0.26137   0.27178   0.27953
 Alpha virt. eigenvalues --    0.29828   0.30394   0.31010   0.31264   0.31875

 Mulliken charges:
               1
     1  C   -0.302203
     2  C   -0.300775
     3  C   -0.476849
     4  H    0.138980
     5  H    0.153129
     6  H    0.151568
     7  H    0.156281
     8  H    0.156705
     9  H    0.153691
    10  H    0.164609
    11  C   -0.298966
    12  C   -0.299313
    13  C   -0.476089
    14  H    0.149885
    15  H    0.154220
    16  H    0.145433
    17  H    0.153262
    18  H    0.157601
    19  H    0.156820
    20  H    0.162022
    21  C   -0.172566
    22  C   -0.224592
    23  C   -0.171382
    24  C    0.158830
    25  C   -0.170979
    26  C   -0.218625
    27  H    0.226489
    28  H    0.230511
    29  H    0.275905
    30  H    0.275683
    31  H    0.223564
    32  N    0.487963
    33  O   -0.460396
    34  O   -0.460418
 Sum of Mulliken charges =  -0.00000

 Dipole moment (field-independent basis, Debye):
    X=              4.5011    Y=             -1.4933    Z=              2.5176  Tot=              5.3692
 Quadrupole moment (field-independent basis, Debye-Ang):
   XX=           -119.5438   YY=            -94.0182   ZZ=            -93.0358
   XY=              6.3551   XZ=             -9.9432   YZ=             -2.5336

 Normal termination of Gaussian 16 at Thu May  6 09:00:57 2021.
