 Gaussian 16, Revision A.03,
 Gaussian 16:  EM64L-G16RevA.03 25-Dec-2016

 -------------
 #p 6-31g* mp2
 -------------

 ------------------------------------------------------
 Input file generated by CHIRIPA (05-May-2021 14:51:07)
 ------------------------------------------------------
 Symbolic Z-matrix:
 Charge =  0 Multiplicity = 1

                         Standard orientation:
 ---------------------------------------------------------------------
 Center     Atomic      Atomic             Coordinates (Angstroms)
 Number     Number       Type             X           Y           Z
 ---------------------------------------------------------------------
      1          6           0       -4.115472   -0.451925   -0.247170
      2          6           0       -5.260660    0.239016    0.493863
      3          6           0       -6.622948   -0.385532    0.190705
      4          1           0       -4.307793   -0.408942   -1.327961
      5          1           0       -4.100805   -1.516241    0.025615
      6          1           0       -5.272300    1.301998    0.220825
      7          1           0       -5.065495    0.194551    1.573006
      8          1           0       -6.635581   -1.441409    0.479783
      9          1           0       -6.843562   -0.327670   -0.880081
     10          1           0       -7.427199    0.123725    0.730794
     11          6           0       -2.747215    0.161138    0.045670
     12          6           0       -1.602027   -0.529803   -0.695363
     13          6           0       -0.239740    0.094746   -0.392205
     14          1           0       -2.761882    1.225454   -0.227115
     15          1           0       -2.554894    0.118156    1.126461
     16          1           0       -1.797192   -0.485338   -1.774506
     17          1           0       -1.590387   -1.592785   -0.422325
     18          1           0       -0.019125    0.036883    0.678581
     19          1           0       -0.227106    1.150622   -0.681283
     20          1           0        0.564512   -0.414511   -0.932294
     21          6           0        3.464458   -0.523587    0.467902
     22          6           0        4.040133   -1.655123   -0.384276
     23          6           0        4.099957   -2.987108    0.364074
     24          1           0        4.074196   -0.409319    1.374604
     25          1           0        2.455801   -0.802766    0.802663
     26          1           0        5.046863   -1.373303   -0.718476
     27          1           0        3.429067   -1.766583   -1.289147
     28          1           0        3.099076   -3.294564    0.683936
     29          1           0        4.726065   -2.899050    1.257850
     30          1           0        4.514624   -3.782006   -0.263659
     31          6           0        3.398229    0.814374   -0.266403
     32          6           0        2.822554    1.945909    0.585777
     33          6           0        2.762731    3.277896   -0.162574
     34          1           0        4.406887    1.093552   -0.601162
     35          1           0        2.788491    0.700105   -1.173104
     36          1           0        3.433620    2.057370    1.490648
     37          1           0        1.815824    1.664090    0.919976
     38          1           0        2.136622    3.189836   -1.056350
     39          1           0        3.763610    3.585351   -0.482436
     40          1           0        2.348064    4.072793    0.465160
 ---------------------------------------------------------------------

 SCF Done:  E(RHF) =  -470.731544610     A.U. after   11 cycles
 E2 =    -0.1584700874D+01 EUMP2 =    -0.47231624548362D+03

 The electronic state is 1-A.
 Alpha  occ. eigenvalues --  -11.21682 -11.21640 -11.21549 -11.21468 -11.21405
 Alpha  occ. eigenvalues --  -11.21392 -11.21249 -11.21190 -11.21189 -11.21101
 Alpha  occ. eigenvalues --  -11.21036 -11.20977  -1.08510  -1.08309  -1.03620
 Alpha  occ. eigenvalues --   -1.03422  -0.96090  -0.95872  -0.87120  -0.86890
 Alpha  occ. eigenvalues --   -0.79711  -0.79491  -0.78322  -0.78115  -0.65138
 Alpha  occ. eigenvalues --   -0.64987  -0.61045  -0.60834  -0.59428  -0.59255
 Alpha  occ. eigenvalues --   -0.57689  -0.57499  -0.55449  -0.55122  -0.52727
 Alpha  occ. eigenvalues --   -0.52617  -0.52495  -0.52273  -0.50050  -0.49813
 Alpha  occ. eigenvalues --   -0.48121  -0.47750  -0.46752  -0.46501  -0.45934
 Alpha  occ. eigenvalues --   -0.45780  -0.45659  -0.45311  -0.43817  -0.43660
 Alpha virt. eigenvalues --    0.20938   0.22981   0.23738   0.24610   0.25738
 Alpha virt. eigenvalues --    0.26368   0.26794   0.27645   0.27782   0.29776
 Alpha virt. eigenvalues --    0.30614   0.31116   0.31702   0.32084   0.32347

 Mulliken charges:
               1
     1  C   -0.298306
     2  C   -0.299679
     3  C   -0.475744
     4  H    0.149784
     5  H    0.149635
     6  H    0.152034
     7  H    0.152019
     8  H    0.155243
     9  H    0.155240
    10  H    0.160407
    11  C   -0.298860
    12  C   -0.300654
    13  C   -0.480860
    14  H    0.149739
    15  H    0.149740
    16  H    0.152097
    17  H    0.152003
    18  H    0.156798
    19  H    0.157106
    20  H    0.165011
    21  C   -0.303087
    22  C   -0.299987
    23  C   -0.475461
    24  H    0.149155
    25  H    0.154456
    26  H    0.151997
    27  H    0.150720
    28  H    0.154781
    29  H    0.155175
    30  H    0.159971
    31  C   -0.298990
    32  C   -0.304615
    33  C   -0.476268
    34  H    0.148981
    35  H    0.150888
    36  H    0.150700
    37  H    0.159873
    38  H    0.154637
    39  H    0.154809
    40  H    0.159512
 Sum of Mulliken charges =  -0.00000

 Dipole moment (field-independent basis, Debye):
    X=             -0.0826    Y=             -0.0102    Z=              0.0035  Tot=              0.0833
 Quadrupole moment (field-independent basis, Debye-Ang):
   XX=            -85.3237   YY=            -85.6656   ZZ=            -84.2498
   XY=             -0.1797   XZ=              0.2345   YZ=             -0.0751

 Normal termination of Gaussian 16 at Thu May  6 13:10:46 2021.
