 Gaussian 16, Revision A.03,
 Gaussian 16:  EM64L-G16RevA.03 25-Dec-2016

 -------------
 #p 6-31g* mp2
 -------------

 ------------------------------------------------------
 Input file generated by CHIRIPA (05-May-2021 14:51:12)
 ------------------------------------------------------
 Symbolic Z-matrix:
 Charge =  0 Multiplicity = 1

                         Standard orientation:
 ---------------------------------------------------------------------
 Center     Atomic      Atomic             Coordinates (Angstroms)
 Number     Number       Type             X           Y           Z
 ---------------------------------------------------------------------
      1          6           0        2.805091    0.720483    0.080604
      2          6           0        2.890768    2.093595   -0.586634
      3          6           0        2.883445    3.242541    0.422159
      4          1           0        1.890864    0.671347    0.687827
      5          1           0        3.648429    0.604941    0.775462
      6          1           0        2.048290    2.205964   -1.281055
      7          1           0        3.804800    2.139400   -1.192492
      8          1           0        3.732414    3.158203    1.108263
      9          1           0        1.965924    3.225145    1.019197
     10          1           0        2.945428    4.214906   -0.076364
     11          6           0        2.811373   -0.438260   -0.914887
     12          6           0        2.725696   -1.811372   -0.247649
     13          6           0        2.733019   -2.960318   -1.256442
     14          1           0        1.968035   -0.322718   -1.609745
     15          1           0        3.725599   -0.389124   -1.522110
     16          1           0        1.811664   -1.857177    0.358209
     17          1           0        3.568174   -1.923741    0.446772
     18          1           0        3.650539   -2.942922   -1.853480
     19          1           0        1.884050   -2.875980   -1.942546
     20          1           0        2.671035   -3.932683   -0.757919
     21          6           0       -2.432123   -0.672777    0.816272
     22          6           0       -1.251214   -0.112753    1.609880
     23          6           0       -0.508760   -1.188497    2.403184
     24          1           0       -3.128629   -1.167092    1.507269
     25          1           0       -2.068179   -1.450050    0.130133
     26          1           0       -1.617074    0.664200    2.293331
     27          1           0       -0.557533    0.380454    0.916937
     28          1           0       -0.116428   -1.959817    1.732556
     29          1           0       -1.181989   -1.674459    3.116770
     30          1           0        0.331575   -0.766275    2.963028
     31          6           0       -3.184341    0.390554    0.018011
     32          6           0       -4.365249   -0.169470   -0.775597
     33          6           0       -5.107704    0.906274   -1.568901
     34          1           0       -3.548284    1.167827    0.704150
     35          1           0       -2.487834    0.884870   -0.672985
     36          1           0       -5.058931   -0.662677   -0.082654
     37          1           0       -3.999390   -0.946423   -1.459048
     38          1           0       -4.434475    1.392236   -2.282487
     39          1           0       -5.500036    1.677594   -0.898273
     40          1           0       -5.948039    0.484052   -2.128744
 ---------------------------------------------------------------------

 SCF Done:  E(RHF) =  -470.732815162     A.U. after   11 cycles
 E2 =    -0.1583995353D+01 EUMP2 =    -0.47231681051546D+03

 The electronic state is 1-A.
 Alpha  occ. eigenvalues --  -11.21686 -11.21646 -11.21604 -11.21556 -11.21470
 Alpha  occ. eigenvalues --  -11.21410 -11.21396 -11.21333 -11.21129 -11.21105
 Alpha  occ. eigenvalues --  -11.21075 -11.21067  -1.08508  -1.08417  -1.03600
 Alpha  occ. eigenvalues --   -1.03522  -0.96044  -0.95976  -0.87067  -0.86984
 Alpha  occ. eigenvalues --   -0.79708  -0.79543  -0.78323  -0.78232  -0.65331
 Alpha  occ. eigenvalues --   -0.64902  -0.61079  -0.60854  -0.59410  -0.59344
 Alpha  occ. eigenvalues --   -0.57706  -0.57538  -0.55347  -0.55269  -0.52739
 Alpha  occ. eigenvalues --   -0.52659  -0.52483  -0.52388  -0.50133  -0.49821
 Alpha  occ. eigenvalues --   -0.48009  -0.47902  -0.46893  -0.46382  -0.46009
 Alpha  occ. eigenvalues --   -0.45751  -0.45744  -0.45479  -0.43845  -0.43777
 Alpha virt. eigenvalues --    0.19885   0.23270   0.23600   0.24383   0.26118
 Alpha virt. eigenvalues --    0.26765   0.27021   0.27576   0.28189   0.29581
 Alpha virt. eigenvalues --    0.30084   0.31615   0.31734   0.31931   0.32385

 Mulliken charges:
               1
     1  C   -0.306557
     2  C   -0.299311
     3  C   -0.475867
     4  H    0.157823
     5  H    0.149665
     6  H    0.151274
     7  H    0.152065
     8  H    0.155183
     9  H    0.155407
    10  H    0.160249
    11  C   -0.297341
    12  C   -0.308006
    13  C   -0.475381
    14  H    0.148304
    15  H    0.149760
    16  H    0.160476
    17  H    0.151982
    18  H    0.155312
    19  H    0.154395
    20  H    0.160159
    21  C   -0.297862
    22  C   -0.305743
    23  C   -0.479858
    24  H    0.150131
    25  H    0.149343
    26  H    0.152621
    27  H    0.155342
    28  H    0.158567
    29  H    0.156045
    30  H    0.161534
    31  C   -0.298383
    32  C   -0.299716
    33  C   -0.475754
    34  H    0.149773
    35  H    0.149340
    36  H    0.152130
    37  H    0.151976
    38  H    0.155186
    39  H    0.155293
    40  H    0.160445
 Sum of Mulliken charges =  -0.00000

 Dipole moment (field-independent basis, Debye):
    X=             -0.0265    Y=             -0.0052    Z=              0.0359  Tot=              0.0449
 Quadrupole moment (field-independent basis, Debye-Ang):
   XX=            -83.7377   YY=            -86.1010   ZZ=            -84.8802
   XY=              0.2839   XZ=             -0.8125   YZ=             -0.0555

 Normal termination of Gaussian 16 at Thu May  6 02:19:46 2021.
