 Gaussian 16, Revision A.03,
 Gaussian 16:  EM64L-G16RevA.03 25-Dec-2016

 -------------
 #p 6-31g* mp2
 -------------

 ------------------------------------------------------
 Input file generated by CHIRIPA (05-May-2021 14:51:07)
 ------------------------------------------------------
 Symbolic Z-matrix:
 Charge =  0 Multiplicity = 1

                         Standard orientation:
 ---------------------------------------------------------------------
 Center     Atomic      Atomic             Coordinates (Angstroms)
 Number     Number       Type             X           Y           Z
 ---------------------------------------------------------------------
      1          6           0       -3.458953   -0.275451   -0.036599
      2          6           0       -4.781243   -0.854780   -0.540498
      3          6           0       -4.858473   -2.373889   -0.385138
      4          1           0       -2.628852   -0.743995   -0.582807
      5          1           0       -3.328342   -0.543922    1.020878
      6          1           0       -4.909978   -0.584121   -1.596332
      7          1           0       -5.608303   -0.384662    0.006839
      8          1           0       -4.755518   -2.659283    0.666790
      9          1           0       -4.053225   -2.859875   -0.945490
     10          1           0       -5.811936   -2.766964   -0.751552
     11          6           0       -3.366679    1.242154   -0.185219
     12          6           0       -2.044390    1.821483    0.318679
     13          6           0       -1.967160    3.340593    0.163319
     14          1           0       -3.497290    1.510626   -1.242697
     15          1           0       -4.196781    1.710699    0.360988
     16          1           0       -1.217330    1.351366   -0.228658
     17          1           0       -1.915655    1.550825    1.374514
     18          1           0       -2.772407    3.826579    0.723672
     19          1           0       -2.070115    3.625986   -0.888609
     20          1           0       -1.013696    3.733668    0.529733
     21          6           0        2.677280   -0.305997    0.215620
     22          6           0        1.817690   -1.501976    0.626382
     23          6           0        0.348665   -1.131258    0.832121
     24          1           0        2.598909    0.475006    0.984279
     25          1           0        2.273866    0.125658   -0.710838
     26          1           0        2.223428   -1.932093    1.551040
     27          1           0        1.898268   -2.280299   -0.143252
     28          1           0       -0.078122   -0.722206   -0.089361
     29          1           0        0.248885   -0.372022    1.614557
     30          1           0       -0.247601   -2.000957    1.125292
     31          6           0        4.148352   -0.660707    0.006199
     32          6           0        5.007943    0.535272   -0.404563
     33          6           0        6.476967    0.164555   -0.610302
     34          1           0        4.551767   -1.092362    0.932657
     35          1           0        4.226723   -1.441710   -0.762461
     36          1           0        4.927365    1.313595    0.365070
     37          1           0        4.602205    0.965389   -1.329221
     38          1           0        6.576748   -0.594681   -1.392739
     39          1           0        6.903755   -0.244497    0.311180
     40          1           0        7.073234    1.034254   -0.903473
 ---------------------------------------------------------------------

 SCF Done:  E(RHF) =  -470.732218335     A.U. after   11 cycles
 E2 =    -0.1583670600D+01 EUMP2 =    -0.47231588893536D+03

 The electronic state is 1-A.
 Alpha  occ. eigenvalues --  -11.21602 -11.21560 -11.21547 -11.21471 -11.21402
 Alpha  occ. eigenvalues --  -11.21343 -11.21322 -11.21258 -11.21072 -11.21036
 Alpha  occ. eigenvalues --  -11.21001 -11.20967  -1.08430  -1.08351  -1.03525
 Alpha  occ. eigenvalues --   -1.03451  -0.95968  -0.95912  -0.86994  -0.86926
 Alpha  occ. eigenvalues --   -0.79680  -0.79469  -0.78313  -0.78051  -0.65107
 Alpha  occ. eigenvalues --   -0.64956  -0.60958  -0.60826  -0.59385  -0.59248
 Alpha  occ. eigenvalues --   -0.57594  -0.57503  -0.55283  -0.55184  -0.52726
 Alpha  occ. eigenvalues --   -0.52628  -0.52405  -0.52270  -0.49938  -0.49861
 Alpha  occ. eigenvalues --   -0.48161  -0.47645  -0.46734  -0.46513  -0.45959
 Alpha  occ. eigenvalues --   -0.45755  -0.45587  -0.45228  -0.43761  -0.43703
 Alpha virt. eigenvalues --    0.21809   0.23098   0.23986   0.24493   0.25378
 Alpha virt. eigenvalues --    0.25999   0.27126   0.27563   0.27922   0.29785
 Alpha virt. eigenvalues --    0.30222   0.31406   0.31760   0.31885   0.32200

 Mulliken charges:
               1
     1  C   -0.300383
     2  C   -0.299557
     3  C   -0.475548
     4  H    0.152813
     5  H    0.150152
     6  H    0.151451
     7  H    0.151692
     8  H    0.155038
     9  H    0.154967
    10  H    0.160025
    11  C   -0.298646
    12  C   -0.301830
    13  C   -0.475490
    14  H    0.148589
    15  H    0.149084
    16  H    0.156171
    17  H    0.152089
    18  H    0.154636
    19  H    0.154566
    20  H    0.159854
    21  C   -0.298208
    22  C   -0.300695
    23  C   -0.477352
    24  H    0.149676
    25  H    0.148668
    26  H    0.151518
    27  H    0.151343
    28  H    0.158428
    29  H    0.156659
    30  H    0.160207
    31  C   -0.298139
    32  C   -0.299622
    33  C   -0.475700
    34  H    0.149609
    35  H    0.149573
    36  H    0.151933
    37  H    0.151831
    38  H    0.155153
    39  H    0.155197
    40  H    0.160247
 Sum of Mulliken charges =  -0.00000

 Dipole moment (field-independent basis, Debye):
    X=              0.0118    Y=             -0.0140    Z=              0.0147  Tot=              0.0235
 Quadrupole moment (field-independent basis, Debye-Ang):
   XX=            -86.0649   YY=            -86.1109   ZZ=            -82.9464
   XY=             -0.0424   XZ=             -0.0155   YZ=              0.3527

 Normal termination of Gaussian 16 at Thu May  6 11:31:58 2021.
