 Gaussian 16, Revision A.03,
 Gaussian 16:  EM64L-G16RevA.03 25-Dec-2016

 -------------
 #p 6-31g* mp2
 -------------

 ------------------------------------------------------
 Input file generated by CHIRIPA (05-May-2021 14:57:26)
 ------------------------------------------------------
 Symbolic Z-matrix:
 Charge =  0 Multiplicity = 1

                         Standard orientation:
 ---------------------------------------------------------------------
 Center     Atomic      Atomic             Coordinates (Angstroms)
 Number     Number       Type             X           Y           Z
 ---------------------------------------------------------------------
      1          6           0       -5.210824    0.082082    0.748796
      2          6           0       -4.410104    1.173785    0.397294
      3          6           0       -3.138670    0.975037   -0.149059
      4          6           0       -2.697564   -0.334771   -0.331041
      5          6           0       -3.471760   -1.443008    0.009139
      6          6           0       -4.739926   -1.220534    0.553940
      7          1           0       -6.197235    0.245689    1.172613
      8          1           0       -4.773214    2.186522    0.547497
      9          1           0       -2.497973    1.802069   -0.430030
     10          1           0       -3.082447   -2.440878   -0.152440
     11          1           0       -5.359594   -2.070265    0.825993
     12          7           0       -1.353283   -0.557736   -0.908619
     13          8           0       -0.987756   -1.721535   -1.058942
     14          8           0       -0.690617    0.435527   -1.200065
     15          6           0        4.273938   -1.826891    0.358825
     16          6           0        3.574377   -1.376680    1.483301
     17          6           0        2.820483   -0.200678    1.426642
     18          6           0        2.788138    0.503453    0.223960
     19          6           0        3.474261    0.080731   -0.913507
     20          6           0        4.221740   -1.098033   -0.833887
     21          1           0        4.857089   -2.741510    0.411758
     22          1           0        3.613096   -1.940681    2.410905
     23          1           0        2.269317    0.170655    2.282064
     24          1           0        3.416501    0.664444   -1.824201
     25          1           0        4.764022   -1.445283   -1.708754
     26          7           0        1.993421    1.749896    0.151825
     27          8           0        1.981102    2.352094   -0.919550
     28          8           0        1.397887    2.101059    1.168024
 ---------------------------------------------------------------------

 SCF Done:  E(RHF) =  -868.338757494     A.U. after   16 cycles
 E2 =    -0.2600309433D+01 EUMP2 =    -0.87093906692749D+03

 The electronic state is 1-A.
 Alpha  occ. eigenvalues --  -20.60493 -20.60464 -20.59544 -20.59466 -15.85509
 Alpha  occ. eigenvalues --  -15.84567 -11.30791 -11.29975 -11.27424 -11.27277
 Alpha  occ. eigenvalues --  -11.27140 -11.26627 -11.26534 -11.26421 -11.26392
 Alpha  occ. eigenvalues --  -11.26329 -11.25688 -11.25622  -1.59560  -1.58543
 Alpha  occ. eigenvalues --   -1.39107  -1.38117  -1.18974  -1.18162  -1.08397
 Alpha  occ. eigenvalues --   -1.07560  -1.04361  -1.03610  -0.95239  -0.94397
 Alpha  occ. eigenvalues --   -0.85766  -0.85013  -0.82068  -0.81257  -0.77111
 Alpha  occ. eigenvalues --   -0.76275  -0.71832  -0.70922  -0.70834  -0.70098
 Alpha  occ. eigenvalues --   -0.69632  -0.69339  -0.64625  -0.64372  -0.63856
 Alpha  occ. eigenvalues --   -0.63662  -0.61696  -0.60983  -0.54894  -0.54157
 Alpha  occ. eigenvalues --   -0.52705  -0.52452  -0.51890  -0.51743  -0.48521
 Alpha  occ. eigenvalues --   -0.48488  -0.47594  -0.47550  -0.44531  -0.43521
 Alpha  occ. eigenvalues --   -0.36974  -0.36132  -0.35960  -0.35197
 Alpha virt. eigenvalues --    0.05371   0.06355   0.11694   0.12454   0.16880
 Alpha virt. eigenvalues --    0.17787   0.21817   0.22407   0.27741   0.28281
 Alpha virt. eigenvalues --    0.28740   0.29319   0.31349   0.31894   0.33080

 Mulliken charges:
               1
     1  C   -0.170670
     2  C   -0.219324
     3  C   -0.168764
     4  C    0.156604
     5  C   -0.171723
     6  C   -0.219276
     7  H    0.224395
     8  H    0.224721
     9  H    0.285516
    10  H    0.272830
    11  H    0.221232
    12  N    0.488904
    13  O   -0.465497
    14  O   -0.457847
    15  C   -0.170324
    16  C   -0.217625
    17  C   -0.171926
    18  C    0.166959
    19  C   -0.163076
    20  C   -0.217455
    21  H    0.221162
    22  H    0.218075
    23  H    0.270094
    24  H    0.275427
    25  H    0.220123
    26  N    0.496986
    27  O   -0.457129
    28  O   -0.472391
 Sum of Mulliken charges =  -0.00000

 Dipole moment (field-independent basis, Debye):
    X=             -2.0671    Y=             -3.4020    Z=              2.0592  Tot=              4.4818
 Quadrupole moment (field-independent basis, Debye-Ang):
   XX=            -65.4712   YY=           -105.8386   ZZ=           -102.6099
   XY=            -10.8931   XZ=             -4.7813   YZ=             -3.0316

 Normal termination of Gaussian 16 at Wed May  5 22:49:08 2021.
