 Gaussian 16, Revision A.03,
 Gaussian 16:  EM64L-G16RevA.03 25-Dec-2016

 -------------
 #p 6-31g* mp2
 -------------

 ------------------------------------------------------
 Input file generated by CHIRIPA (05-May-2021 14:55:23)
 ------------------------------------------------------
 Symbolic Z-matrix:
 Charge =  0 Multiplicity = 1

                         Standard orientation:
 ---------------------------------------------------------------------
 Center     Atomic      Atomic             Coordinates (Angstroms)
 Number     Number       Type             X           Y           Z
 ---------------------------------------------------------------------
      1          6           0        2.447903    2.566353    0.096629
      2          6           0        2.660219    1.875761    1.294346
      3          6           0        2.977447    0.514230    1.282254
      4          6           0        3.074725   -0.128292    0.048968
      5          6           0        2.868901    0.532199   -1.161271
      6          6           0        2.552737    1.893554   -1.125203
      7          1           0        2.201887    3.623955    0.115335
      8          1           0        2.579466    2.395694    2.244711
      9          1           0        3.146852   -0.044724    2.194553
     10          1           0        2.956386   -0.013194   -2.093103
     11          1           0        2.388379    2.427328   -2.056931
     12          7           0        3.409997   -1.569591    0.023476
     13          8           0        3.489800   -2.112775   -1.076169
     14          8           0        3.586631   -2.128805    1.103622
     15          6           0       -3.168341   -0.312375    0.193557
     16          6           0       -2.044259    0.098543   -0.758058
     17          6           0       -0.656686   -0.253246   -0.220771
     18          1           0       -3.014876    0.176976    1.165117
     19          1           0       -3.108067   -1.394336    0.375552
     20          1           0       -2.107478    1.179178   -0.939295
     21          1           0       -2.200525   -0.391693   -1.727525
     22          1           0       -0.569163   -1.332182   -0.056952
     23          1           0       -0.475587    0.247615    0.735756
     24          1           0        0.131906    0.049295   -0.916796
     25          6           0       -4.561499    0.032691   -0.329672
     26          6           0       -5.685580   -0.378228    0.621944
     27          6           0       -7.073154   -0.026439    0.084657
     28          1           0       -4.621773    1.114652   -0.511666
     29          1           0       -4.714964   -0.456661   -1.301232
     30          1           0       -5.529315    0.112009    1.591410
     31          1           0       -5.622362   -1.458863    0.803181
     32          1           0       -7.254253   -0.527298   -0.871870
     33          1           0       -7.160678    1.052498   -0.079162
     34          1           0       -7.861747   -0.328979    0.780682
 ---------------------------------------------------------------------

 SCF Done:  E(RHF) =  -669.534383081     A.U. after   15 cycles
 E2 =    -0.2093290175D+01 EUMP2 =    -0.67162767325605D+03

 The electronic state is 1-A.
 Alpha  occ. eigenvalues --  -20.60759 -20.60754 -15.85814 -11.31181 -11.27794
 Alpha  occ. eigenvalues --  -11.27755 -11.27544 -11.26817 -11.26795 -11.21639
 Alpha  occ. eigenvalues --  -11.21615 -11.21437 -11.21369 -11.21118 -11.20878
 Alpha  occ. eigenvalues --   -1.59833  -1.39387  -1.19394  -1.08775  -1.08451
 Alpha  occ. eigenvalues --   -1.04812  -1.03533  -0.95982  -0.95605  -0.87000
 Alpha  occ. eigenvalues --   -0.86197  -0.82444  -0.79612  -0.78272  -0.77483
 Alpha  occ. eigenvalues --   -0.72036  -0.71154  -0.70503  -0.65085  -0.65046
 Alpha  occ. eigenvalues --   -0.64806  -0.62152  -0.60935  -0.59421  -0.57624
 Alpha  occ. eigenvalues --   -0.55307  -0.55280  -0.53663  -0.52895  -0.52413
 Alpha  occ. eigenvalues --   -0.52065  -0.49893  -0.48795  -0.48788  -0.47930
 Alpha  occ. eigenvalues --   -0.46638  -0.45810  -0.45741  -0.44791  -0.43782
 Alpha  occ. eigenvalues --   -0.37344  -0.36325
 Alpha virt. eigenvalues --    0.05033   0.11217   0.16497   0.21371   0.22847
 Alpha virt. eigenvalues --    0.24351   0.26614   0.27218   0.27457   0.27938
 Alpha virt. eigenvalues --    0.28348   0.30911   0.31373   0.31835   0.32148

 Mulliken charges:
               1
     1  C   -0.169745
     2  C   -0.218028
     3  C   -0.170698
     4  C    0.168555
     5  C   -0.178956
     6  C   -0.215617
     7  H    0.225707
     8  H    0.223533
     9  H    0.275898
    10  H    0.275792
    11  H    0.223760
    12  N    0.487770
    13  O   -0.460779
    14  O   -0.460603
    15  C   -0.298267
    16  C   -0.299273
    17  C   -0.481457
    18  H    0.147844
    19  H    0.151992
    20  H    0.147044
    21  H    0.152105
    22  H    0.158421
    23  H    0.152661
    24  H    0.163318
    25  C   -0.298052
    26  C   -0.299625
    27  C   -0.475656
    28  H    0.147598
    29  H    0.150145
    30  H    0.151186
    31  H    0.153146
    32  H    0.155551
    33  H    0.154266
    34  H    0.160463
 Sum of Mulliken charges =  -0.00000

 Dipole moment (field-independent basis, Debye):
    X=             -1.0755    Y=              5.0676    Z=              0.1091  Tot=              5.1816
 Quadrupole moment (field-independent basis, Debye-Ang):
   XX=           -104.1191   YY=            -95.8607   ZZ=            -89.6162
   XY=             16.3357   XZ=              0.2528   YZ=              0.7032

 Normal termination of Gaussian 16 at Wed May  5 22:20:17 2021.
