 Gaussian 16, Revision A.03,
 Gaussian 16:  EM64L-G16RevA.03 25-Dec-2016

 -------------
 #p 6-31g* mp2
 -------------

 ------------------------------------------------------
 Input file generated by CHIRIPA (05-May-2021 14:53:18)
 ------------------------------------------------------
 Symbolic Z-matrix:
 Charge =  0 Multiplicity = 1

                         Standard orientation:
 ---------------------------------------------------------------------
 Center     Atomic      Atomic             Coordinates (Angstroms)
 Number     Number       Type             X           Y           Z
 ---------------------------------------------------------------------
      1          6           0        3.324656   -0.637653   -0.137258
      2          6           0        4.528126   -1.532966    0.159492
      3          6           0        4.130765   -2.980792    0.448803
      4          1           0        2.634828   -0.666290    0.717295
      5          1           0        2.775145   -1.046710   -0.996389
      6          1           0        5.075987   -1.121574    1.016942
      7          1           0        5.215262   -1.502045   -0.695789
      8          1           0        3.603422   -3.413958   -0.407280
      9          1           0        3.463357   -3.031326    1.315182
     10          1           0        5.006316   -3.603203    0.658265
     11          6           0        3.705776    0.812752   -0.428464
     12          6           0        2.502307    1.708065   -0.725214
     13          6           0        2.899667    3.155890   -1.014525
     14          1           0        4.255287    1.221809    0.430667
     15          1           0        4.395604    0.841388   -1.283017
     16          1           0        1.815171    1.677143    0.130067
     17          1           0        1.954445    1.296673   -1.582664
     18          1           0        3.567076    3.206425   -1.880904
     19          1           0        3.427010    3.589057   -0.158442
     20          1           0        2.024116    3.778302   -1.223987
     21          6           0       -0.865216    0.967719    1.545390
     22          6           0       -2.086174    1.638769    1.420985
     23          6           0       -3.135361    1.074169    0.689560
     24          6           0       -2.928115   -0.168566    0.092947
     25          6           0       -1.723342   -0.861844    0.198670
     26          6           0       -0.688009   -0.278248    0.934912
     27          1           0       -0.055564    1.413692    2.115448
     28          1           0       -2.226633    2.606528    1.894015
     29          1           0       -4.090906    1.571883    0.577171
     30          1           0       -1.613235   -1.825242   -0.284195
     31          1           0        0.259121   -0.801678    1.029841
     32          7           0       -4.031509   -0.776336   -0.683929
     33          8           0       -3.823674   -1.872296   -1.199986
     34          8           0       -5.083292   -0.145240   -0.762078
 ---------------------------------------------------------------------

 SCF Done:  E(RHF) =  -669.535031028     A.U. after   15 cycles
 E2 =    -0.2092651587D+01 EUMP2 =    -0.67162768261556D+03

 The electronic state is 1-A.
 Alpha  occ. eigenvalues --  -20.60736 -20.60731 -15.85788 -11.31150 -11.27712
 Alpha  occ. eigenvalues --  -11.27691 -11.27455 -11.26738 -11.26678 -11.22407
 Alpha  occ. eigenvalues --  -11.22342 -11.22337 -11.22167 -11.21774 -11.21710
 Alpha  occ. eigenvalues --   -1.59811  -1.39365  -1.19317  -1.09268  -1.08716
 Alpha  occ. eigenvalues --   -1.04714  -1.04275  -0.96733  -0.95556  -0.87743
 Alpha  occ. eigenvalues --   -0.86122  -0.82384  -0.80340  -0.79122  -0.77420
 Alpha  occ. eigenvalues --   -0.72007  -0.71134  -0.70445  -0.65939  -0.64967
 Alpha  occ. eigenvalues --   -0.64696  -0.62069  -0.61675  -0.60097  -0.58346
 Alpha  occ. eigenvalues --   -0.56038  -0.55227  -0.53401  -0.53202  -0.53038
 Alpha  occ. eigenvalues --   -0.52776  -0.50669  -0.48778  -0.48763  -0.48639
 Alpha  occ. eigenvalues --   -0.47380  -0.46614  -0.46544  -0.44771  -0.44559
 Alpha  occ. eigenvalues --   -0.37265  -0.36302
 Alpha virt. eigenvalues --    0.05067   0.11268   0.16483   0.19554   0.22771
 Alpha virt. eigenvalues --    0.23241   0.25044   0.26194   0.27189   0.27550
 Alpha virt. eigenvalues --    0.29393   0.30446   0.31041   0.31426   0.31711

 Mulliken charges:
               1
     1  C   -0.301857
     2  C   -0.299438
     3  C   -0.476683
     4  H    0.139795
     5  H    0.152487
     6  H    0.153059
     7  H    0.155854
     8  H    0.156964
     9  H    0.151896
    10  H    0.164159
    11  C   -0.298753
    12  C   -0.301427
    13  C   -0.476548
    14  H    0.149479
    15  H    0.153882
    16  H    0.145533
    17  H    0.156573
    18  H    0.158241
    19  H    0.154073
    20  H    0.162045
    21  C   -0.172201
    22  C   -0.219326
    23  C   -0.171462
    24  C    0.159049
    25  C   -0.173521
    26  C   -0.219922
    27  H    0.224420
    28  H    0.223244
    29  H    0.275393
    30  H    0.275861
    31  H    0.232222
    32  N    0.487969
    33  O   -0.460467
    34  O   -0.460592
 Sum of Mulliken charges =  -0.00000

 Dipole moment (field-independent basis, Debye):
    X=              4.0562    Y=              2.1354    Z=              2.6233  Tot=              5.2815
 Quadrupole moment (field-independent basis, Debye-Ang):
   XX=           -115.6998   YY=            -93.5356   ZZ=            -93.8063
   XY=             -9.9277   XZ=             -8.7416   YZ=              1.1085

 Normal termination of Gaussian 16 at Wed May  5 23:41:15 2021.
