 Gaussian 16, Revision A.03,
 Gaussian 16:  EM64L-G16RevA.03 25-Dec-2016

 -------------
 #p 6-31g* mp2
 -------------

 ------------------------------------------------------
 Input file generated by CHIRIPA (05-May-2021 14:51:14)
 ------------------------------------------------------
 Symbolic Z-matrix:
 Charge =  0 Multiplicity = 1

                         Standard orientation:
 ---------------------------------------------------------------------
 Center     Atomic      Atomic             Coordinates (Angstroms)
 Number     Number       Type             X           Y           Z
 ---------------------------------------------------------------------
      1          6           0       -1.946724   -0.133075    0.818317
      2          6           0       -2.190839   -1.630278    0.626548
      3          6           0       -1.892300   -2.444010    1.886114
      4          1           0       -0.902500    0.025969    1.120389
      5          1           0       -2.570539    0.229885    1.646876
      6          1           0       -1.567779   -1.990021   -0.202305
      7          1           0       -3.234552   -1.785760    0.324711
      8          1           0       -2.523462   -2.113015    2.717184
      9          1           0       -0.847219   -2.318437    2.187175
     10          1           0       -2.073519   -3.511540    1.726735
     11          6           0       -2.240781    0.693733   -0.432142
     12          6           0       -1.996665    2.190936   -0.240373
     13          6           0       -2.295204    3.004669   -1.499939
     14          1           0       -1.616966    0.330774   -1.260701
     15          1           0       -3.285004    0.534690   -0.734214
     16          1           0       -0.952953    2.346418    0.061464
     17          1           0       -2.619726    2.550679    0.588480
     18          1           0       -3.340285    2.879095   -1.801000
     19          1           0       -1.664042    2.673674   -2.331010
     20          1           0       -2.113986    4.072198   -1.340560
     21          6           0        1.553905   -0.806087   -0.317890
     22          6           0        1.976617   -1.883994   -1.316597
     23          6           0        0.886034   -2.928595   -1.555826
     24          1           0        1.285550   -1.282870    0.634794
     25          1           0        0.644956   -0.310757   -0.686477
     26          1           0        2.885285   -2.376204   -0.946913
     27          1           0        2.244180   -1.404570   -2.266955
     28          1           0       -0.020509   -2.456243   -1.947827
     29          1           0        0.624239   -3.433399   -0.620285
     30          1           0        1.209358   -3.689541   -2.272960
     31          6           0        2.633600    0.245428   -0.068285
     32          6           0        2.210887    1.323335    0.930422
     33          6           0        3.301470    2.367936    1.169651
     34          1           0        3.542549   -0.249901    0.300301
     35          1           0        2.901955    0.722213   -1.020968
     36          1           0        1.943325    0.843912    1.880780
     37          1           0        1.302220    1.815547    0.560738
     38          1           0        3.563266    2.872740    0.234110
     39          1           0        4.208014    1.895584    1.561652
     40          1           0        2.978146    3.128884    1.886786
 ---------------------------------------------------------------------

 SCF Done:  E(RHF) =  -470.730175652     A.U. after   11 cycles
 E2 =    -0.1588289631D+01 EUMP2 =    -0.47231846528298D+03

 The electronic state is 1-A.
 Alpha  occ. eigenvalues --  -11.21691 -11.21689 -11.21595 -11.21486 -11.21421
 Alpha  occ. eigenvalues --  -11.21384 -11.21358 -11.21158 -11.21155 -11.21139
 Alpha  occ. eigenvalues --  -11.21090 -11.21006  -1.08622  -1.08289  -1.03662
 Alpha  occ. eigenvalues --   -1.03443  -0.96111  -0.95907  -0.87102  -0.86948
 Alpha  occ. eigenvalues --   -0.79728  -0.79545  -0.78484  -0.78111  -0.65463
 Alpha  occ. eigenvalues --   -0.64758  -0.61095  -0.60898  -0.59399  -0.59305
 Alpha  occ. eigenvalues --   -0.57758  -0.57527  -0.55487  -0.55130  -0.52766
 Alpha  occ. eigenvalues --   -0.52626  -0.52558  -0.52321  -0.50034  -0.49922
 Alpha  occ. eigenvalues --   -0.48265  -0.47689  -0.46924  -0.46506  -0.46427
 Alpha  occ. eigenvalues --   -0.45829  -0.45354  -0.44954  -0.43867  -0.43698
 Alpha virt. eigenvalues --    0.20206   0.21797   0.23067   0.23913   0.25370
 Alpha virt. eigenvalues --    0.26227   0.26790   0.27489   0.28914   0.30603
 Alpha virt. eigenvalues --    0.30854   0.31484   0.31707   0.31852   0.32280

 Mulliken charges:
               1
     1  C   -0.305427
     2  C   -0.307815
     3  C   -0.477093
     4  H    0.158716
     5  H    0.149010
     6  H    0.162786
     7  H    0.150873
     8  H    0.155018
     9  H    0.154611
    10  H    0.159685
    11  C   -0.301346
    12  C   -0.308168
    13  C   -0.475048
    14  H    0.148178
    15  H    0.150704
    16  H    0.158603
    17  H    0.152816
    18  H    0.155514
    19  H    0.154273
    20  H    0.160192
    21  C   -0.310336
    22  C   -0.298390
    23  C   -0.480870
    24  H    0.152060
    25  H    0.159327
    26  H    0.152240
    27  H    0.151872
    28  H    0.157003
    29  H    0.157905
    30  H    0.161520
    31  C   -0.296550
    32  C   -0.310209
    33  C   -0.475104
    34  H    0.149832
    35  H    0.149521
    36  H    0.152273
    37  H    0.160255
    38  H    0.155321
    39  H    0.155517
    40  H    0.160734
 Sum of Mulliken charges =  -0.00000

 Dipole moment (field-independent basis, Debye):
    X=              0.0711    Y=             -0.0079    Z=             -0.0175  Tot=              0.0737
 Quadrupole moment (field-independent basis, Debye-Ang):
   XX=            -84.3395   YY=            -85.6254   ZZ=            -84.9264
   XY=             -0.7922   XZ=             -0.2859   YZ=              0.0766

 Normal termination of Gaussian 16 at Thu May  6 02:25:51 2021.
