 Gaussian 16, Revision A.03,
 Gaussian 16:  EM64L-G16RevA.03 25-Dec-2016

 -------------
 #p 6-31g* mp2
 -------------

 ------------------------------------------------------
 Input file generated by CHIRIPA (05-May-2021 14:51:11)
 ------------------------------------------------------
 Symbolic Z-matrix:
 Charge =  0 Multiplicity = 1

                         Standard orientation:
 ---------------------------------------------------------------------
 Center     Atomic      Atomic             Coordinates (Angstroms)
 Number     Number       Type             X           Y           Z
 ---------------------------------------------------------------------
      1          6           0       -2.863972    0.404278   -0.252724
      2          6           0       -4.068758    1.345806   -0.253145
      3          6           0       -4.108619    2.254284   -1.482320
      4          1           0       -1.941674    0.999260   -0.300754
      5          1           0       -2.887316   -0.210193   -1.163369
      6          1           0       -4.043902    1.957352    0.657903
      7          1           0       -4.988290    0.748520   -0.204915
      8          1           0       -4.157739    1.659049   -2.399863
      9          1           0       -3.207985    2.874750   -1.532142
     10          1           0       -4.977860    2.919020   -1.462215
     11          6           0       -2.810239   -0.510261    0.969757
     12          6           0       -1.605452   -1.451789    0.970179
     13          6           0       -1.565592   -2.360267    2.199354
     14          1           0       -2.786894    0.104210    1.880403
     15          1           0       -3.732537   -1.105243    1.017788
     16          1           0       -0.685920   -0.854503    0.921948
     17          1           0       -1.630309   -2.063336    0.059130
     18          1           0       -2.466226   -2.980733    2.249176
     19          1           0       -1.516471   -1.765033    3.116896
     20          1           0       -0.696350   -3.025004    2.179249
     21          6           0        2.893967   -0.676512   -0.577661
     22          6           0        1.736862   -1.134743   -1.465985
     23          6           0        1.864815   -2.596356   -1.896227
     24          1           0        3.840585   -0.820115   -1.116397
     25          1           0        2.940359   -1.319020    0.312522
     26          1           0        1.691806   -0.490689   -2.353554
     27          1           0        0.792874   -0.989854   -0.925143
     28          1           0        1.887136   -3.254785   -1.021829
     29          1           0        2.791176   -2.752785   -2.458355
     30          1           0        1.027215   -2.902950   -2.530489
     31          6           0        2.780244    0.782495   -0.139373
     32          6           0        3.937347    1.240727    0.748951
     33          6           0        3.809396    2.702340    1.179195
     34          1           0        2.733852    1.425004   -1.029555
     35          1           0        1.833626    0.926098    0.399364
     36          1           0        4.881337    1.095837    0.208110
     37          1           0        3.982405    0.596672    1.636521
     38          1           0        2.883035    2.858769    1.741321
     39          1           0        3.787074    3.360768    0.304795
     40          1           0        4.646996    3.008933    1.813456
 ---------------------------------------------------------------------

 SCF Done:  E(RHF) =  -470.733114663     A.U. after   11 cycles
 E2 =    -0.1583385241D+01 EUMP2 =    -0.47231649990421D+03

 The electronic state is 1-A.
 Alpha  occ. eigenvalues --  -11.21677 -11.21626 -11.21610 -11.21462 -11.21452
 Alpha  occ. eigenvalues --  -11.21402 -11.21389 -11.21323 -11.21143 -11.21087
 Alpha  occ. eigenvalues --  -11.21081 -11.21019  -1.08490  -1.08399  -1.03592
 Alpha  occ. eigenvalues --   -1.03486  -0.96024  -0.95956  -0.87043  -0.86970
 Alpha  occ. eigenvalues --   -0.79721  -0.79510  -0.78374  -0.78137  -0.65173
 Alpha  occ. eigenvalues --   -0.64988  -0.61013  -0.60881  -0.59416  -0.59292
 Alpha  occ. eigenvalues --   -0.57639  -0.57559  -0.55309  -0.55246  -0.52726
 Alpha  occ. eigenvalues --   -0.52644  -0.52451  -0.52379  -0.49983  -0.49894
 Alpha  occ. eigenvalues --   -0.48145  -0.47793  -0.46787  -0.46556  -0.46096
 Alpha  occ. eigenvalues --   -0.45764  -0.45723  -0.45235  -0.43829  -0.43754
 Alpha virt. eigenvalues --    0.20551   0.23252   0.23723   0.24759   0.24903
 Alpha virt. eigenvalues --    0.26524   0.26931   0.27922   0.28195   0.29535
 Alpha virt. eigenvalues --    0.30867   0.31423   0.31688   0.31838   0.32270

 Mulliken charges:
               1
     1  C   -0.299209
     2  C   -0.299618
     3  C   -0.475757
     4  H    0.150193
     5  H    0.149834
     6  H    0.151944
     7  H    0.152022
     8  H    0.155262
     9  H    0.155471
    10  H    0.160297
    11  C   -0.297783
    12  C   -0.305767
    13  C   -0.475205
    14  H    0.149420
    15  H    0.149936
    16  H    0.156082
    17  H    0.153573
    18  H    0.155667
    19  H    0.155171
    20  H    0.160127
    21  C   -0.297811
    22  C   -0.308563
    23  C   -0.475071
    24  H    0.149507
    25  H    0.149024
    26  H    0.151136
    27  H    0.162566
    28  H    0.154606
    29  H    0.154820
    30  H    0.159598
    31  C   -0.299469
    32  C   -0.299597
    33  C   -0.475670
    34  H    0.149787
    35  H    0.148935
    36  H    0.152214
    37  H    0.151973
    38  H    0.154791
    39  H    0.155218
    40  H    0.160349
 Sum of Mulliken charges =  -0.00000

 Dipole moment (field-independent basis, Debye):
    X=             -0.0478    Y=             -0.0004    Z=              0.0114  Tot=              0.0491
 Quadrupole moment (field-independent basis, Debye-Ang):
   XX=            -84.2345   YY=            -85.8332   ZZ=            -84.7269
   XY=              0.6770   XZ=             -0.2870   YZ=              0.2546

 Normal termination of Gaussian 16 at Thu May  6 03:50:41 2021.
