 Gaussian 16, Revision A.03,
 Gaussian 16:  EM64L-G16RevA.03 25-Dec-2016

 -------------
 #p 6-31g* mp2
 -------------

 ------------------------------------------------------
 Input file generated by CHIRIPA (05-May-2021 14:57:23)
 ------------------------------------------------------
 Symbolic Z-matrix:
 Charge =  0 Multiplicity = 1

                         Standard orientation:
 ---------------------------------------------------------------------
 Center     Atomic      Atomic             Coordinates (Angstroms)
 Number     Number       Type             X           Y           Z
 ---------------------------------------------------------------------
      1          6           0        5.691056    1.349498   -0.258729
      2          6           0        4.439277    1.910814    0.014209
      3          6           0        3.296707    1.106834    0.066144
      4          6           0        3.443014   -0.260784   -0.160804
      5          6           0        4.676375   -0.849740   -0.435104
      6          6           0        5.805408   -0.026562   -0.482121
      7          1           0        6.573374    1.981506   -0.297163
      8          1           0        4.347475    2.979167    0.188103
      9          1           0        2.315431    1.515178    0.275356
     10          1           0        4.736337   -1.918026   -0.604184
     11          1           0        6.776278   -0.465235   -0.694307
     12          7           0        2.240592   -1.122084   -0.108427
     13          8           0        2.396126   -2.324173   -0.311970
     14          8           0        1.165367   -0.578774    0.135178
     15          6           0       -5.766167    0.388688   -1.163817
     16          6           0       -5.312607   -0.889223   -0.820674
     17          6           0       -4.136534   -1.050668   -0.082203
     18          6           0       -3.435753    0.092743    0.298331
     19          6           0       -3.861857    1.379260   -0.028166
     20          6           0       -5.040623    1.516862   -0.767166
     21          1           0       -6.680814    0.504842   -1.737684
     22          1           0       -5.874029   -1.767170   -1.127362
     23          1           0       -3.762648   -2.028247    0.197022
     24          1           0       -3.280669    2.235551    0.291842
     25          1           0       -5.390479    2.510535   -1.032232
     26          7           0       -2.189271   -0.065551    1.080397
     27          8           0       -1.590061    0.957743    1.403588
     28          8           0       -1.835093   -1.209919    1.355382
 ---------------------------------------------------------------------

 SCF Done:  E(RHF) =  -868.335834160     A.U. after   16 cycles
 E2 =    -0.2600753012D+01 EUMP2 =    -0.87093658717223D+03

 The electronic state is 1-A.
 Alpha  occ. eigenvalues --  -20.59688 -20.59589 -20.59588 -20.59485 -15.84699
 Alpha  occ. eigenvalues --  -15.84606 -11.30362 -11.30354 -11.27008 -11.26997
 Alpha  occ. eigenvalues --  -11.26944 -11.26909 -11.26805 -11.26797 -11.26107
 Alpha  occ. eigenvalues --  -11.26077 -11.26066 -11.26038  -1.58720  -1.58568
 Alpha  occ. eigenvalues --   -1.38260  -1.38132  -1.18571  -1.18564  -1.07921
 Alpha  occ. eigenvalues --   -1.07884  -1.04035  -1.04010  -0.94720  -0.94637
 Alpha  occ. eigenvalues --   -0.85416  -0.85395  -0.81542  -0.81486  -0.76519
 Alpha  occ. eigenvalues --   -0.76475  -0.70998  -0.70836  -0.70064  -0.69817
 Alpha  occ. eigenvalues --   -0.69688  -0.69650  -0.64222  -0.64212  -0.64047
 Alpha  occ. eigenvalues --   -0.64020  -0.61383  -0.61344  -0.54535  -0.54519
 Alpha  occ. eigenvalues --   -0.52338  -0.52331  -0.52140  -0.52105  -0.47866
 Alpha  occ. eigenvalues --   -0.47708  -0.47528  -0.47385  -0.43601  -0.43421
 Alpha  occ. eigenvalues --   -0.36582  -0.36566  -0.35657  -0.35629
 Alpha virt. eigenvalues --    0.05980   0.06121   0.11993   0.12020   0.17415
 Alpha virt. eigenvalues --    0.17533   0.22043   0.22118   0.27930   0.28001
 Alpha virt. eigenvalues --    0.28956   0.29078   0.31545   0.31648   0.33235

 Mulliken charges:
               1
     1  C   -0.171865
     2  C   -0.219124
     3  C   -0.172214
     4  C    0.158066
     5  C   -0.171715
     6  C   -0.218922
     7  H    0.222490
     8  H    0.221391
     9  H    0.282976
    10  H    0.273913
    11  H    0.220470
    12  N    0.487504
    13  O   -0.466143
    14  O   -0.447409
    15  C   -0.172237
    16  C   -0.218639
    17  C   -0.170348
    18  C    0.161653
    19  C   -0.171809
    20  C   -0.218607
    21  H    0.222444
    22  H    0.221469
    23  H    0.277530
    24  H    0.272172
    25  H    0.219792
    26  N    0.491776
    27  O   -0.466879
    28  O   -0.447734
 Sum of Mulliken charges =  -0.00000

 Dipole moment (field-independent basis, Debye):
    X=             -0.2112    Y=              3.4464    Z=             -2.7981  Tot=              4.4443
 Quadrupole moment (field-independent basis, Debye-Ang):
   XX=            -47.7826   YY=            -98.6908   ZZ=           -108.0278
   XY=              5.6743   XZ=              6.3708   YZ=              0.3965

 Normal termination of Gaussian 16 at Thu May  6 11:16:53 2021.
