 Gaussian 16, Revision A.03,
 Gaussian 16:  EM64L-G16RevA.03 25-Dec-2016

 -------------
 #p 6-31g* mp2
 -------------

 ------------------------------------------------------
 Input file generated by CHIRIPA (05-May-2021 14:51:12)
 ------------------------------------------------------
 Symbolic Z-matrix:
 Charge =  0 Multiplicity = 1

                         Standard orientation:
 ---------------------------------------------------------------------
 Center     Atomic      Atomic             Coordinates (Angstroms)
 Number     Number       Type             X           Y           Z
 ---------------------------------------------------------------------
      1          6           0       -3.833879    0.681899   -0.351674
      2          6           0       -2.768432    1.232801    0.596648
      3          6           0       -1.690665    2.038628   -0.129199
      4          1           0       -3.350050    0.050595   -1.109505
      5          1           0       -4.300754    1.516906   -0.892216
      6          1           0       -2.304665    0.397119    1.136251
      7          1           0       -3.254877    1.862713    1.352425
      8          1           0       -2.134624    2.890928   -0.653686
      9          1           0       -1.179013    1.417007   -0.871088
     10          1           0       -0.939265    2.423021    0.567580
     11          6           0       -4.918233   -0.125979    0.359127
     12          6           0       -5.983681   -0.676881   -0.589195
     13          6           0       -7.061448   -1.482708    0.136652
     14          1           0       -4.451358   -0.960986    0.899669
     15          1           0       -5.402063    0.505325    1.116958
     16          1           0       -5.497236   -1.306793   -1.344972
     17          1           0       -6.447448    0.158801   -1.128798
     18          1           0       -7.573100   -0.861086    0.878541
     19          1           0       -6.617489   -2.335008    0.661139
     20          1           0       -7.812848   -1.867101   -0.560127
     21          6           0        3.702492   -0.214448   -0.358281
     22          6           0        2.506518   -0.444126    0.566317
     23          6           0        1.166071   -0.313706   -0.157551
     24          1           0        3.623083    0.784403   -0.808764
     25          1           0        3.660406   -0.935171   -1.186642
     26          1           0        2.551603    0.275910    1.393438
     27          1           0        2.588883   -1.442473    1.014799
     28          1           0        1.095398   -1.042286   -0.971663
     29          1           0        1.057906    0.685860   -0.590872
     30          1           0        0.324786   -0.481709    0.522065
     31          6           0        5.049621   -0.341472    0.350828
     32          6           0        6.245594   -0.111794   -0.573769
     33          6           0        7.586042   -0.242214    0.150098
     34          1           0        5.091706    0.379251    1.179189
     35          1           0        5.129030   -1.340324    0.801311
     36          1           0        6.163230    0.886553   -1.022252
     37          1           0        6.200510   -0.831830   -1.400891
     38          1           0        7.694207   -1.241780    0.583419
     39          1           0        7.656714    0.486366    0.964210
     40          1           0        8.427326   -0.074211   -0.529517
 ---------------------------------------------------------------------

 SCF Done:  E(RHF) =  -470.732359188     A.U. after   11 cycles
 E2 =    -0.1582957234D+01 EUMP2 =    -0.47231531642238D+03

 The electronic state is 1-A.
 Alpha  occ. eigenvalues --  -11.21597 -11.21581 -11.21579 -11.21557 -11.21397
 Alpha  occ. eigenvalues --  -11.21371 -11.21338 -11.21310 -11.21068 -11.21054
 Alpha  occ. eigenvalues --  -11.21006 -11.20925  -1.08426  -1.08387  -1.03555
 Alpha  occ. eigenvalues --   -1.03451  -0.96053  -0.95855  -0.87100  -0.86848
 Alpha  occ. eigenvalues --   -0.79655  -0.79489  -0.78241  -0.78201  -0.65083
 Alpha  occ. eigenvalues --   -0.65002  -0.61074  -0.60785  -0.59373  -0.59247
 Alpha  occ. eigenvalues --   -0.57640  -0.57486  -0.55525  -0.55008  -0.52710
 Alpha  occ. eigenvalues --   -0.52570  -0.52469  -0.52273  -0.50150  -0.49600
 Alpha  occ. eigenvalues --   -0.47943  -0.47834  -0.46728  -0.46430  -0.45802
 Alpha  occ. eigenvalues --   -0.45734  -0.45702  -0.45611  -0.43759  -0.43737
 Alpha virt. eigenvalues --    0.21732   0.22969   0.23616   0.24962   0.26376
 Alpha virt. eigenvalues --    0.26485   0.26919   0.27504   0.27742   0.29251
 Alpha virt. eigenvalues --    0.30026   0.30691   0.31381   0.32059   0.32294

 Mulliken charges:
               1
     1  C   -0.298482
     2  C   -0.301442
     3  C   -0.477775
     4  H    0.150143
     5  H    0.149469
     6  H    0.152284
     7  H    0.151639
     8  H    0.153562
     9  H    0.161836
    10  H    0.159217
    11  C   -0.298283
    12  C   -0.299634
    13  C   -0.475683
    14  H    0.149352
    15  H    0.149538
    16  H    0.151961
    17  H    0.151891
    18  H    0.155129
    19  H    0.155129
    20  H    0.160179
    21  C   -0.298577
    22  C   -0.299890
    23  C   -0.479813
    24  H    0.149835
    25  H    0.149386
    26  H    0.151768
    27  H    0.151430
    28  H    0.153745
    29  H    0.159500
    30  H    0.162613
    31  C   -0.298233
    32  C   -0.299638
    33  C   -0.475698
    34  H    0.149509
    35  H    0.149601
    36  H    0.151973
    37  H    0.151884
    38  H    0.155150
    39  H    0.155183
    40  H    0.160241
 Sum of Mulliken charges =  -0.00000

 Dipole moment (field-independent basis, Debye):
    X=              0.0118    Y=              0.0049    Z=             -0.0172  Tot=              0.0214
 Quadrupole moment (field-independent basis, Debye-Ang):
   XX=            -86.4741   YY=            -83.4935   ZZ=            -85.0410
   XY=             -0.8800   XZ=             -0.1366   YZ=              0.5778

 Normal termination of Gaussian 16 at Wed May  5 23:08:16 2021.
