 Gaussian 16, Revision A.03,
 Gaussian 16:  EM64L-G16RevA.03 25-Dec-2016

 -------------
 #p 6-31g* mp2
 -------------

 ------------------------------------------------------
 Input file generated by CHIRIPA (05-May-2021 14:53:17)
 ------------------------------------------------------
 Symbolic Z-matrix:
 Charge =  0 Multiplicity = 1

                         Standard orientation:
 ---------------------------------------------------------------------
 Center     Atomic      Atomic             Coordinates (Angstroms)
 Number     Number       Type             X           Y           Z
 ---------------------------------------------------------------------
      1          6           0       -3.137843    0.706446   -0.278971
      2          6           0       -3.593837    2.095263    0.169629
      3          6           0       -2.682493    3.210872   -0.342876
      4          1           0       -2.111236    0.533472    0.071890
      5          1           0       -3.102137    0.676735   -1.376804
      6          1           0       -3.630003    2.121917    1.266259
      7          1           0       -4.619547    2.264875   -0.182176
      8          1           0       -2.654265    3.213013   -1.437316
      9          1           0       -1.659099    3.069243    0.019349
     10          1           0       -3.026871    4.195129   -0.010459
     11          6           0       -4.038888   -0.419326    0.225495
     12          6           0       -3.582894   -1.808142   -0.223106
     13          6           0       -4.494238   -2.923751    0.289400
     14          1           0       -4.074594   -0.389615    1.323328
     15          1           0       -5.065495   -0.246351   -0.125366
     16          1           0       -2.557184   -1.977755    0.128700
     17          1           0       -3.546728   -1.834797   -1.319736
     18          1           0       -5.517632   -2.782123   -0.072826
     19          1           0       -4.522466   -2.925893    1.383840
     20          1           0       -4.149860   -3.908009   -0.043017
     21          6           0        5.323904   -0.224525    0.000639
     22          6           0        4.644840    0.046288    1.193138
     23          6           0        3.248472    0.110925    1.216120
     24          6           0        2.559739   -0.101293    0.022847
     25          6           0        3.207634   -0.373100   -1.181164
     26          6           0        4.604402   -0.432987   -1.180623
     27          1           0        6.408792   -0.272892   -0.008076
     28          1           0        5.201014    0.208602    2.112034
     29          1           0        2.697464    0.318824    2.125286
     30          1           0        2.625805   -0.530496   -2.081230
     31          1           0        5.129120   -0.643489   -2.108203
     32          7           0        1.081255   -0.035379    0.034725
     33          8           0        0.497619   -0.226064   -1.030003
     34          8           0        0.534050    0.205721    1.108538
 ---------------------------------------------------------------------

 SCF Done:  E(RHF) =  -669.537075984     A.U. after   15 cycles
 E2 =    -0.2092323778D+01 EUMP2 =    -0.67162939976251D+03

 The electronic state is 1-A.
 Alpha  occ. eigenvalues --  -20.61223 -20.61217 -15.86200 -11.31443 -11.27987
 Alpha  occ. eigenvalues --  -11.27982 -11.27708 -11.26971 -11.26961 -11.20101
 Alpha  occ. eigenvalues --  -11.20054 -11.19937 -11.19790 -11.19713 -11.19218
 Alpha  occ. eigenvalues --   -1.60247  -1.39804  -1.19595  -1.09017  -1.06762
 Alpha  occ. eigenvalues --   -1.04975  -1.02068  -0.95871  -0.94515  -0.86380
 Alpha  occ. eigenvalues --   -0.85546  -0.82707  -0.78122  -0.77776  -0.76503
 Alpha  occ. eigenvalues --   -0.72395  -0.71542  -0.70703  -0.65249  -0.64980
 Alpha  occ. eigenvalues --   -0.63395  -0.62322  -0.59477  -0.57900  -0.56134
 Alpha  occ. eigenvalues --   -0.55486  -0.53811  -0.53312  -0.53065  -0.51303
 Alpha  occ. eigenvalues --   -0.50971  -0.49298  -0.49169  -0.48419  -0.46443
 Alpha  occ. eigenvalues --   -0.45233  -0.45138  -0.44088  -0.43752  -0.42241
 Alpha  occ. eigenvalues --   -0.37569  -0.36570
 Alpha virt. eigenvalues --    0.04748   0.11086   0.16269   0.21229   0.24480
 Alpha virt. eigenvalues --    0.25671   0.27159   0.28062   0.28339   0.29099
 Alpha virt. eigenvalues --    0.29581   0.30861   0.32341   0.32719   0.33048

 Mulliken charges:
               1
     1  C   -0.312026
     2  C   -0.297350
     3  C   -0.474660
     4  H    0.185832
     5  H    0.144244
     6  H    0.148619
     7  H    0.144120
     8  H    0.152000
     9  H    0.159476
    10  H    0.152380
    11  C   -0.296853
    12  C   -0.298633
    13  C   -0.474884
    14  H    0.146009
    15  H    0.141565
    16  H    0.160536
    17  H    0.149641
    18  H    0.151318
    19  H    0.152592
    20  H    0.155444
    21  C   -0.170213
    22  C   -0.218603
    23  C   -0.170576
    24  C    0.160043
    25  C   -0.170564
    26  C   -0.218628
    27  H    0.226568
    28  H    0.224351
    29  H    0.276016
    30  H    0.276339
    31  H    0.224406
    32  N    0.488010
    33  O   -0.456275
    34  O   -0.460243
 Sum of Mulliken charges =  -0.00000

 Dipole moment (field-independent basis, Debye):
    X=              5.8174    Y=             -0.3057    Z=             -0.0431  Tot=              5.8256
 Quadrupole moment (field-independent basis, Debye-Ang):
   XX=            -70.5441   YY=            -97.3549   ZZ=            -89.3743
   XY=             -1.5903   XZ=              0.7076   YZ=              1.4494

 Normal termination of Gaussian 16 at Thu May  6 13:56:12 2021.
