 Gaussian 16, Revision A.03,
 Gaussian 16:  EM64L-G16RevA.03 25-Dec-2016

 -------------
 #p 6-31g* mp2
 -------------

 ------------------------------------------------------
 Input file generated by CHIRIPA (05-May-2021 14:57:26)
 ------------------------------------------------------
 Symbolic Z-matrix:
 Charge =  0 Multiplicity = 1

                         Standard orientation:
 ---------------------------------------------------------------------
 Center     Atomic      Atomic             Coordinates (Angstroms)
 Number     Number       Type             X           Y           Z
 ---------------------------------------------------------------------
      1          6           0        1.771156    2.070272   -1.167166
      2          6           0        2.801607    2.125313   -0.222888
      3          6           0        3.313920    0.951740    0.338191
      4          6           0        2.769900   -0.265198   -0.069723
      5          6           0        1.742931   -0.352805   -1.008313
      6          6           0        1.246033    0.833568   -1.556179
      7          1           0        1.379167    2.986903   -1.597894
      8          1           0        3.211351    3.084346    0.081105
      9          1           0        4.111391    0.965438    1.071178
     10          1           0        1.354775   -1.323649   -1.291534
     11          1           0        0.445743    0.787792   -2.289313
     12          7           0        3.304103   -1.514383    0.517272
     13          8           0        2.807685   -2.573984    0.141171
     14          8           0        4.209115   -1.410240    1.342345
     15          6           0       -1.959997    2.310842    1.047078
     16          6           0       -2.514104    1.364476    1.915339
     17          6           0       -2.917582    0.113752    1.438430
     18          6           0       -2.751644   -0.158352    0.081333
     19          6           0       -2.202899    0.763538   -0.808773
     20          6           0       -1.806433    2.007888   -0.309815
     21          1           0       -1.649288    3.279959    1.426116
     22          1           0       -2.634560    1.597006    2.969600
     23          1           0       -3.349489   -0.637420    2.088519
     24          1           0       -2.095433    0.502760   -1.854652
     25          1           0       -1.376414    2.740905   -0.986434
     26          7           0       -3.175075   -1.479063   -0.435220
     27          8           0       -3.018237   -1.694319   -1.635096
     28          8           0       -3.655784   -2.273973    0.369563
 ---------------------------------------------------------------------

 SCF Done:  E(RHF) =  -868.334377833     A.U. after   16 cycles
 E2 =    -0.2603590387D+01 EUMP2 =    -0.87093796822041D+03

 The electronic state is 1-A.
 Alpha  occ. eigenvalues --  -20.61197 -20.61160 -20.60925 -20.60901 -15.86239
 Alpha  occ. eigenvalues --  -15.85973 -11.31705 -11.31492 -11.28370 -11.28189
 Alpha  occ. eigenvalues --  -11.28077 -11.28012 -11.28008 -11.27949 -11.27416
 Alpha  occ. eigenvalues --  -11.27244 -11.27194 -11.27183  -1.60252  -1.59989
 Alpha  occ. eigenvalues --   -1.39806  -1.39537  -1.19889  -1.19684  -1.09260
 Alpha  occ. eigenvalues --   -1.09088  -1.05370  -1.05072  -0.96077  -0.95892
 Alpha  occ. eigenvalues --   -0.86720  -0.86542  -0.82929  -0.82712  -0.78009
 Alpha  occ. eigenvalues --   -0.77676  -0.72454  -0.72190  -0.71577  -0.71315
 Alpha  occ. eigenvalues --   -0.71016  -0.70864  -0.65588  -0.65459  -0.65259
 Alpha  occ. eigenvalues --   -0.65163  -0.62809  -0.62310  -0.55807  -0.55716
 Alpha  occ. eigenvalues --   -0.53992  -0.53510  -0.53173  -0.53040  -0.49223
 Alpha  occ. eigenvalues --   -0.49201  -0.48966  -0.48931  -0.45189  -0.44907
 Alpha  occ. eigenvalues --   -0.38206  -0.37734  -0.37135  -0.36001
 Alpha virt. eigenvalues --    0.04502   0.04833   0.10566   0.11043   0.16086
 Alpha virt. eigenvalues --    0.16299   0.18548   0.22245   0.24943   0.25469
 Alpha virt. eigenvalues --    0.28243   0.29031   0.30438   0.31242   0.33168

 Mulliken charges:
               1
     1  C   -0.173750
     2  C   -0.219023
     3  C   -0.171188
     4  C    0.159449
     5  C   -0.172170
     6  C   -0.210975
     7  H    0.217984
     8  H    0.222210
     9  H    0.276172
    10  H    0.282212
    11  H    0.218263
    12  N    0.487601
    13  O   -0.456092
    14  O   -0.460771
    15  C   -0.170703
    16  C   -0.217258
    17  C   -0.169741
    18  C    0.160071
    19  C   -0.174674
    20  C   -0.208653
    21  H    0.224801
    22  H    0.226050
    23  H    0.278616
    24  H    0.269092
    25  H    0.212968
    26  N    0.488206
    27  O   -0.463287
    28  O   -0.455409
 Sum of Mulliken charges =  -0.00000

 Dipole moment (field-independent basis, Debye):
    X=             -0.4286    Y=              8.8112    Z=             -0.0116  Tot=              8.8216
 Quadrupole moment (field-independent basis, Debye-Ang):
   XX=           -121.8941   YY=           -108.1273   ZZ=            -99.2050
   XY=              2.0116   XZ=            -10.4614   YZ=              0.9488

 Normal termination of Gaussian 16 at Wed May  5 16:32:08 2021.
