 Gaussian 16, Revision A.03,
 Gaussian 16:  EM64L-G16RevA.03 25-Dec-2016

 -------------
 #p 6-31g* mp2
 -------------

 ------------------------------------------------------
 Input file generated by CHIRIPA (05-May-2021 14:53:13)
 ------------------------------------------------------
 Symbolic Z-matrix:
 Charge =  0 Multiplicity = 1

                         Standard orientation:
 ---------------------------------------------------------------------
 Center     Atomic      Atomic             Coordinates (Angstroms)
 Number     Number       Type             X           Y           Z
 ---------------------------------------------------------------------
      1          6           0        4.448455   -0.483445   -0.298906
      2          6           0        4.515705   -1.723037    0.593773
      3          6           0        5.591188   -2.714472    0.148593
      4          1           0        4.255640   -0.795242   -1.334546
      5          1           0        5.428654    0.013146   -0.299332
      6          1           0        3.535278   -2.216372    0.593614
      7          1           0        4.708191   -1.408240    1.627440
      8          1           0        6.579675   -2.244167    0.166122
      9          1           0        5.400097   -3.056890   -0.873578
     10          1           0        5.621888   -3.593045    0.800535
     11          6           0        3.378046    0.517084    0.133407
     12          6           0        3.310796    1.756675   -0.759272
     13          6           0        2.235313    2.748111   -0.314092
     14          1           0        2.397846    0.020492    0.133834
     15          1           0        3.570861    0.828881    1.169047
     16          1           0        3.118310    1.441879   -1.792939
     17          1           0        4.291223    2.250011   -0.759112
     18          1           0        2.426404    3.090529    0.708080
     19          1           0        1.246826    2.277805   -0.331621
     20          1           0        2.204613    3.626684   -0.966034
     21          6           0       -1.435192    1.810116    0.705479
     22          6           0       -1.606238    1.466347   -0.639544
     23          6           0       -2.502220    0.457714   -1.006185
     24          6           0       -3.214039   -0.189406    0.002695
     25          6           0       -3.065686    0.130355    1.351410
     26          6           0       -2.164177    1.142200    1.694919
     27          1           0       -0.737025    2.594894    0.981311
     28          1           0       -1.041439    1.983363   -1.410090
     29          1           0       -2.654107    0.171511   -2.039837
     30          1           0       -3.642824   -0.402906    2.097040
     31          1           0       -2.033382    1.407072    2.740281
     32          7           0       -4.165501   -1.258901   -0.373207
     33          8           0       -4.780696   -1.813923    0.534604
     34          8           0       -4.278044   -1.521896   -1.568534
 ---------------------------------------------------------------------

 SCF Done:  E(RHF) =  -669.534941173     A.U. after   15 cycles
 E2 =    -0.2092055107D+01 EUMP2 =    -0.67162699628037D+03

 The electronic state is 1-A.
 Alpha  occ. eigenvalues --  -20.60770 -20.60765 -15.85824 -11.31192 -11.27768
 Alpha  occ. eigenvalues --  -11.27763 -11.27455 -11.26761 -11.26751 -11.22398
 Alpha  occ. eigenvalues --  -11.22175 -11.21988 -11.21945 -11.21817 -11.21331
 Alpha  occ. eigenvalues --   -1.59846  -1.39399  -1.19367  -1.09002  -1.08757
 Alpha  occ. eigenvalues --   -1.04772  -1.04141  -0.96623  -0.95589  -0.87652
 Alpha  occ. eigenvalues --   -0.86167  -0.82424  -0.80227  -0.78771  -0.77474
 Alpha  occ. eigenvalues --   -0.72043  -0.71170  -0.70481  -0.65648  -0.65019
 Alpha  occ. eigenvalues --   -0.64786  -0.62151  -0.61504  -0.59996  -0.58208
 Alpha  occ. eigenvalues --   -0.55938  -0.55256  -0.53313  -0.53189  -0.52936
 Alpha  occ. eigenvalues --   -0.52842  -0.50551  -0.48801  -0.48798  -0.48519
 Alpha  occ. eigenvalues --   -0.47232  -0.46324  -0.46213  -0.44805  -0.44370
 Alpha  occ. eigenvalues --   -0.37311  -0.36372
 Alpha virt. eigenvalues --    0.05048   0.11146   0.16526   0.20725   0.22460
 Alpha virt. eigenvalues --    0.23910   0.26013   0.26209   0.27117   0.27525
 Alpha virt. eigenvalues --    0.29223   0.30250   0.30915   0.31251   0.31958

 Mulliken charges:
               1
     1  C   -0.298774
     2  C   -0.300297
     3  C   -0.476071
     4  H    0.150871
     5  H    0.150196
     6  H    0.153597
     7  H    0.151692
     8  H    0.155280
     9  H    0.156223
    10  H    0.161749
    11  C   -0.299902
    12  C   -0.298616
    13  C   -0.486045
    14  H    0.151796
    15  H    0.149127
    16  H    0.153164
    17  H    0.155164
    18  H    0.155445
    19  H    0.152021
    20  H    0.161806
    21  C   -0.171675
    22  C   -0.221002
    23  C   -0.171556
    24  C    0.158086
    25  C   -0.170806
    26  C   -0.219800
    27  H    0.230920
    28  H    0.225222
    29  H    0.275591
    30  H    0.275642
    31  H    0.223701
    32  N    0.488130
    33  O   -0.460385
    34  O   -0.460493
 Sum of Mulliken charges =  -0.00000

 Dipole moment (field-independent basis, Debye):
    X=              3.4732    Y=              3.7082    Z=              1.3359  Tot=              5.2534
 Quadrupole moment (field-independent basis, Debye-Ang):
   XX=           -116.4358   YY=            -97.3251   ZZ=            -89.7679
   XY=            -11.8602   XZ=             -5.0836   YZ=             -0.8124

 Normal termination of Gaussian 16 at Thu May  6 02:34:19 2021.
