 Gaussian 16, Revision A.03,
 Gaussian 16:  EM64L-G16RevA.03 25-Dec-2016

 -------------
 #p 6-31g* mp2
 -------------

 ------------------------------------------------------
 Input file generated by CHIRIPA (05-May-2021 14:57:21)
 ------------------------------------------------------
 Symbolic Z-matrix:
 Charge =  0 Multiplicity = 1

                         Standard orientation:
 ---------------------------------------------------------------------
 Center     Atomic      Atomic             Coordinates (Angstroms)
 Number     Number       Type             X           Y           Z
 ---------------------------------------------------------------------
      1          6           0       -3.613448    2.550252    0.096129
      2          6           0       -4.085545    1.574495    0.980179
      3          6           0       -3.702460    0.238028    0.833038
      4          6           0       -2.842138   -0.088915   -0.213979
      5          6           0       -2.354788    0.860326   -1.111041
      6          6           0       -2.751097    2.190687   -0.944824
      7          1           0       -3.916174    3.586079    0.217842
      8          1           0       -4.755364    1.850843    1.789512
      9          1           0       -4.052952   -0.537601    1.503092
     10          1           0       -1.688190    0.554346   -1.908186
     11          1           0       -2.382889    2.946352   -1.632893
     12          7           0       -2.429583   -1.500541   -0.379848
     13          8           0       -1.670701   -1.762826   -1.310408
     14          8           0       -2.872917   -2.317958    0.423844
     15          6           0        4.594966    1.683901   -0.245788
     16          6           0        4.004611    1.560374    1.016253
     17          6           0        3.069853    0.551507    1.267171
     18          6           0        2.747249   -0.320427    0.228447
     19          6           0        3.318120   -0.223154   -1.039596
     20          6           0        4.250443    0.793313   -1.267882
     21          1           0        5.320163    2.470567   -0.431916
     22          1           0        4.270262    2.250594    1.811910
     23          1           0        2.597543    0.433109    2.234810
     24          1           0        3.033179   -0.926191   -1.812879
     25          1           0        4.707318    0.886860   -2.248983
     26          7           0        1.758950   -1.392492    0.482104
     27          8           0        1.491729   -2.148012   -0.449788
     28          8           0        1.270257   -1.456960    1.608008
 ---------------------------------------------------------------------

 SCF Done:  E(RHF) =  -868.335145584     A.U. after   16 cycles
 E2 =    -0.2601164792D+01 EUMP2 =    -0.87093631037582D+03

 The electronic state is 1-A.
 Alpha  occ. eigenvalues --  -20.60168 -20.60037 -20.59686 -20.59624 -15.85156
 Alpha  occ. eigenvalues --  -15.84721 -11.30874 -11.30518 -11.27494 -11.27460
 Alpha  occ. eigenvalues --  -11.27293 -11.27162 -11.27112 -11.26976 -11.26581
 Alpha  occ. eigenvalues --  -11.26562 -11.26283 -11.26240  -1.59176  -1.58706
 Alpha  occ. eigenvalues --   -1.38718  -1.38258  -1.19081  -1.18732  -1.08412
 Alpha  occ. eigenvalues --   -1.08048  -1.04531  -1.04204  -0.95184  -0.94809
 Alpha  occ. eigenvalues --   -0.85911  -0.85583  -0.82012  -0.81647  -0.77004
 Alpha  occ. eigenvalues --   -0.76619  -0.71379  -0.70941  -0.70580  -0.70181
 Alpha  occ. eigenvalues --   -0.69956  -0.69847  -0.64720  -0.64533  -0.64378
 Alpha  occ. eigenvalues --   -0.64220  -0.61869  -0.61551  -0.55022  -0.54702
 Alpha  occ. eigenvalues --   -0.52853  -0.52623  -0.52505  -0.52309  -0.48167
 Alpha  occ. eigenvalues --   -0.48116  -0.47693  -0.47663  -0.44187  -0.43384
 Alpha  occ. eigenvalues --   -0.37088  -0.36734  -0.36157  -0.35828
 Alpha virt. eigenvalues --    0.05507   0.05971   0.11492   0.11819   0.16935
 Alpha virt. eigenvalues --    0.17381   0.21610   0.21877   0.27499   0.27751
 Alpha virt. eigenvalues --    0.28536   0.28813   0.31122   0.31398   0.32793

 Mulliken charges:
               1
     1  C   -0.172587
     2  C   -0.218630
     3  C   -0.169852
     4  C    0.161724
     5  C   -0.173259
     6  C   -0.218633
     7  H    0.222162
     8  H    0.221346
     9  H    0.276579
    10  H    0.273626
    11  H    0.219351
    12  N    0.489541
    13  O   -0.452794
    14  O   -0.458690
    15  C   -0.172326
    16  C   -0.218895
    17  C   -0.172140
    18  C    0.158341
    19  C   -0.172516
    20  C   -0.219215
    21  H    0.223666
    22  H    0.221523
    23  H    0.274913
    24  H    0.278178
    25  H    0.222239
    26  N    0.484989
    27  O   -0.444340
    28  O   -0.464297
 Sum of Mulliken charges =  -0.00000

 Dipole moment (field-independent basis, Debye):
    X=              2.0299    Y=              8.3572    Z=             -0.3738  Tot=              8.6083
 Quadrupole moment (field-independent basis, Debye-Ang):
   XX=            -78.1807   YY=           -108.5866   ZZ=            -98.3771
   XY=             -3.9105   XZ=             -6.4546   YZ=              0.8360

 Normal termination of Gaussian 16 at Thu May  6 11:09:52 2021.
