 Gaussian 16, Revision A.03,
 Gaussian 16:  EM64L-G16RevA.03 25-Dec-2016

 -------------
 #p 6-31g* mp2
 -------------

 ------------------------------------------------------
 Input file generated by CHIRIPA (05-May-2021 14:53:15)
 ------------------------------------------------------
 Symbolic Z-matrix:
 Charge =  0 Multiplicity = 1

                         Standard orientation:
 ---------------------------------------------------------------------
 Center     Atomic      Atomic             Coordinates (Angstroms)
 Number     Number       Type             X           Y           Z
 ---------------------------------------------------------------------
      1          6           0       -3.289508    0.945590    0.664211
      2          6           0       -1.897650    1.203938    1.242116
      3          6           0       -1.820751    2.506847    2.038551
      4          1           0       -3.574126    1.788413    0.019549
      5          1           0       -4.020245    0.918737    1.484392
      6          1           0       -1.169556    1.228919    0.421220
      7          1           0       -1.616233    0.360313    1.885325
      8          1           0       -2.525081    2.488275    2.876510
      9          1           0       -2.075866    3.361816    1.404086
     10          1           0       -0.817051    2.671750    2.442597
     11          6           0       -3.382266   -0.353239   -0.134642
     12          6           0       -4.774123   -0.611586   -0.712547
     13          6           0       -4.851022   -1.914495   -1.508982
     14          1           0       -2.651528   -0.326386   -0.954823
     15          1           0       -3.097648   -1.196061    0.510020
     16          1           0       -5.055540    0.232039   -1.355756
     17          1           0       -5.502218   -0.636567    0.108349
     18          1           0       -4.595908   -2.769465   -0.874517
     19          1           0       -4.146692   -1.895924   -2.346941
     20          1           0       -5.854722   -2.079399   -1.913028
     21          6           0        2.587296   -2.300410    1.236991
     22          6           0        3.794741   -1.650571    0.960754
     23          6           0        3.817107   -0.503406    0.161968
     24          6           0        2.607985   -0.031362   -0.346449
     25          6           0        1.388859   -0.656529   -0.089185
     26          6           0        1.390318   -1.802193    0.712066
     27          1           0        2.579176   -3.190972    1.858464
     28          1           0        4.725860   -2.035242    1.367070
     29          1           0        4.737649    0.019337   -0.067730
     30          1           0        0.476797   -0.249350   -0.508428
     31          1           0        0.451110   -2.304805    0.924934
     32          7           0        2.619052    1.182296   -1.193393
     33          8           0        1.540202    1.578139   -1.629314
     34          8           0        3.706366    1.714736   -1.405268
 ---------------------------------------------------------------------

 SCF Done:  E(RHF) =  -669.535754745     A.U. after   15 cycles
 E2 =    -0.2091921770D+01 EUMP2 =    -0.67162767651491D+03

 The electronic state is 1-A.
 Alpha  occ. eigenvalues --  -20.60793 -20.60786 -15.85835 -11.31150 -11.27732
 Alpha  occ. eigenvalues --  -11.27686 -11.27470 -11.26740 -11.26715 -11.21856
 Alpha  occ. eigenvalues --  -11.21799 -11.21765 -11.21558 -11.21316 -11.21067
 Alpha  occ. eigenvalues --   -1.59860  -1.39416  -1.19328  -1.08734  -1.08682
 Alpha  occ. eigenvalues --   -1.04723  -1.03717  -0.96159  -0.95575  -0.87176
 Alpha  occ. eigenvalues --   -0.86129  -0.82407  -0.79813  -0.78553  -0.77441
 Alpha  occ. eigenvalues --   -0.72057  -0.71178  -0.70447  -0.65321  -0.64981
 Alpha  occ. eigenvalues --   -0.64715  -0.62096  -0.61087  -0.59530  -0.57783
 Alpha  occ. eigenvalues --   -0.55438  -0.55239  -0.53063  -0.52885  -0.52784
 Alpha  occ. eigenvalues --   -0.52579  -0.50091  -0.48817  -0.48811  -0.48108
 Alpha  occ. eigenvalues --   -0.46824  -0.46051  -0.45960  -0.44819  -0.43991
 Alpha  occ. eigenvalues --   -0.37315  -0.36309
 Alpha virt. eigenvalues --    0.05045   0.11285   0.16541   0.20138   0.22927
 Alpha virt. eigenvalues --    0.24147   0.24709   0.25554   0.27745   0.28213
 Alpha virt. eigenvalues --    0.30284   0.30432   0.31518   0.31661   0.31927

 Mulliken charges:
               1
     1  C   -0.297529
     2  C   -0.308845
     3  C   -0.474610
     4  H    0.154889
     5  H    0.149785
     6  H    0.160776
     7  H    0.144924
     8  H    0.153678
     9  H    0.160311
    10  H    0.161972
    11  C   -0.300650
    12  C   -0.299581
    13  C   -0.476248
    14  H    0.149523
    15  H    0.142659
    16  H    0.155566
    17  H    0.152657
    18  H    0.152538
    19  H    0.156419
    20  H    0.161971
    21  C   -0.170658
    22  C   -0.218813
    23  C   -0.170617
    24  C    0.156928
    25  C   -0.171838
    26  C   -0.221209
    27  H    0.225414
    28  H    0.223234
    29  H    0.275361
    30  H    0.281854
    31  H    0.224420
    32  N    0.488317
    33  O   -0.462673
    34  O   -0.459924
 Sum of Mulliken charges =  -0.00000

 Dipole moment (field-independent basis, Debye):
    X=             -0.1116    Y=             -4.1518    Z=              2.9474  Tot=              5.0929
 Quadrupole moment (field-independent basis, Debye-Ang):
   XX=            -89.6136   YY=            -95.5145   ZZ=            -97.2845
   XY=            -11.2940   XZ=              8.3592   YZ=              0.4151

 Normal termination of Gaussian 16 at Thu May  6 09:00:00 2021.
