 Gaussian 16, Revision A.03,
 Gaussian 16:  EM64L-G16RevA.03 25-Dec-2016

 -------------
 #p 6-31g* mp2
 -------------

 ------------------------------------------------------
 Input file generated by CHIRIPA (05-May-2021 14:53:13)
 ------------------------------------------------------
 Symbolic Z-matrix:
 Charge =  0 Multiplicity = 1

                         Standard orientation:
 ---------------------------------------------------------------------
 Center     Atomic      Atomic             Coordinates (Angstroms)
 Number     Number       Type             X           Y           Z
 ---------------------------------------------------------------------
      1          6           0        2.664200    0.851735   -0.797829
      2          6           0        2.049537    2.150741   -0.275569
      3          6           0        2.000938    3.250288   -1.336903
      4          1           0        3.679892    1.055304   -1.163718
      5          1           0        2.084470    0.501928   -1.663244
      6          1           0        2.629427    2.497258    0.589457
      7          1           0        1.035261    1.944018    0.089296
      8          1           0        1.405415    2.928938   -2.197535
      9          1           0        3.008639    3.485321   -1.694532
     10          1           0        1.557933    4.169966   -0.942188
     11          6           0        2.719723   -0.257012    0.251613
     12          6           0        3.334387   -1.556018   -0.270647
     13          6           0        3.382986   -2.655565    0.790687
     14          1           0        3.299453    0.092795    1.117028
     15          1           0        1.704032   -0.460581    0.617502
     16          1           0        4.348663   -1.349295   -0.635511
     17          1           0        2.754497   -1.902535   -1.135673
     18          1           0        2.375285   -2.890597    1.148316
     19          1           0        3.978508   -2.334214    1.651319
     20          1           0        3.825991   -3.575243    0.395972
     21          6           0       -1.458587    0.792461    2.427043
     22          6           0       -0.751592   -0.308796    1.933169
     23          6           0       -1.099926   -0.884704    0.707794
     24          6           0       -2.165404   -0.331385   -0.000645
     25          6           0       -2.889095    0.765376    0.464840
     26          6           0       -2.523206    1.325092    1.692598
     27          1           0       -1.181173    1.233551    3.379869
     28          1           0        0.075647   -0.724540    2.501393
     29          1           0       -0.569619   -1.737655    0.302003
     30          1           0       -3.709078    1.157741   -0.124309
     31          1           0       -3.074052    2.180301    2.073690
     32          7           0       -2.543463   -0.932502   -1.299155
     33          8           0       -3.486076   -0.426397   -1.904114
     34          8           0       -1.890014   -1.898381   -1.687381
 ---------------------------------------------------------------------

 SCF Done:  E(RHF) =  -669.534389541     A.U. after   15 cycles
 E2 =    -0.2094417108D+01 EUMP2 =    -0.67162880664918D+03

 The electronic state is 1-A.
 Alpha  occ. eigenvalues --  -20.60859 -20.60853 -15.85913 -11.31297 -11.27861
 Alpha  occ. eigenvalues --  -11.27850 -11.27593 -11.26879 -11.26858 -11.21877
 Alpha  occ. eigenvalues --  -11.21739 -11.21684 -11.21550 -11.21529 -11.21168
 Alpha  occ. eigenvalues --   -1.59934  -1.39487  -1.19479  -1.08865  -1.08684
 Alpha  occ. eigenvalues --   -1.04891  -1.03783  -0.96248  -0.95692  -0.87263
 Alpha  occ. eigenvalues --   -0.86269  -0.82543  -0.79845  -0.78543  -0.77549
 Alpha  occ. eigenvalues --   -0.72130  -0.71260  -0.70573  -0.65409  -0.65077
 Alpha  occ. eigenvalues --   -0.64873  -0.62244  -0.61154  -0.59612  -0.57858
 Alpha  occ. eigenvalues --   -0.55570  -0.55360  -0.53276  -0.52978  -0.52896
 Alpha  occ. eigenvalues --   -0.52659  -0.50198  -0.48890  -0.48885  -0.48166
 Alpha  occ. eigenvalues --   -0.46878  -0.46039  -0.45946  -0.44886  -0.44027
 Alpha  occ. eigenvalues --   -0.37441  -0.36363
 Alpha virt. eigenvalues --    0.04929   0.11129   0.16297   0.19655   0.22891
 Alpha virt. eigenvalues --    0.23646   0.25883   0.26740   0.27931   0.28073
 Alpha virt. eigenvalues --    0.29045   0.30302   0.31346   0.31511   0.31989

 Mulliken charges:
               1
     1  C   -0.298295
     2  C   -0.303610
     3  C   -0.475903
     4  H    0.150509
     5  H    0.154712
     6  H    0.148155
     7  H    0.155476
     8  H    0.158479
     9  H    0.155436
    10  H    0.158502
    11  C   -0.305489
    12  C   -0.301904
    13  C   -0.474903
    14  H    0.146157
    15  H    0.148949
    16  H    0.154280
    17  H    0.158422
    18  H    0.145784
    19  H    0.154510
    20  H    0.165129
    21  C   -0.171957
    22  C   -0.216947
    23  C   -0.171524
    24  C    0.157585
    25  C   -0.171396
    26  C   -0.218543
    27  H    0.226683
    28  H    0.226737
    29  H    0.277113
    30  H    0.276052
    31  H    0.224151
    32  N    0.488007
    33  O   -0.459899
    34  O   -0.460459
 Sum of Mulliken charges =  -0.00000

 Dipole moment (field-independent basis, Debye):
    X=              1.2800    Y=              2.1227    Z=              4.5078  Tot=              5.1444
 Quadrupole moment (field-independent basis, Debye-Ang):
   XX=            -97.2731   YY=            -95.0828   ZZ=            -95.5500
   XY=             -7.7733   XZ=             -9.7144   YZ=             -1.0681

 Normal termination of Gaussian 16 at Thu May  6 13:44:02 2021.
