 Gaussian 16, Revision A.03,
 Gaussian 16:  EM64L-G16RevA.03 25-Dec-2016

 -------------
 #p 6-31g* mp2
 -------------

 ------------------------------------------------------
 Input file generated by CHIRIPA (05-May-2021 14:51:09)
 ------------------------------------------------------
 Symbolic Z-matrix:
 Charge =  0 Multiplicity = 1

                         Standard orientation:
 ---------------------------------------------------------------------
 Center     Atomic      Atomic             Coordinates (Angstroms)
 Number     Number       Type             X           Y           Z
 ---------------------------------------------------------------------
      1          6           0       -2.911001    0.103498    0.440960
      2          6           0       -2.001147   -0.813827    1.258679
      3          6           0       -0.670564   -0.154617    1.623075
      4          1           0       -2.387052    0.406500   -0.475889
      5          1           0       -3.100534    1.023440    1.011206
      6          1           0       -1.814509   -1.732359    0.687643
      7          1           0       -2.527395   -1.114835    2.173597
      8          1           0       -0.838659    0.751500    2.214088
      9          1           0       -0.121723    0.130468    0.719692
     10          1           0       -0.035706   -0.827908    2.207451
     11          6           0       -4.244973   -0.541391    0.068987
     12          6           0       -5.154827    0.375935   -0.748732
     13          6           0       -6.485410   -0.283276   -1.113128
     14          1           0       -4.055439   -1.461332   -0.501259
     15          1           0       -4.768921   -0.844393    0.985836
     16          1           0       -4.628579    0.676942   -1.663649
     17          1           0       -5.341464    1.294466   -0.177696
     18          1           0       -7.034251   -0.568361   -0.209745
     19          1           0       -6.317314   -1.189393   -1.704141
     20          1           0       -7.120267    0.390015   -1.697503
     21          6           0        4.020240   -0.321334   -0.564716
     22          6           0        3.784096   -1.711241    0.027214
     23          6           0        4.676226   -2.781380   -0.602627
     24          1           0        3.843765   -0.356505   -1.648489
     25          1           0        5.075497   -0.046923   -0.428605
     26          1           0        2.729287   -1.982371   -0.108739
     27          1           0        3.960967   -1.672713    1.109734
     28          1           0        5.733258   -2.537630   -0.454739
     29          1           0        4.494580   -2.849047   -1.680136
     30          1           0        4.490907   -3.767179   -0.164771
     31          6           0        3.135733    0.759227    0.054768
     32          6           0        3.371878    2.149134   -0.537161
     33          6           0        2.479747    3.219272    0.092679
     34          1           0        2.080477    0.484815   -0.081342
     35          1           0        3.312209    0.794398    1.138543
     36          1           0        3.195007    2.110606   -1.619681
     37          1           0        4.426687    2.420264   -0.401208
     38          1           0        2.661394    3.286940    1.170189
     39          1           0        1.422715    2.975522   -0.055207
     40          1           0        2.665067    4.205071   -0.345176
 ---------------------------------------------------------------------

 SCF Done:  E(RHF) =  -470.733191925     A.U. after   11 cycles
 E2 =    -0.1582740241D+01 EUMP2 =    -0.47231593216639D+03

 The electronic state is 1-A.
 Alpha  occ. eigenvalues --  -11.21612 -11.21603 -11.21577 -11.21563 -11.21420
 Alpha  occ. eigenvalues --  -11.21360 -11.21360 -11.21287 -11.21080 -11.21057
 Alpha  occ. eigenvalues --  -11.21043 -11.21028  -1.08443  -1.08393  -1.03537
 Alpha  occ. eigenvalues --   -1.03496  -0.95992  -0.95938  -0.87015  -0.86949
 Alpha  occ. eigenvalues --   -0.79628  -0.79537  -0.78285  -0.78171  -0.65116
 Alpha  occ. eigenvalues --   -0.64997  -0.60966  -0.60872  -0.59355  -0.59310
 Alpha  occ. eigenvalues --   -0.57605  -0.57548  -0.55361  -0.55164  -0.52697
 Alpha  occ. eigenvalues --   -0.52629  -0.52458  -0.52324  -0.50024  -0.49820
 Alpha  occ. eigenvalues --   -0.48010  -0.47808  -0.46736  -0.46557  -0.45898
 Alpha  occ. eigenvalues --   -0.45740  -0.45714  -0.45412  -0.43788  -0.43746
 Alpha virt. eigenvalues --    0.21479   0.23090   0.23851   0.24446   0.25730
 Alpha virt. eigenvalues --    0.26825   0.26959   0.27549   0.28029   0.29464
 Alpha virt. eigenvalues --    0.30744   0.31583   0.31719   0.31886   0.32173

 Mulliken charges:
               1
     1  C   -0.298298
     2  C   -0.299604
     3  C   -0.480168
     4  H    0.148989
     5  H    0.149755
     6  H    0.151548
     7  H    0.151993
     8  H    0.155571
     9  H    0.158966
    10  H    0.161017
    11  C   -0.298260
    12  C   -0.299665
    13  C   -0.475714
    14  H    0.149459
    15  H    0.149778
    16  H    0.151838
    17  H    0.152021
    18  H    0.155228
    19  H    0.155161
    20  H    0.160294
    21  C   -0.297803
    22  C   -0.299746
    23  C   -0.475667
    24  H    0.149073
    25  H    0.149402
    26  H    0.152028
    27  H    0.151947
    28  H    0.155189
    29  H    0.154998
    30  H    0.160121
    31  C   -0.304617
    32  C   -0.299351
    33  C   -0.476026
    34  H    0.156618
    35  H    0.149931
    36  H    0.151293
    37  H    0.151759
    38  H    0.155381
    39  H    0.155629
    40  H    0.159933
 Sum of Mulliken charges =  -0.00000

 Dipole moment (field-independent basis, Debye):
    X=             -0.0096    Y=              0.0021    Z=              0.0218  Tot=              0.0239
 Quadrupole moment (field-independent basis, Debye-Ang):
   XX=            -85.5265   YY=            -85.5869   ZZ=            -83.7505
   XY=              0.1378   XZ=              0.0560   YZ=              0.0321

 Normal termination of Gaussian 16 at Thu May  6 02:09:27 2021.
