 Gaussian 16, Revision A.03,
 Gaussian 16:  EM64L-G16RevA.03 25-Dec-2016

 -------------
 #p 6-31g* mp2
 -------------

 ------------------------------------------------------
 Input file generated by CHIRIPA (05-May-2021 14:57:21)
 ------------------------------------------------------
 Symbolic Z-matrix:
 Charge =  0 Multiplicity = 1

                         Standard orientation:
 ---------------------------------------------------------------------
 Center     Atomic      Atomic             Coordinates (Angstroms)
 Number     Number       Type             X           Y           Z
 ---------------------------------------------------------------------
      1          6           0       -2.880396   -2.293667    0.502585
      2          6           0       -3.167961   -1.866856   -0.798054
      3          6           0       -3.232563   -0.503305   -1.099887
      4          6           0       -3.003230    0.410194   -0.072163
      5          6           0       -2.714499    0.016224    1.233483
      6          6           0       -2.654980   -1.352424    1.512421
      7          1           0       -2.832186   -3.354886    0.728163
      8          1           0       -3.343461   -2.595592   -1.584304
      9          1           0       -3.453226   -0.145288   -2.098160
     10          1           0       -2.544178    0.766331    1.996208
     11          1           0       -2.431448   -1.680999    2.523419
     12          7           0       -3.068930    1.856423   -0.379582
     13          8           0       -2.862982    2.641235    0.543615
     14          8           0       -3.325131    2.177779   -1.537912
     15          6           0        5.235320    0.975464   -0.116111
     16          6           0        4.953850   -0.113421   -0.947751
     17          6           0        3.714459   -0.756760   -0.880124
     18          6           0        2.775564   -0.282755    0.034800
     19          6           0        3.026100    0.799669    0.876750
     20          6           0        4.272245    1.427736    0.791885
     21          1           0        6.200733    1.469292   -0.175341
     22          1           0        5.699878   -0.466825   -1.653862
     23          1           0        3.470170   -1.601907   -1.512158
     24          1           0        2.262306    1.129161    1.570632
     25          1           0        4.488073    2.273151    1.438984
     26          7           0        1.459902   -0.955745    0.115519
     27          8           0        0.649718   -0.518898    0.930015
     28          8           0        1.263781   -1.907339   -0.637237
 ---------------------------------------------------------------------

 SCF Done:  E(RHF) =  -868.338418009     A.U. after   16 cycles
 E2 =    -0.2600223592D+01 EUMP2 =    -0.87093864160111D+03

 The electronic state is 1-A.
 Alpha  occ. eigenvalues --  -20.61078 -20.61071 -20.59705 -20.59700 -15.86119
 Alpha  occ. eigenvalues --  -15.84744 -11.31332 -11.29694 -11.27898 -11.27872
 Alpha  occ. eigenvalues --  -11.27603 -11.26878 -11.26850 -11.26283 -11.26219
 Alpha  occ. eigenvalues --  -11.25930 -11.25240 -11.25149  -1.60147  -1.58787
 Alpha  occ. eigenvalues --   -1.39709  -1.38353  -1.19492  -1.17827  -1.08917
 Alpha  occ. eigenvalues --   -1.07316  -1.04873  -1.03200  -0.95779  -0.94227
 Alpha  occ. eigenvalues --   -0.86280  -0.84650  -0.82621  -0.81097  -0.77682
 Alpha  occ. eigenvalues --   -0.76185  -0.72365  -0.71461  -0.70988  -0.70603
 Alpha  occ. eigenvalues --   -0.70094  -0.69019  -0.65152  -0.64877  -0.63527
 Alpha  occ. eigenvalues --   -0.63277  -0.62224  -0.60617  -0.55386  -0.53774
 Alpha  occ. eigenvalues --   -0.53210  -0.52967  -0.51584  -0.51363  -0.49105
 Alpha  occ. eigenvalues --   -0.48968  -0.47753  -0.47703  -0.45151  -0.43852
 Alpha  occ. eigenvalues --   -0.37466  -0.36468  -0.35751  -0.34661
 Alpha virt. eigenvalues --    0.04832   0.06363   0.11188   0.12914   0.16379
 Alpha virt. eigenvalues --    0.17955   0.21337   0.22782   0.27252   0.28202
 Alpha virt. eigenvalues --    0.28658   0.29634   0.30906   0.32268   0.32435

 Mulliken charges:
               1
     1  C   -0.163859
     2  C   -0.214172
     3  C   -0.172673
     4  C    0.156757
     5  C   -0.157188
     6  C   -0.201996
     7  H    0.221128
     8  H    0.218052
     9  H    0.269379
    10  H    0.268893
    11  H    0.218017
    12  N    0.487934
    13  O   -0.465881
    14  O   -0.465790
    15  C   -0.170171
    16  C   -0.218477
    17  C   -0.170678
    18  C    0.157926
    19  C   -0.169819
    20  C   -0.218240
    21  H    0.226543
    22  H    0.223713
    23  H    0.274542
    24  H    0.276194
    25  H    0.225129
    26  N    0.490053
    27  O   -0.462988
    28  O   -0.462329
 Sum of Mulliken charges =  -0.00000

 Dipole moment (field-independent basis, Debye):
    X=              5.1994    Y=             -2.8545    Z=              0.9386  Tot=              6.0053
 Quadrupole moment (field-independent basis, Debye-Ang):
   XX=            -81.9196   YY=           -109.4737   ZZ=            -98.4953
   XY=             20.7814   XZ=             -4.2949   YZ=              4.8120

 Normal termination of Gaussian 16 at Thu May  6 01:41:05 2021.
