 Gaussian 16, Revision A.03,
 Gaussian 16:  EM64L-G16RevA.03 25-Dec-2016

 -------------
 #p 6-31g* mp2
 -------------

 ------------------------------------------------------
 Input file generated by CHIRIPA (05-May-2021 14:57:26)
 ------------------------------------------------------
 Symbolic Z-matrix:
 Charge =  0 Multiplicity = 1

                         Standard orientation:
 ---------------------------------------------------------------------
 Center     Atomic      Atomic             Coordinates (Angstroms)
 Number     Number       Type             X           Y           Z
 ---------------------------------------------------------------------
      1          6           0       -3.636991    2.428093    0.882760
      2          6           0       -2.427250    2.135760    0.244333
      3          6           0       -2.210456    0.877010   -0.324084
      4          6           0       -3.229605   -0.069956   -0.235310
      5          6           0       -4.445748    0.191025    0.394115
      6          6           0       -4.640610    1.456505    0.955485
      7          1           0       -3.796883    3.408534    1.321583
      8          1           0       -1.646049    2.888360    0.186344
      9          1           0       -1.283487    0.623979   -0.824207
     10          1           0       -5.205758   -0.579720    0.436018
     11          1           0       -5.581114    1.680735    1.450680
     12          7           0       -3.011704   -1.406100   -0.833337
     13          8           0       -3.925389   -2.223058   -0.741701
     14          8           0       -1.931355   -1.611112   -1.382384
     15          6           0        4.955482    1.398568   -0.917333
     16          6           0        3.660941    1.314735   -1.440456
     17          6           0        2.716375    0.459983   -0.864487
     18          6           0        3.102138   -0.299991    0.238652
     19          6           0        4.384097   -0.238617    0.782808
     20          6           0        5.312298    0.622992    0.190676
     21          1           0        5.682888    2.065223   -1.371037
     22          1           0        3.381035    1.915879   -2.300877
     23          1           0        1.707282    0.375538   -1.249217
     24          1           0        4.633634   -0.850294    1.641295
     25          1           0        6.316932    0.686048    0.599063
     26          7           0        2.110830   -1.208509    0.856959
     27          8           0        2.475583   -1.867555    1.828170
     28          8           0        0.987861   -1.244357    0.358670
 ---------------------------------------------------------------------

 SCF Done:  E(RHF) =  -868.336496770     A.U. after   16 cycles
 E2 =    -0.2600699695D+01 EUMP2 =    -0.87093719646511D+03

 The electronic state is 1-A.
 Alpha  occ. eigenvalues --  -20.60644 -20.60604 -20.59937 -20.59852 -15.85668
 Alpha  occ. eigenvalues --  -15.84950 -11.31226 -11.30521 -11.27849 -11.27788
 Alpha  occ. eigenvalues --  -11.27569 -11.27147 -11.27138 -11.26966 -11.26877
 Alpha  occ. eigenvalues --  -11.26840 -11.26237 -11.26210  -1.59696  -1.58957
 Alpha  occ. eigenvalues --   -1.39244  -1.38504  -1.19410  -1.18731  -1.08766
 Alpha  occ. eigenvalues --   -1.08094  -1.04842  -1.04182  -0.95572  -0.94892
 Alpha  occ. eigenvalues --   -0.86229  -0.85568  -0.82399  -0.81731  -0.77441
 Alpha  occ. eigenvalues --   -0.76718  -0.71891  -0.71164  -0.71028  -0.70517
 Alpha  occ. eigenvalues --   -0.70255  -0.69862  -0.65056  -0.64847  -0.64394
 Alpha  occ. eigenvalues --   -0.64209  -0.62200  -0.61526  -0.55327  -0.54701
 Alpha  occ. eigenvalues --   -0.53157  -0.52939  -0.52481  -0.52294  -0.48662
 Alpha  occ. eigenvalues --   -0.48637  -0.47959  -0.47902  -0.44604  -0.43849
 Alpha  occ. eigenvalues --   -0.37392  -0.36727  -0.36455  -0.35782
 Alpha virt. eigenvalues --    0.05104   0.05831   0.11189   0.11870   0.16573
 Alpha virt. eigenvalues --    0.17263   0.20207   0.22071   0.25110   0.27576
 Alpha virt. eigenvalues --    0.28132   0.29314   0.30418   0.31503   0.32054

 Mulliken charges:
               1
     1  C   -0.170916
     2  C   -0.220217
     3  C   -0.165394
     4  C    0.158733
     5  C   -0.170267
     6  C   -0.219073
     7  H    0.222546
     8  H    0.217659
     9  H    0.278629
    10  H    0.274852
    11  H    0.221268
    12  N    0.488276
    13  O   -0.464518
    14  O   -0.452463
    15  C   -0.171116
    16  C   -0.219523
    17  C   -0.173666
    18  C    0.158540
    19  C   -0.170670
    20  C   -0.218435
    21  H    0.225429
    22  H    0.222628
    23  H    0.276070
    24  H    0.276363
    25  H    0.223683
    26  N    0.488522
    27  O   -0.460478
    28  O   -0.456461
 Sum of Mulliken charges =  -0.00000

 Dipole moment (field-independent basis, Debye):
    X=              2.8621    Y=              7.6809    Z=             -0.0758  Tot=              8.1972
 Quadrupole moment (field-independent basis, Debye-Ang):
   XX=            -72.6774   YY=           -108.2220   ZZ=           -105.4523
   XY=             -5.6868   XZ=            -11.6057   YZ=             -1.4396

 Normal termination of Gaussian 16 at Thu May  6 01:58:58 2021.
