 Gaussian 16, Revision A.03,
 Gaussian 16:  EM64L-G16RevA.03 25-Dec-2016

 -------------
 #p 6-31g* mp2
 -------------

 ------------------------------------------------------
 Input file generated by CHIRIPA (05-May-2021 14:57:27)
 ------------------------------------------------------
 Symbolic Z-matrix:
 Charge =  0 Multiplicity = 1

                         Standard orientation:
 ---------------------------------------------------------------------
 Center     Atomic      Atomic             Coordinates (Angstroms)
 Number     Number       Type             X           Y           Z
 ---------------------------------------------------------------------
      1          6           0        3.244393    2.520021   -0.152420
      2          6           0        3.254423    1.807993    1.051505
      3          6           0        3.181752    0.411832    1.051302
      4          6           0        3.099644   -0.243085   -0.176555
      5          6           0        3.087530    0.438116   -1.392741
      6          6           0        3.161125    1.834019   -1.368557
      7          1           0        3.301204    3.604493   -0.142948
      8          1           0        3.319011    2.338110    1.997471
      9          1           0        3.187645   -0.164288    1.968618
     10          1           0        3.022314   -0.118168   -2.319948
     11          1           0        3.153140    2.384380   -2.305085
     12          7           0        3.022221   -1.721002   -0.189464
     13          8           0        2.950586   -2.274482   -1.284528
     14          8           0        3.034638   -2.297929    0.895726
     15          6           0       -1.138911   -0.113362    1.742391
     16          6           0       -0.939326   -0.183616    0.359730
     17          6           0       -2.025406   -0.122084   -0.518446
     18          6           0       -3.303194    0.010417    0.022842
     19          6           0       -3.534429    0.083065    1.395629
     20          6           0       -2.433543    0.019521    2.255024
     21          1           0       -0.289467   -0.161942    2.417284
     22          1           0        0.064984   -0.286824   -0.041212
     23          1           0       -1.899470   -0.174133   -1.593084
     24          1           0       -4.547353    0.185843    1.765546
     25          1           0       -2.591537    0.074326    3.328374
     26          7           0       -4.460816    0.076624   -0.896901
     27          8           0       -5.576603    0.193448   -0.394898
     28          8           0       -4.230452    0.010441   -2.102385
 ---------------------------------------------------------------------

 SCF Done:  E(RHF) =  -868.337648210     A.U. after   16 cycles
 E2 =    -0.2601028084D+01 EUMP2 =    -0.87093867629383D+03

 The electronic state is 1-A.
 Alpha  occ. eigenvalues --  -20.61771 -20.61753 -20.60658 -20.60652 -15.86821
 Alpha  occ. eigenvalues --  -15.85709 -11.32268 -11.31044 -11.28838 -11.28771
 Alpha  occ. eigenvalues --  -11.28460 -11.27806 -11.27746 -11.27617 -11.27591
 Alpha  occ. eigenvalues --  -11.27349 -11.26637 -11.26569  -1.60852  -1.59733
 Alpha  occ. eigenvalues --   -1.40397  -1.39288  -1.20430  -1.19211  -1.09785
 Alpha  occ. eigenvalues --   -1.08613  -1.05804  -1.04609  -0.96606  -0.95455
 Alpha  occ. eigenvalues --   -0.87188  -0.86014  -0.83416  -0.82288  -0.78480
 Alpha  occ. eigenvalues --   -0.77344  -0.73011  -0.72227  -0.71927  -0.71452
 Alpha  occ. eigenvalues --   -0.71056  -0.70328  -0.66037  -0.65756  -0.64865
 Alpha  occ. eigenvalues --   -0.64631  -0.63131  -0.61975  -0.56232  -0.55130
 Alpha  occ. eigenvalues --   -0.54200  -0.53856  -0.52936  -0.52642  -0.49785
 Alpha  occ. eigenvalues --   -0.49775  -0.48686  -0.48684  -0.45770  -0.44700
 Alpha  occ. eigenvalues --   -0.38372  -0.37436  -0.37176  -0.36206
 Alpha virt. eigenvalues --    0.04005   0.05195   0.10179   0.11445   0.15521
 Alpha virt. eigenvalues --    0.16700   0.20364   0.21341   0.26137   0.26864
 Alpha virt. eigenvalues --    0.27220   0.28516   0.30348   0.30505   0.32170

 Mulliken charges:
               1
     1  C   -0.169885
     2  C   -0.216485
     3  C   -0.179325
     4  C    0.150807
     5  C   -0.176740
     6  C   -0.216161
     7  H    0.230404
     8  H    0.226184
     9  H    0.274933
    10  H    0.279286
    11  H    0.228845
    12  N    0.488784
    13  O   -0.456174
    14  O   -0.459806
    15  C   -0.170893
    16  C   -0.217587
    17  C   -0.172660
    18  C    0.158686
    19  C   -0.171483
    20  C   -0.218656
    21  H    0.223063
    22  H    0.225794
    23  H    0.275460
    24  H    0.274930
    25  H    0.222344
    26  N    0.488109
    27  O   -0.461017
    28  O   -0.460758
 Sum of Mulliken charges =  -0.00000

 Dipole moment (field-independent basis, Debye):
    X=              4.6051    Y=              5.0925    Z=              3.1842  Tot=              7.5683
 Quadrupole moment (field-independent basis, Debye-Ang):
   XX=           -128.9736   YY=           -108.2365   ZZ=            -96.6943
   XY=             17.2493   XZ=            -13.3976   YZ=             -0.6558

 Normal termination of Gaussian 16 at Thu May  6 02:03:10 2021.
