 Gaussian 16, Revision A.03,
 Gaussian 16:  EM64L-G16RevA.03 25-Dec-2016

 -------------
 #p 6-31g* mp2
 -------------

 ------------------------------------------------------
 Input file generated by CHIRIPA (05-May-2021 14:55:22)
 ------------------------------------------------------
 Symbolic Z-matrix:
 Charge =  0 Multiplicity = 1

                         Standard orientation:
 ---------------------------------------------------------------------
 Center     Atomic      Atomic             Coordinates (Angstroms)
 Number     Number       Type             X           Y           Z
 ---------------------------------------------------------------------
      1          6           0        2.359110   -2.094112    1.040110
      2          6           0        1.578938   -1.060587    1.568957
      3          6           0        1.750152    0.255088    1.128237
      4          6           0        2.715055    0.502559    0.153040
      5          6           0        3.507839   -0.505606   -0.393210
      6          6           0        3.319378   -1.813817    0.062438
      7          1           0        2.219408   -3.113260    1.388270
      8          1           0        0.832426   -1.275327    2.328333
      9          1           0        1.159827    1.074233    1.520582
     10          1           0        4.244042   -0.260557   -1.149103
     11          1           0        3.926701   -2.614471   -0.350060
     12          7           0        2.905442    1.891454   -0.321433
     13          8           0        3.762240    2.083317   -1.181504
     14          8           0        2.194263    2.761908    0.175731
     15          6           0       -3.968339    0.167122   -0.473173
     16          6           0       -4.759498    0.661762    0.738183
     17          6           0       -5.822504    1.696410    0.367620
     18          1           0       -3.490964    1.024863   -0.966466
     19          1           0       -4.664225   -0.266593   -1.204631
     20          1           0       -4.062181    1.093163    1.467744
     21          1           0       -5.234889   -0.197280    1.228761
     22          1           0       -6.540728    1.273546   -0.342268
     23          1           0       -5.361357    2.571320   -0.101927
     24          1           0       -6.376101    2.036379    1.248421
     25          6           0       -2.901875   -0.867672   -0.118797
     26          6           0       -2.110717   -1.362312   -1.330153
     27          6           0       -1.047711   -2.396959   -0.959590
     28          1           0       -2.205989   -0.433957    0.612662
     29          1           0       -3.379250   -1.725413    0.374495
     30          1           0       -1.635326   -0.503269   -1.820731
     31          1           0       -2.808033   -1.793713   -2.059714
     32          1           0       -1.508858   -3.271870   -0.490042
     33          1           0       -0.329487   -1.974095   -0.249702
     34          1           0       -0.494113   -2.736929   -1.840391
 ---------------------------------------------------------------------

 SCF Done:  E(RHF) =  -669.534851723     A.U. after   15 cycles
 E2 =    -0.2092739990D+01 EUMP2 =    -0.67162759171270D+03

 The electronic state is 1-A.
 Alpha  occ. eigenvalues --  -20.60836 -20.60831 -15.85891 -11.31278 -11.27855
 Alpha  occ. eigenvalues --  -11.27846 -11.27574 -11.26853 -11.26842 -11.21776
 Alpha  occ. eigenvalues --  -11.21742 -11.21657 -11.21504 -11.21207 -11.21128
 Alpha  occ. eigenvalues --   -1.59911  -1.39464  -1.19461  -1.08851  -1.08607
 Alpha  occ. eigenvalues --   -1.04869  -1.03681  -0.96143  -0.95672  -0.87165
 Alpha  occ. eigenvalues --   -0.86256  -0.82505  -0.79758  -0.78436  -0.77550
 Alpha  occ. eigenvalues --   -0.72108  -0.71235  -0.70549  -0.65245  -0.65107
 Alpha  occ. eigenvalues --   -0.64858  -0.62207  -0.61095  -0.59510  -0.57769
 Alpha  occ. eigenvalues --   -0.55521  -0.55346  -0.53311  -0.52948  -0.52810
 Alpha  occ. eigenvalues --   -0.52462  -0.50038  -0.48869  -0.48862  -0.48069
 Alpha  occ. eigenvalues --   -0.46779  -0.45976  -0.45898  -0.44865  -0.43952
 Alpha  occ. eigenvalues --   -0.37365  -0.36424
 Alpha virt. eigenvalues --    0.04965   0.11129   0.16396   0.20955   0.22803
 Alpha virt. eigenvalues --    0.24223   0.25940   0.26993   0.27621   0.28176
 Alpha virt. eigenvalues --    0.28518   0.30775   0.31444   0.31815   0.31902

 Mulliken charges:
               1
     1  C   -0.167157
     2  C   -0.223428
     3  C   -0.170473
     4  C    0.158935
     5  C   -0.170517
     6  C   -0.217513
     7  H    0.227301
     8  H    0.225638
     9  H    0.275843
    10  H    0.276055
    11  H    0.224123
    12  N    0.488058
    13  O   -0.460067
    14  O   -0.460438
    15  C   -0.299020
    16  C   -0.299480
    17  C   -0.476048
    18  H    0.153294
    19  H    0.150291
    20  H    0.150698
    21  H    0.150694
    22  H    0.155336
    23  H    0.157505
    24  H    0.160363
    25  C   -0.296834
    26  C   -0.298889
    27  C   -0.485329
    28  H    0.142987
    29  H    0.147953
    30  H    0.155337
    31  H    0.152302
    32  H    0.149858
    33  H    0.163289
    34  H    0.159330
 Sum of Mulliken charges =  -0.00000

 Dipole moment (field-independent basis, Debye):
    X=             -0.5811    Y=             -4.8430    Z=              1.6587  Tot=              5.1521
 Quadrupole moment (field-independent basis, Debye-Ang):
   XX=            -96.1523   YY=            -99.9572   ZZ=            -92.7748
   XY=            -14.3412   XZ=              2.0099   YZ=              1.2233

 Normal termination of Gaussian 16 at Thu May  6 03:04:45 2021.
