 Gaussian 16, Revision A.03,
 Gaussian 16:  EM64L-G16RevA.03 25-Dec-2016

 -------------
 #p 6-31g* mp2
 -------------

 ------------------------------------------------------
 Input file generated by CHIRIPA (05-May-2021 14:53:12)
 ------------------------------------------------------
 Symbolic Z-matrix:
 Charge =  0 Multiplicity = 1

                         Standard orientation:
 ---------------------------------------------------------------------
 Center     Atomic      Atomic             Coordinates (Angstroms)
 Number     Number       Type             X           Y           Z
 ---------------------------------------------------------------------
      1          6           0        2.440613    1.069304   -0.082433
      2          6           0        2.641181    2.507620   -0.560975
      3          6           0        1.339249    3.308921   -0.587097
      4          1           0        1.713930    0.569613   -0.737555
      5          1           0        1.997292    1.083189    0.922887
      6          1           0        3.085272    2.491034   -1.564531
      7          1           0        3.367616    3.003887    0.095248
      8          1           0        0.895257    3.355204    0.412568
      9          1           0        0.611309    2.839437   -1.256640
     10          1           0        1.505684    4.334139   -0.932189
     11          6           0        3.733104    0.255548   -0.050856
     12          6           0        3.532536   -1.182768    0.427686
     13          6           0        4.834469   -1.984069    0.453808
     14          1           0        4.176426    0.241663   -1.056176
     15          1           0        4.459788    0.755239    0.604266
     16          1           0        2.806101   -1.679035   -0.228537
     17          1           0        3.088445   -1.166182    1.431241
     18          1           0        5.562409   -1.514585    1.123351
     19          1           0        5.278460   -2.030352   -0.545858
     20          1           0        4.668033   -3.009287    0.798900
     21          6           0       -4.459973    0.898044    0.459870
     22          6           0       -4.454530   -0.043841   -0.574220
     23          6           0       -3.325138   -0.833626   -0.809305
     24          6           0       -2.213580   -0.654372    0.012641
     25          6           0       -2.188279    0.275562    1.050847
     26          6           0       -3.328824    1.054464    1.267680
     27          1           0       -5.341644    1.507340    0.635400
     28          1           0       -5.331568   -0.167484   -1.203158
     29          1           0       -3.293814   -1.570292   -1.602879
     30          1           0       -1.298964    0.376002    1.661133
     31          1           0       -3.330209    1.785159    2.071500
     32          7           0       -1.012040   -1.484720   -0.226571
     33          8           0       -0.045453   -1.307537    0.511639
     34          8           0       -1.059611   -2.297009   -1.147745
 ---------------------------------------------------------------------

 SCF Done:  E(RHF) =  -669.535686088     A.U. after   15 cycles
 E2 =    -0.2092721687D+01 EUMP2 =    -0.67162840777539D+03

 The electronic state is 1-A.
 Alpha  occ. eigenvalues --  -20.60997 -20.60953 -15.85983 -11.31289 -11.27851
 Alpha  occ. eigenvalues --  -11.27845 -11.27583 -11.26852 -11.26841 -11.20961
 Alpha  occ. eigenvalues --  -11.20777 -11.20323 -11.20252 -11.19994 -11.19876
 Alpha  occ. eigenvalues --   -1.60035  -1.39591  -1.19455  -1.08866  -1.07393
 Alpha  occ. eigenvalues --   -1.04847  -1.02567  -0.95713  -0.95079  -0.86249
 Alpha  occ. eigenvalues --   -0.86111  -0.82552  -0.78631  -0.77647  -0.77059
 Alpha  occ. eigenvalues --   -0.72195  -0.71342  -0.70564  -0.65110  -0.64852
 Alpha  occ. eigenvalues --   -0.64042  -0.62195  -0.59978  -0.58481  -0.56644
 Alpha  occ. eigenvalues --   -0.55355  -0.54401  -0.53179  -0.52940  -0.51819
 Alpha  occ. eigenvalues --   -0.51503  -0.49083  -0.49011  -0.48977  -0.46936
 Alpha  occ. eigenvalues --   -0.45680  -0.45299  -0.44593  -0.44166  -0.42791
 Alpha  occ. eigenvalues --   -0.37431  -0.36444
 Alpha virt. eigenvalues --    0.04904   0.11199   0.16387   0.21142   0.23567
 Alpha virt. eigenvalues --    0.25081   0.26487   0.27567   0.28078   0.28717
 Alpha virt. eigenvalues --    0.29145   0.31092   0.31949   0.32395   0.32692

 Mulliken charges:
               1
     1  C   -0.293216
     2  C   -0.299473
     3  C   -0.473676
     4  H    0.156454
     5  H    0.146311
     6  H    0.150739
     7  H    0.148914
     8  H    0.148414
     9  H    0.153407
    10  H    0.157824
    11  C   -0.299680
    12  C   -0.298546
    13  C   -0.476053
    14  H    0.145549
    15  H    0.143036
    16  H    0.171959
    17  H    0.152425
    18  H    0.148765
    19  H    0.151287
    20  H    0.159454
    21  C   -0.170423
    22  C   -0.218622
    23  C   -0.170787
    24  C    0.157393
    25  C   -0.169986
    26  C   -0.218396
    27  H    0.226051
    28  H    0.223759
    29  H    0.275652
    30  H    0.276197
    31  H    0.223949
    32  N    0.488618
    33  O   -0.457308
    34  O   -0.459992
 Sum of Mulliken charges =  -0.00000

 Dipole moment (field-independent basis, Debye):
    X=             -4.5165    Y=              2.7061    Z=              0.8337  Tot=              5.3307
 Quadrupole moment (field-independent basis, Debye-Ang):
   XX=            -77.3851   YY=            -99.1998   ZZ=            -91.3420
   XY=             -2.2874   XZ=              0.0537   YZ=              1.9779

 Normal termination of Gaussian 16 at Thu May  6 15:17:59 2021.
