 Gaussian 16, Revision A.03,
 Gaussian 16:  EM64L-G16RevA.03 25-Dec-2016

 -------------
 #p 6-31g* mp2
 -------------

 ------------------------------------------------------
 Input file generated by CHIRIPA (05-May-2021 14:57:22)
 ------------------------------------------------------
 Symbolic Z-matrix:
 Charge =  0 Multiplicity = 1

                         Standard orientation:
 ---------------------------------------------------------------------
 Center     Atomic      Atomic             Coordinates (Angstroms)
 Number     Number       Type             X           Y           Z
 ---------------------------------------------------------------------
      1          6           0       -3.956217   -1.978906   -0.594437
      2          6           0       -2.868737   -1.849239    0.275674
      3          6           0       -2.334150   -0.589376    0.561173
      4          6           0       -2.914292    0.524564   -0.043693
      5          6           0       -3.998264    0.427935   -0.914876
      6          6           0       -4.516522   -0.841910   -1.185892
      7          1           0       -4.365155   -2.961475   -0.810595
      8          1           0       -2.431571   -2.730499    0.736447
      9          1           0       -1.492689   -0.460260    1.231017
     10          1           0       -4.412712    1.324817   -1.359008
     11          1           0       -5.361119   -0.939599   -1.862027
     12          7           0       -2.356992    1.863608    0.250886
     13          8           0       -2.886114    2.829458   -0.294826
     14          8           0       -1.401610    1.921947    1.021911
     15          6           0        1.224731   -1.439478    1.471701
     16          6           0        1.727092   -2.064473    0.325605
     17          6           0        2.714226   -1.444566   -0.446297
     18          6           0        3.178362   -0.194088   -0.041117
     19          6           0        2.697808    0.454176    1.095595
     20          6           0        1.710835   -0.184361    1.852367
     21          1           0        0.457965   -1.928273    2.065456
     22          1           0        1.351444   -3.039211    0.027578
     23          1           0        3.120750   -1.905859   -1.338130
     24          1           0        3.091941    1.425866    1.367429
     25          1           0        1.322542    0.303382    2.741962
     26          7           0        4.223311    0.472042   -0.850286
     27          8           0        4.615610    1.573694   -0.472002
     28          8           0        4.630256   -0.120113   -1.847475
 ---------------------------------------------------------------------

 SCF Done:  E(RHF) =  -868.336728140     A.U. after   16 cycles
 E2 =    -0.2601735260D+01 EUMP2 =    -0.87093846340006D+03

 The electronic state is 1-A.
 Alpha  occ. eigenvalues --  -20.61255 -20.61233 -20.60635 -20.60615 -15.86302
 Alpha  occ. eigenvalues --  -15.85679 -11.31694 -11.31144 -11.28313 -11.28252
 Alpha  occ. eigenvalues --  -11.28051 -11.27732 -11.27608 -11.27600 -11.27391
 Alpha  occ. eigenvalues --  -11.27259 -11.26894 -11.26714  -1.60312  -1.59697
 Alpha  occ. eigenvalues --   -1.39868  -1.39248  -1.19888  -1.19326  -1.09273
 Alpha  occ. eigenvalues --   -1.08760  -1.05316  -1.04713  -0.96107  -0.95568
 Alpha  occ. eigenvalues --   -0.86710  -0.86140  -0.82960  -0.82365  -0.78000
 Alpha  occ. eigenvalues --   -0.77358  -0.72532  -0.71902  -0.71629  -0.71088
 Alpha  occ. eigenvalues --   -0.71014  -0.70486  -0.65551  -0.65350  -0.64991
 Alpha  occ. eigenvalues --   -0.64735  -0.62685  -0.62042  -0.55840  -0.55349
 Alpha  occ. eigenvalues --   -0.53637  -0.53506  -0.52933  -0.52817  -0.49285
 Alpha  occ. eigenvalues --   -0.49266  -0.48669  -0.48645  -0.45267  -0.44630
 Alpha  occ. eigenvalues --   -0.37866  -0.37472  -0.36809  -0.36250
 Alpha virt. eigenvalues --    0.04552   0.05109   0.10741   0.11260   0.15993
 Alpha virt. eigenvalues --    0.16486   0.19250   0.22176   0.25661   0.26662
 Alpha virt. eigenvalues --    0.27892   0.30144   0.30254   0.31237   0.32184

 Mulliken charges:
               1
     1  C   -0.169877
     2  C   -0.221087
     3  C   -0.168687
     4  C    0.157464
     5  C   -0.169074
     6  C   -0.218773
     7  H    0.226493
     8  H    0.215761
     9  H    0.273019
    10  H    0.277734
    11  H    0.225581
    12  N    0.488723
    13  O   -0.456924
    14  O   -0.464299
    15  C   -0.182972
    16  C   -0.216480
    17  C   -0.171780
    18  C    0.159538
    19  C   -0.166797
    20  C   -0.207275
    21  H    0.215403
    22  H    0.218673
    23  H    0.275076
    24  H    0.280272
    25  H    0.231002
    26  N    0.487974
    27  O   -0.457192
    28  O   -0.461497
 Sum of Mulliken charges =  -0.00000

 Dipole moment (field-independent basis, Debye):
    X=             -5.5845    Y=             -6.7420    Z=              1.7318  Tot=              8.9242
 Quadrupole moment (field-independent basis, Debye-Ang):
   XX=           -114.6827   YY=           -106.0677   ZZ=           -102.0868
   XY=              4.6723   XZ=             15.3326   YZ=              0.9030

 Normal termination of Gaussian 16 at Thu May  6 12:55:03 2021.
