 Gaussian 16, Revision A.03,
 Gaussian 16:  EM64L-G16RevA.03 25-Dec-2016

 -------------
 #p 6-31g* mp2
 -------------

 ------------------------------------------------------
 Input file generated by CHIRIPA (05-May-2021 14:55:22)
 ------------------------------------------------------
 Symbolic Z-matrix:
 Charge =  0 Multiplicity = 1

                         Standard orientation:
 ---------------------------------------------------------------------
 Center     Atomic      Atomic             Coordinates (Angstroms)
 Number     Number       Type             X           Y           Z
 ---------------------------------------------------------------------
      1          6           0       -1.561546   -2.182431    1.517533
      2          6           0       -1.133086   -0.866683    1.721861
      3          6           0       -1.622464    0.171457    0.923537
      4          6           0       -2.543426   -0.143374   -0.074461
      5          6           0       -2.989594   -1.444204   -0.302641
      6          6           0       -2.486801   -2.466492    0.507715
      7          1           0       -1.176175   -2.982726    2.142363
      8          1           0       -0.414603   -0.643136    2.505349
      9          1           0       -1.307779    1.198962    1.060013
     10          1           0       -3.706684   -1.636041   -1.091563
     11          1           0       -2.821333   -3.487386    0.346755
     12          7           0       -3.068610    0.947267   -0.925979
     13          8           0       -3.879244    0.643724   -1.798545
     14          8           0       -2.659670    2.085004   -0.704710
     15          6           0        3.099168    1.175818   -0.064990
     16          6           0        1.979876    1.693534    0.838969
     17          6           0        1.901288    3.220236    0.867220
     18          1           0        4.058422    1.587498    0.277494
     19          1           0        2.942535    1.554760   -1.084433
     20          1           0        2.137809    1.312597    1.856103
     21          1           0        1.023199    1.280420    0.494409
     22          1           0        1.720002    3.615310   -0.137594
     23          1           0        2.840945    3.647670    1.231836
     24          1           0        1.094420    3.568697    1.519446
     25          6           0        3.190418   -0.348619   -0.103661
     26          6           0        4.309710   -0.866334   -1.007620
     27          6           0        4.388298   -2.393036   -1.035872
     28          1           0        3.347051   -0.727560    0.915782
     29          1           0        2.231164   -0.760299   -0.446145
     30          1           0        5.266387   -0.453220   -0.663060
     31          1           0        4.151777   -0.485397   -2.024754
     32          1           0        3.448641   -2.820470   -1.400487
     33          1           0        4.569584   -2.788110   -0.031057
     34          1           0        5.195167   -2.741497   -1.688097
 ---------------------------------------------------------------------

 SCF Done:  E(RHF) =  -669.535210755     A.U. after   15 cycles
 E2 =    -0.2092454285D+01 EUMP2 =    -0.67162766503950D+03

 The electronic state is 1-A.
 Alpha  occ. eigenvalues --  -20.60789 -20.60784 -15.85842 -11.31203 -11.27773
 Alpha  occ. eigenvalues --  -11.27742 -11.27505 -11.26790 -11.26767 -11.21982
 Alpha  occ. eigenvalues --  -11.21853 -11.21698 -11.21627 -11.21357 -11.21236
 Alpha  occ. eigenvalues --   -1.59865  -1.39418  -1.19381  -1.08772  -1.08725
 Alpha  occ. eigenvalues --   -1.04784  -1.03815  -0.96239  -0.95608  -0.87251
 Alpha  occ. eigenvalues --   -0.86175  -0.82442  -0.79909  -0.78575  -0.77469
 Alpha  occ. eigenvalues --   -0.72059  -0.71190  -0.70491  -0.65374  -0.65024
 Alpha  occ. eigenvalues --   -0.64764  -0.62176  -0.61173  -0.59610  -0.57868
 Alpha  occ. eigenvalues --   -0.55512  -0.55268  -0.53145  -0.52914  -0.52866
 Alpha  occ. eigenvalues --   -0.52663  -0.50161  -0.48818  -0.48817  -0.48205
 Alpha  occ. eigenvalues --   -0.46920  -0.46090  -0.46006  -0.44821  -0.44063
 Alpha  occ. eigenvalues --   -0.37359  -0.36330
 Alpha virt. eigenvalues --    0.05003   0.11210   0.16468   0.20600   0.22772
 Alpha virt. eigenvalues --    0.23822   0.25853   0.26253   0.27056   0.28229
 Alpha virt. eigenvalues --    0.29174   0.30298   0.31365   0.31571   0.32099

 Mulliken charges:
               1
     1  C   -0.171148
     2  C   -0.217208
     3  C   -0.173192
     4  C    0.157241
     5  C   -0.171351
     6  C   -0.218423
     7  H    0.225910
     8  H    0.225641
     9  H    0.278557
    10  H    0.275577
    11  H    0.223542
    12  N    0.488119
    13  O   -0.460375
    14  O   -0.460564
    15  C   -0.297639
    16  C   -0.307989
    17  C   -0.475730
    18  H    0.150487
    19  H    0.154089
    20  H    0.144649
    21  H    0.153957
    22  H    0.163082
    23  H    0.155638
    24  H    0.159181
    25  C   -0.299454
    26  C   -0.299872
    27  C   -0.475814
    28  H    0.145006
    29  H    0.151498
    30  H    0.152520
    31  H    0.154373
    32  H    0.154850
    33  H    0.153255
    34  H    0.161586
 Sum of Mulliken charges =  -0.00000

 Dipole moment (field-independent basis, Debye):
    X=              1.8763    Y=             -3.7988    Z=              2.9132  Tot=              5.1418
 Quadrupole moment (field-independent basis, Debye-Ang):
   XX=           -102.7760   YY=            -92.7316   ZZ=            -93.9540
   XY=             12.1322   XZ=             -5.9583   YZ=              1.4341

 Normal termination of Gaussian 16 at Wed May  5 15:58:44 2021.
