 Gaussian 16, Revision A.03,
 Gaussian 16:  EM64L-G16RevA.03 25-Dec-2016

 -------------
 #p 6-31g* mp2
 -------------

 ------------------------------------------------------
 Input file generated by CHIRIPA (05-May-2021 14:51:10)
 ------------------------------------------------------
 Symbolic Z-matrix:
 Charge =  0 Multiplicity = 1

                         Standard orientation:
 ---------------------------------------------------------------------
 Center     Atomic      Atomic             Coordinates (Angstroms)
 Number     Number       Type             X           Y           Z
 ---------------------------------------------------------------------
      1          6           0       -3.540304    0.398634   -0.275979
      2          6           0       -3.510096   -1.120607   -0.446211
      3          6           0       -4.881654   -1.704788   -0.785851
      4          1           0       -4.257150    0.658410    0.514965
      5          1           0       -3.916138    0.856885   -1.201263
      6          1           0       -3.133124   -1.575773    0.478630
      7          1           0       -2.793098   -1.376808   -1.236711
      8          1           0       -5.261625   -1.278024   -1.719711
      9          1           0       -5.603583   -1.478120    0.005376
     10          1           0       -4.837069   -2.792041   -0.903125
     11          6           0       -2.176575    0.997400    0.063800
     12          6           0       -2.206782    2.516641    0.234032
     13          6           0       -0.835224    3.100823    0.573671
     14          1           0       -1.800741    0.539150    0.989084
     15          1           0       -1.459729    0.737624   -0.727145
     16          1           0       -2.923781    2.772843    1.024531
     17          1           0       -2.583754    2.971808   -0.690810
     18          1           0       -0.113295    2.874154   -0.217556
     19          1           0       -0.455253    2.674058    1.507532
     20          1           0       -0.879809    4.188076    0.690946
     21          6           0        3.272015   -0.319981   -0.413021
     22          6           0        4.718273   -0.080272    0.021566
     23          6           0        5.532950    0.677125   -1.027454
     24          1           0        3.267877   -0.880833   -1.357676
     25          1           0        2.794085    0.647207   -0.621647
     26          1           0        5.192918   -1.047544    0.230643
     27          1           0        4.718966    0.479909    0.965395
     28          1           0        5.085382    1.655491   -1.230151
     29          1           0        5.562028    0.119360   -1.969077
     30          1           0        6.563678    0.837629   -0.696248
     31          6           0        2.444863   -1.076054    0.625200
     32          6           0        0.998606   -1.315763    0.190614
     33          6           0        0.183929   -2.073160    1.239634
     34          1           0        2.922794   -2.043242    0.833827
     35          1           0        2.449002   -0.515202    1.569855
     36          1           0        0.997913   -1.875944   -0.753216
     37          1           0        0.523961   -0.348491   -0.018463
     38          1           0        0.154851   -1.515395    2.181256
     39          1           0        0.631496   -3.051525    1.442330
     40          1           0       -0.846800   -2.233664    0.908427
 ---------------------------------------------------------------------

 SCF Done:  E(RHF) =  -470.732123586     A.U. after   11 cycles
 E2 =    -0.1584797879D+01 EUMP2 =    -0.47231692146498D+03

 The electronic state is 1-A.
 Alpha  occ. eigenvalues --  -11.21649 -11.21639 -11.21556 -11.21430 -11.21417
 Alpha  occ. eigenvalues --  -11.21362 -11.21336 -11.21263 -11.21159 -11.21100
 Alpha  occ. eigenvalues --  -11.21038 -11.20938  -1.08498  -1.08334  -1.03585
 Alpha  occ. eigenvalues --   -1.03447  -0.96039  -0.95900  -0.87058  -0.86919
 Alpha  occ. eigenvalues --   -0.79714  -0.79472  -0.78418  -0.78068  -0.65112
 Alpha  occ. eigenvalues --   -0.64986  -0.60991  -0.60869  -0.59458  -0.59233
 Alpha  occ. eigenvalues --   -0.57680  -0.57489  -0.55327  -0.55195  -0.52794
 Alpha  occ. eigenvalues --   -0.52586  -0.52465  -0.52299  -0.50004  -0.49829
 Alpha  occ. eigenvalues --   -0.48175  -0.47679  -0.46749  -0.46617  -0.46032
 Alpha  occ. eigenvalues --   -0.45745  -0.45669  -0.45164  -0.43832  -0.43657
 Alpha virt. eigenvalues --    0.21162   0.22799   0.23750   0.24022   0.25344
 Alpha virt. eigenvalues --    0.26539   0.26808   0.27582   0.28990   0.29396
 Alpha virt. eigenvalues --    0.30348   0.31181   0.31384   0.31712   0.32159

 Mulliken charges:
               1
     1  C   -0.297286
     2  C   -0.304848
     3  C   -0.475148
     4  H    0.149539
     5  H    0.149486
     6  H    0.155938
     7  H    0.152671
     8  H    0.155292
     9  H    0.155287
    10  H    0.160391
    11  C   -0.304907
    12  C   -0.299170
    13  C   -0.476927
    14  H    0.154246
    15  H    0.153492
    16  H    0.152037
    17  H    0.151991
    18  H    0.154893
    19  H    0.155012
    20  H    0.160994
    21  C   -0.298334
    22  C   -0.299525
    23  C   -0.475692
    24  H    0.149231
    25  H    0.149174
    26  H    0.151846
    27  H    0.152004
    28  H    0.155132
    29  H    0.154976
    30  H    0.160126
    31  C   -0.297333
    32  C   -0.306382
    33  C   -0.482224
    34  H    0.148876
    35  H    0.149086
    36  H    0.150096
    37  H    0.161107
    38  H    0.152881
    39  H    0.154352
    40  H    0.167619
 Sum of Mulliken charges =  -0.00000

 Dipole moment (field-independent basis, Debye):
    X=             -0.0780    Y=              0.0311    Z=             -0.0114  Tot=              0.0847
 Quadrupole moment (field-independent basis, Debye-Ang):
   XX=            -86.0995   YY=            -84.6555   ZZ=            -84.1324
   XY=             -1.0794   XZ=             -0.0980   YZ=              0.5256

 Normal termination of Gaussian 16 at Thu May  6 00:36:22 2021.
