 Gaussian 16, Revision A.03,
 Gaussian 16:  EM64L-G16RevA.03 25-Dec-2016

 -------------
 #p 6-31g* mp2
 -------------

 ------------------------------------------------------
 Input file generated by CHIRIPA (05-May-2021 14:55:23)
 ------------------------------------------------------
 Symbolic Z-matrix:
 Charge =  0 Multiplicity = 1

                         Standard orientation:
 ---------------------------------------------------------------------
 Center     Atomic      Atomic             Coordinates (Angstroms)
 Number     Number       Type             X           Y           Z
 ---------------------------------------------------------------------
      1          6           0        0.699376   -0.907347   -0.358139
      2          6           0        0.997256    0.410512    0.003849
      3          6           0        2.323012    0.813276    0.190127
      4          6           0        3.330601   -0.132175    0.005255
      5          6           0        3.065844   -1.452465   -0.355338
      6          6           0        1.732800   -1.832998   -0.536263
      7          1           0       -0.333334   -1.211589   -0.500765
      8          1           0        0.196724    1.131531    0.142868
      9          1           0        2.581881    1.827100    0.470423
     10          1           0        3.885330   -2.148600   -0.486704
     11          1           0        1.504425   -2.857138   -0.817382
     12          7           0        4.737978    0.282445    0.199626
     13          8           0        5.607533   -0.569589    0.030664
     14          8           0        4.944876    1.451608    0.517256
     15          6           0       -3.786258   -0.482801   -0.030820
     16          6           0       -4.907184   -1.421445    0.416903
     17          6           0       -4.532007   -2.897416    0.280731
     18          1           0       -3.528508   -0.702166   -1.075994
     19          1           0       -2.885278   -0.689384    0.563278
     20          1           0       -5.806192   -1.212209   -0.176916
     21          1           0       -5.162426   -1.199691    1.461074
     22          1           0       -3.649896   -3.128175    0.886728
     23          1           0       -4.297318   -3.140764   -0.760568
     24          1           0       -5.347590   -3.550648    0.606265
     25          6           0       -4.146281    0.996105    0.099374
     26          6           0       -3.025355    1.934750   -0.348349
     27          6           0       -3.400533    3.410721   -0.212176
     28          1           0       -5.047261    1.202688   -0.494724
     29          1           0       -4.404031    1.215470    1.144548
     30          1           0       -2.770112    1.712995   -1.392519
     31          1           0       -2.126346    1.725514    0.245471
     32          1           0       -3.635221    3.654069    0.829123
     33          1           0       -4.282643    3.641478   -0.818174
     34          1           0       -2.584949    4.063952   -0.537711
 ---------------------------------------------------------------------

 SCF Done:  E(RHF) =  -669.535705279     A.U. after   15 cycles
 E2 =    -0.2091681587D+01 EUMP2 =    -0.67162738686619D+03

 The electronic state is 1-A.
 Alpha  occ. eigenvalues --  -20.60697 -20.60692 -15.85750 -11.31095 -11.27664
 Alpha  occ. eigenvalues --  -11.27655 -11.27361 -11.26669 -11.26625 -11.22806
 Alpha  occ. eigenvalues --  -11.22592 -11.22516 -11.22416 -11.21976 -11.21961
 Alpha  occ. eigenvalues --   -1.59773  -1.39327  -1.19261  -1.09510  -1.08655
 Alpha  occ. eigenvalues --   -1.04666  -1.04536  -0.96964  -0.95495  -0.87978
 Alpha  occ. eigenvalues --   -0.86063  -0.82332  -0.80623  -0.79369  -0.77384
 Alpha  occ. eigenvalues --   -0.71968  -0.71097  -0.70357  -0.66146  -0.64909
 Alpha  occ. eigenvalues --   -0.64672  -0.62102  -0.61847  -0.60333  -0.58596
 Alpha  occ. eigenvalues --   -0.56244  -0.55148  -0.53636  -0.53385  -0.52994
 Alpha  occ. eigenvalues --   -0.52770  -0.50893  -0.48937  -0.48725  -0.48702
 Alpha  occ. eigenvalues --   -0.47640  -0.46868  -0.46798  -0.44806  -0.44738
 Alpha  occ. eigenvalues --   -0.37236  -0.36271
 Alpha virt. eigenvalues --    0.05145   0.11371   0.16632   0.19176   0.22447
 Alpha virt. eigenvalues --    0.22866   0.24967   0.25640   0.26524   0.27503
 Alpha virt. eigenvalues --    0.29427   0.30378   0.30697   0.31285   0.31668

 Mulliken charges:
               1
     1  C   -0.177766
     2  C   -0.226065
     3  C   -0.172580
     4  C    0.158785
     5  C   -0.171198
     6  C   -0.219081
     7  H    0.231325
     8  H    0.233141
     9  H    0.275676
    10  H    0.275159
    11  H    0.223288
    12  N    0.487978
    13  O   -0.460765
    14  O   -0.460684
    15  C   -0.303417
    16  C   -0.299759
    17  C   -0.477138
    18  H    0.148805
    19  H    0.145021
    20  H    0.155463
    21  H    0.155220
    22  H    0.153550
    23  H    0.154593
    24  H    0.164718
    25  C   -0.297617
    26  C   -0.307300
    27  C   -0.475897
    28  H    0.154298
    29  H    0.153357
    30  H    0.153786
    31  H    0.145741
    32  H    0.158094
    33  H    0.159338
    34  H    0.161930
 Sum of Mulliken charges =  -0.00000

 Dipole moment (field-independent basis, Debye):
    X=             -5.3022    Y=             -1.4042    Z=             -0.6849  Tot=              5.5276
 Quadrupole moment (field-independent basis, Debye-Ang):
   XX=           -126.4840   YY=            -90.9364   ZZ=            -94.4316
   XY=             -5.9073   XZ=             -2.4096   YZ=              1.2026

 Normal termination of Gaussian 16 at Thu May  6 07:52:37 2021.
