 Gaussian 16, Revision A.03,
 Gaussian 16:  EM64L-G16RevA.03 25-Dec-2016

 -------------
 #p 6-31g* mp2
 -------------

 ------------------------------------------------------
 Input file generated by CHIRIPA (05-May-2021 14:57:23)
 ------------------------------------------------------
 Symbolic Z-matrix:
 Charge =  0 Multiplicity = 1

                         Standard orientation:
 ---------------------------------------------------------------------
 Center     Atomic      Atomic             Coordinates (Angstroms)
 Number     Number       Type             X           Y           Z
 ---------------------------------------------------------------------
      1          6           0        4.355886   -2.085753    0.068608
      2          6           0        3.091217   -1.838368   -0.475389
      3          6           0        2.579422   -0.538125   -0.519910
      4          6           0        3.362789    0.495717   -0.009227
      5          6           0        4.626375    0.281272    0.539094
      6          6           0        5.118085   -1.027010    0.573224
      7          1           0        4.745660   -3.098936    0.099156
      8          1           0        2.497066   -2.658658   -0.868013
      9          1           0        1.603502   -0.318343   -0.935475
     10          1           0        5.195293    1.119455    0.922760
     11          1           0        6.100574   -1.216171    0.996284
     12          7           0        2.831606    1.876482   -0.050858
     13          8           0        3.541476    2.770010    0.405573
     14          8           0        1.715453    2.039052   -0.539132
     15          6           0       -4.922852    1.774966    0.154976
     16          6           0       -5.409576    0.529155    0.564334
     17          6           0       -4.602548   -0.609633    0.484250
     18          6           0       -3.307977   -0.465671   -0.012388
     19          6           0       -2.794289    0.761766   -0.428097
     20          6           0       -3.619060    1.887098   -0.339061
     21          1           0       -5.556662    2.654379    0.220665
     22          1           0       -6.421709    0.439090    0.948419
     23          1           0       -4.953985   -1.586273    0.794229
     24          1           0       -1.781028    0.820124   -0.806668
     25          1           0       -3.238404    2.853335   -0.657701
     26          7           0       -2.444220   -1.664133   -0.101908
     27          8           0       -1.307346   -1.510772   -0.543082
     28          8           0       -2.920438   -2.734155    0.270795
 ---------------------------------------------------------------------

 SCF Done:  E(RHF) =  -868.341207625     A.U. after   16 cycles
 E2 =    -0.2598180160D+01 EUMP2 =    -0.87093938778523D+03

 The electronic state is 1-A.
 Alpha  occ. eigenvalues --  -20.61013 -20.60979 -20.60524 -20.60498 -15.86037
 Alpha  occ. eigenvalues --  -15.85553 -11.31046 -11.30575 -11.27623 -11.27498
 Alpha  occ. eigenvalues --  -11.27288 -11.27182 -11.26981 -11.26832 -11.26577
 Alpha  occ. eigenvalues --  -11.26457 -11.26150 -11.25944  -1.60061  -1.59584
 Alpha  occ. eigenvalues --   -1.39627  -1.39149  -1.19195  -1.18728  -1.08663
 Alpha  occ. eigenvalues --   -1.08199  -1.04535  -1.04057  -0.95553  -0.95082
 Alpha  occ. eigenvalues --   -0.85958  -0.85487  -0.82399  -0.81915  -0.77475
 Alpha  occ. eigenvalues --   -0.76982  -0.72290  -0.71792  -0.71359  -0.70892
 Alpha  occ. eigenvalues --   -0.70306  -0.69839  -0.64854  -0.64534  -0.64378
 Alpha  occ. eigenvalues --   -0.64051  -0.61873  -0.61384  -0.55075  -0.54616
 Alpha  occ. eigenvalues --   -0.52901  -0.52616  -0.52440  -0.52132  -0.49031
 Alpha  occ. eigenvalues --   -0.48989  -0.48545  -0.48507  -0.45107  -0.44628
 Alpha  occ. eigenvalues --   -0.37179  -0.36730  -0.36124  -0.35646
 Alpha virt. eigenvalues --    0.05025   0.05502   0.11527   0.11993   0.16586
 Alpha virt. eigenvalues --    0.17054   0.21266   0.22279   0.26469   0.27866
 Alpha virt. eigenvalues --    0.28408   0.29476   0.30928   0.31706   0.32152

 Mulliken charges:
               1
     1  C   -0.170897
     2  C   -0.220139
     3  C   -0.171989
     4  C    0.156468
     5  C   -0.171958
     6  C   -0.219429
     7  H    0.224710
     8  H    0.233212
     9  H    0.286455
    10  H    0.272460
    11  H    0.220822
    12  N    0.489354
    13  O   -0.461931
    14  O   -0.468207
    15  C   -0.170162
    16  C   -0.219102
    17  C   -0.171306
    18  C    0.156742
    19  C   -0.171365
    20  C   -0.219611
    21  H    0.226152
    22  H    0.222648
    23  H    0.273845
    24  H    0.283723
    25  H    0.229802
    26  N    0.492565
    27  O   -0.472865
    28  O   -0.459996
 Sum of Mulliken charges =  -0.00000

 Dipole moment (field-independent basis, Debye):
    X=             -1.3598    Y=             -0.6773    Z=              0.4073  Tot=              1.5728
 Quadrupole moment (field-independent basis, Debye-Ang):
   XX=            -66.9824   YY=           -112.2667   ZZ=           -104.7041
   XY=            -25.1747   XZ=             -0.1649   YZ=             -0.4320

 Normal termination of Gaussian 16 at Thu May  6 17:57:09 2021.
