 Gaussian 16, Revision A.03,
 Gaussian 16:  EM64L-G16RevA.03 25-Dec-2016

 -------------
 #p 6-31g* mp2
 -------------

 ------------------------------------------------------
 Input file generated by CHIRIPA (05-May-2021 14:57:21)
 ------------------------------------------------------
 Symbolic Z-matrix:
 Charge =  0 Multiplicity = 1

                         Standard orientation:
 ---------------------------------------------------------------------
 Center     Atomic      Atomic             Coordinates (Angstroms)
 Number     Number       Type             X           Y           Z
 ---------------------------------------------------------------------
      1          6           0       -2.817872   -2.407592    0.220595
      2          6           0       -2.216354   -1.628801   -0.773479
      3          6           0       -2.479348   -0.258312   -0.857983
      4          6           0       -3.352855    0.303134    0.072100
      5          6           0       -3.967668   -0.446209    1.073989
      6          6           0       -3.690071   -1.814855    1.139536
      7          1           0       -2.607901   -3.471505    0.278877
      8          1           0       -1.538576   -2.086436   -1.488483
      9          1           0       -2.027355    0.368060   -1.617442
     10          1           0       -4.638913    0.038356    1.772591
     11          1           0       -4.158652   -2.417215    1.912608
     12          7           0       -3.639004    1.753034   -0.007326
     13          8           0       -4.412279    2.223714    0.824025
     14          8           0       -3.084595    2.391331   -0.899427
     15          6           0        5.229248    1.296753    0.816887
     16          6           0        5.155129   -0.074042    1.085120
     17          6           0        4.093870   -0.837952    0.590430
     18          6           0        3.119732   -0.195742   -0.172400
     19          6           0        3.165663    1.168174   -0.456855
     20          6           0        4.236030    1.912400    0.048111
     21          1           0        6.057197    1.882531    1.205166
     22          1           0        5.925048   -0.554828    1.681874
     23          1           0        4.011857   -1.900800    0.782904
     24          1           0        2.383132    1.619352   -1.054769
     25          1           0        4.291010    2.976807   -0.161794
     26          7           0        1.991404   -0.994040   -0.701545
     27          8           0        1.145883   -0.404536   -1.371033
     28          8           0        1.973907   -2.194137   -0.436783
 ---------------------------------------------------------------------

 SCF Done:  E(RHF) =  -868.341008954     A.U. after   16 cycles
 E2 =    -0.2598977204D+01 EUMP2 =    -0.87093998615830D+03

 The electronic state is 1-A.
 Alpha  occ. eigenvalues --  -20.61544 -20.61529 -20.59938 -20.59932 -15.86542
 Alpha  occ. eigenvalues --  -15.84975 -11.31576 -11.30030 -11.28125 -11.28074
 Alpha  occ. eigenvalues --  -11.27796 -11.27067 -11.27021 -11.26634 -11.26400
 Alpha  occ. eigenvalues --  -11.26221 -11.25631 -11.25269  -1.60587  -1.59019
 Alpha  occ. eigenvalues --   -1.40150  -1.38580  -1.19719  -1.18163  -1.09181
 Alpha  occ. eigenvalues --   -1.07624  -1.05070  -1.03479  -0.96072  -0.94509
 Alpha  occ. eigenvalues --   -0.86485  -0.84907  -0.82919  -0.81327  -0.77993
 Alpha  occ. eigenvalues --   -0.76411  -0.72796  -0.71869  -0.71205  -0.70826
 Alpha  occ. eigenvalues --   -0.70339  -0.69273  -0.65378  -0.65073  -0.63797
 Alpha  occ. eigenvalues --   -0.63456  -0.62417  -0.60812  -0.55592  -0.54030
 Alpha  occ. eigenvalues --   -0.53419  -0.53157  -0.51889  -0.51554  -0.49545
 Alpha  occ. eigenvalues --   -0.49509  -0.47971  -0.47929  -0.45621  -0.44053
 Alpha  occ. eigenvalues --   -0.37685  -0.36656  -0.36165  -0.35043
 Alpha virt. eigenvalues --    0.04501   0.06075   0.11002   0.12569   0.16066
 Alpha virt. eigenvalues --    0.17647   0.21161   0.22751   0.27113   0.27949
 Alpha virt. eigenvalues --    0.28834   0.29483   0.30794   0.32270   0.32302

 Mulliken charges:
               1
     1  C   -0.172842
     2  C   -0.213964
     3  C   -0.168999
     4  C    0.155251
     5  C   -0.174363
     6  C   -0.219664
     7  H    0.224257
     8  H    0.239344
     9  H    0.279200
    10  H    0.270403
    11  H    0.218176
    12  N    0.488148
    13  O   -0.465094
    14  O   -0.463082
    15  C   -0.169668
    16  C   -0.218721
    17  C   -0.170594
    18  C    0.157710
    19  C   -0.169858
    20  C   -0.218605
    21  H    0.227489
    22  H    0.224322
    23  H    0.274653
    24  H    0.278539
    25  H    0.226762
    26  N    0.491217
    27  O   -0.466914
    28  O   -0.463106
 Sum of Mulliken charges =  -0.00000

 Dipole moment (field-independent basis, Debye):
    X=              5.5124    Y=             -2.3303    Z=              1.9786  Tot=              6.3033
 Quadrupole moment (field-independent basis, Debye-Ang):
   XX=            -86.0946   YY=           -106.4730   ZZ=           -102.4466
   XY=             24.7679   XZ=              3.2947   YZ=             -3.3201

 Normal termination of Gaussian 16 at Wed May  5 22:32:07 2021.
