 Gaussian 16, Revision A.03,
 Gaussian 16:  EM64L-G16RevA.03 25-Dec-2016

 -------------
 #p 6-31g* mp2
 -------------

 ------------------------------------------------------
 Input file generated by CHIRIPA (05-May-2021 14:55:25)
 ------------------------------------------------------
 Symbolic Z-matrix:
 Charge =  0 Multiplicity = 1

                         Standard orientation:
 ---------------------------------------------------------------------
 Center     Atomic      Atomic             Coordinates (Angstroms)
 Number     Number       Type             X           Y           Z
 ---------------------------------------------------------------------
      1          6           0        2.358286   -2.231991    0.158044
      2          6           0        2.011825   -1.444186    1.260699
      3          6           0        2.153309   -0.054141    1.212693
      4          6           0        2.646545    0.517455    0.040820
      5          6           0        3.000391   -0.240461   -1.074369
      6          6           0        2.850595   -1.628678   -1.003923
      7          1           0        2.245149   -3.311102    0.204052
      8          1           0        1.629238   -1.909998    2.164408
      9          1           0        1.892730    0.579570    2.051696
     10          1           0        3.379107    0.252634   -1.961415
     11          1           0        3.120462   -2.238002   -1.861793
     12          7           0        2.800728    1.988066   -0.021881
     13          8           0        3.237520    2.467370   -1.065967
     14          8           0        2.481864    2.633580    0.974249
     15          6           0       -3.662911    0.280120    0.232765
     16          6           0       -4.888917    0.777335   -0.533832
     17          6           0       -5.493594    2.042864    0.074933
     18          1           0       -3.944492    0.087916    1.277137
     19          1           0       -2.905303    1.075700    0.254645
     20          1           0       -5.643442   -0.019435   -0.555449
     21          1           0       -4.604430    0.968196   -1.576547
     22          1           0       -4.759932    2.855447    0.081999
     23          1           0       -5.804847    1.862205    1.108900
     24          1           0       -6.368781    2.380860   -0.488688
     25          6           0       -3.047191   -0.984327   -0.363717
     26          6           0       -1.821184   -1.481540    0.402879
     27          6           0       -1.216508   -2.747070   -0.205886
     28          1           0       -3.804800   -1.779905   -0.385598
     29          1           0       -2.765611   -0.792121   -1.408090
     30          1           0       -2.105671   -1.672401    1.445595
     31          1           0       -1.066661   -0.684771    0.424496
     32          1           0       -0.905256   -2.566410   -1.239853
     33          1           0       -1.950170   -3.559652   -0.212952
     34          1           0       -0.341322   -3.085065    0.357735
 ---------------------------------------------------------------------

 SCF Done:  E(RHF) =  -669.534351604     A.U. after   15 cycles
 E2 =    -0.2093375235D+01 EUMP2 =    -0.67162772683915D+03

 The electronic state is 1-A.
 Alpha  occ. eigenvalues --  -20.60807 -20.60802 -15.85863 -11.31230 -11.27818
 Alpha  occ. eigenvalues --  -11.27813 -11.27546 -11.26817 -11.26802 -11.21914
 Alpha  occ. eigenvalues --  -11.21639 -11.21594 -11.21557 -11.21458 -11.21037
 Alpha  occ. eigenvalues --   -1.59884  -1.39437  -1.19422  -1.08825  -1.08594
 Alpha  occ. eigenvalues --   -1.04826  -1.03725  -0.96202  -0.95636  -0.87216
 Alpha  occ. eigenvalues --   -0.86219  -0.82476  -0.79801  -0.78399  -0.77516
 Alpha  occ. eigenvalues --   -0.72081  -0.71210  -0.70545  -0.65230  -0.65076
 Alpha  occ. eigenvalues --   -0.64830  -0.62173  -0.61128  -0.59636  -0.57827
 Alpha  occ. eigenvalues --   -0.55497  -0.55331  -0.53315  -0.52910  -0.52737
 Alpha  occ. eigenvalues --   -0.52516  -0.50118  -0.48840  -0.48834  -0.48124
 Alpha  occ. eigenvalues --   -0.46823  -0.45949  -0.45848  -0.44843  -0.43998
 Alpha  occ. eigenvalues --   -0.37301  -0.36394
 Alpha virt. eigenvalues --    0.05003   0.11132   0.16461   0.20716   0.22811
 Alpha virt. eigenvalues --    0.24284   0.26446   0.26624   0.27103   0.27779
 Alpha virt. eigenvalues --    0.28482   0.30642   0.31178   0.31728   0.31998

 Mulliken charges:
               1
     1  C   -0.167018
     2  C   -0.215142
     3  C   -0.172460
     4  C    0.157777
     5  C   -0.171085
     6  C   -0.219946
     7  H    0.226463
     8  H    0.224287
     9  H    0.276144
    10  H    0.275756
    11  H    0.223789
    12  N    0.488087
    13  O   -0.460437
    14  O   -0.460431
    15  C   -0.299225
    16  C   -0.299821
    17  C   -0.476180
    18  H    0.148828
    19  H    0.152738
    20  H    0.151082
    21  H    0.152719
    22  H    0.157729
    23  H    0.154735
    24  H    0.160512
    25  C   -0.298403
    26  C   -0.302443
    27  C   -0.472046
    28  H    0.148967
    29  H    0.150663
    30  H    0.148553
    31  H    0.156789
    32  H    0.155575
    33  H    0.154311
    34  H    0.149131
 Sum of Mulliken charges =  -0.00000

 Dipole moment (field-independent basis, Debye):
    X=             -0.5110    Y=             -5.1138    Z=              0.1943  Tot=              5.1429
 Quadrupole moment (field-independent basis, Debye-Ang):
   XX=            -97.6494   YY=           -101.5108   ZZ=            -90.2142
   XY=            -13.7748   XZ=             -1.4385   YZ=             -0.2714

 Normal termination of Gaussian 16 at Thu May  6 08:00:45 2021.
