 Gaussian 16, Revision A.03,
 Gaussian 16:  EM64L-G16RevA.03 25-Dec-2016

 -------------
 #p 6-31g* mp2
 -------------

 ------------------------------------------------------
 Input file generated by CHIRIPA (05-May-2021 14:55:25)
 ------------------------------------------------------
 Symbolic Z-matrix:
 Charge =  0 Multiplicity = 1

                         Standard orientation:
 ---------------------------------------------------------------------
 Center     Atomic      Atomic             Coordinates (Angstroms)
 Number     Number       Type             X           Y           Z
 ---------------------------------------------------------------------
      1          6           0       -1.239404   -2.157490    0.092999
      2          6           0       -2.535641   -2.313445    0.594965
      3          6           0       -3.453609   -1.260993    0.529945
      4          6           0       -3.039809   -0.060958   -0.046227
      5          6           0       -1.755411    0.125286   -0.555075
      6          6           0       -0.854106   -0.940767   -0.479410
      7          1           0       -0.532776   -2.980343    0.147643
      8          1           0       -2.837636   -3.257238    1.040047
      9          1           0       -4.463356   -1.354496    0.910849
     10          1           0       -1.483525    1.078011   -0.993038
     11          1           0        0.151914   -0.816797   -0.870050
     12          7           0       -4.002801    1.060426   -0.120695
     13          8           0       -3.613625    2.107608   -0.633131
     14          8           0       -5.128535    0.870951    0.334782
     15          6           0        3.576775   -0.332002   -0.347718
     16          6           0        4.179394   -1.562462    0.331108
     17          6           0        3.949036   -2.848267   -0.463519
     18          1           0        2.498662   -0.489741   -0.488197
     19          1           0        4.010652   -0.226381   -1.351705
     20          1           0        3.745533   -1.664937    1.334044
     21          1           0        5.256165   -1.401695    0.470160
     22          1           0        4.397161   -2.771172   -1.459431
     23          1           0        2.877946   -3.035910   -0.590639
     24          1           0        4.387976   -3.715358    0.039815
     25          6           0        3.798831    0.961187    0.434639
     26          6           0        3.196212    2.191646   -0.244188
     27          6           0        3.426571    3.477451    0.550440
     28          1           0        3.364954    0.855565    1.438626
     29          1           0        4.876944    1.118926    0.575117
     30          1           0        2.119441    2.030880   -0.383239
     31          1           0        3.630073    2.294121   -1.247122
     32          1           0        4.497659    3.665094    0.677559
     33          1           0        2.978444    3.400357    1.546352
     34          1           0        2.987630    4.344542    0.047106
 ---------------------------------------------------------------------

 SCF Done:  E(RHF) =  -669.535515850     A.U. after   15 cycles
 E2 =    -0.2091467365D+01 EUMP2 =    -0.67162698321503D+03

 The electronic state is 1-A.
 Alpha  occ. eigenvalues --  -20.60763 -20.60758 -15.85816 -11.31188 -11.27760
 Alpha  occ. eigenvalues --  -11.27756 -11.27504 -11.26775 -11.26751 -11.22458
 Alpha  occ. eigenvalues --  -11.22332 -11.22198 -11.22046 -11.22025 -11.21446
 Alpha  occ. eigenvalues --   -1.59838  -1.39391  -1.19362  -1.09205  -1.08755
 Alpha  occ. eigenvalues --   -1.04766  -1.04239  -0.96693  -0.95589  -0.87704
 Alpha  occ. eigenvalues --   -0.86167  -0.82423  -0.80315  -0.79024  -0.77466
 Alpha  occ. eigenvalues --   -0.72035  -0.71161  -0.70471  -0.65888  -0.65014
 Alpha  occ. eigenvalues --   -0.64747  -0.62120  -0.61630  -0.60066  -0.58297
 Alpha  occ. eigenvalues --   -0.56007  -0.55260  -0.53356  -0.53143  -0.53092
 Alpha  occ. eigenvalues --   -0.52844  -0.50632  -0.48802  -0.48789  -0.48620
 Alpha  occ. eigenvalues --   -0.47359  -0.46551  -0.46449  -0.44796  -0.44507
 Alpha  occ. eigenvalues --   -0.37343  -0.36367
 Alpha virt. eigenvalues --    0.05065   0.11245   0.16519   0.18522   0.22851
 Alpha virt. eigenvalues --    0.23295   0.24620   0.26218   0.26524   0.27884
 Alpha virt. eigenvalues --    0.29535   0.30677   0.31120   0.31178   0.31606

 Mulliken charges:
               1
     1  C   -0.173660
     2  C   -0.218543
     3  C   -0.170993
     4  C    0.158914
     5  C   -0.173324
     6  C   -0.226010
     7  H    0.226182
     8  H    0.223518
     9  H    0.275631
    10  H    0.276131
    11  H    0.234486
    12  N    0.488030
    13  O   -0.460350
    14  O   -0.460487
    15  C   -0.303361
    16  C   -0.300398
    17  C   -0.474303
    18  H    0.142106
    19  H    0.152675
    20  H    0.152925
    21  H    0.156409
    22  H    0.158605
    23  H    0.144766
    24  H    0.163648
    25  C   -0.298587
    26  C   -0.299096
    27  C   -0.476373
    28  H    0.151602
    29  H    0.152838
    30  H    0.146566
    31  H    0.153292
    32  H    0.156275
    33  H    0.157173
    34  H    0.163713
 Sum of Mulliken charges =  -0.00000

 Dipole moment (field-independent basis, Debye):
    X=              3.5981    Y=             -3.8784    Z=              0.3149  Tot=              5.2997
 Quadrupole moment (field-independent basis, Debye-Ang):
   XX=           -111.5219   YY=            -93.7829   ZZ=            -94.4545
   XY=             14.3379   XZ=             -3.1400   YZ=             -1.8503

 Normal termination of Gaussian 16 at Wed May  5 22:27:40 2021.
