 Gaussian 16, Revision A.03,
 Gaussian 16:  EM64L-G16RevA.03 25-Dec-2016

 -------------
 #p 6-31g* mp2
 -------------

 ------------------------------------------------------
 Input file generated by CHIRIPA (05-May-2021 14:53:15)
 ------------------------------------------------------
 Symbolic Z-matrix:
 Charge =  0 Multiplicity = 1

                         Standard orientation:
 ---------------------------------------------------------------------
 Center     Atomic      Atomic             Coordinates (Angstroms)
 Number     Number       Type             X           Y           Z
 ---------------------------------------------------------------------
      1          6           0       -3.445299    0.980738   -0.200172
      2          6           0       -3.592571    2.222417    0.679901
      3          6           0       -2.637568    3.347373    0.279604
      4          1           0       -2.408803    0.620783   -0.144911
      5          1           0       -3.624022    1.259225   -1.247978
      6          1           0       -3.414984    1.941394    1.725896
      7          1           0       -4.628884    2.579345    0.622689
      8          1           0       -2.818090    3.656009   -0.755170
      9          1           0       -1.597293    3.014433    0.354306
     10          1           0       -2.759761    4.225236    0.921698
     11          6           0       -4.393374   -0.152609    0.187651
     12          6           0       -4.246103   -1.394288   -0.692422
     13          6           0       -5.201105   -2.519244   -0.292125
     14          1           0       -4.214652   -0.431097    1.235457
     15          1           0       -5.429871    0.207345    0.132390
     16          1           0       -3.209789   -1.751216   -0.635210
     17          1           0       -4.423689   -1.113265   -1.738417
     18          1           0       -6.241380   -2.186305   -0.366826
     19          1           0       -5.020583   -2.827880    0.742649
     20          1           0       -5.078912   -3.397107   -0.934219
     21          6           0        0.924295   -1.622950    0.332935
     22          6           0        2.154502   -2.206894    0.652498
     23          6           0        3.345277   -1.496240    0.474802
     24          6           0        3.268645   -0.197860   -0.026823
     25          6           0        2.058390    0.411408   -0.354485
     26          6           0        0.880242   -0.317964   -0.168652
     27          1           0        0.004177   -2.182275    0.474135
     28          1           0        2.191742   -3.220197    1.042212
     29          1           0        4.311277   -1.924071    0.714015
     30          1           0        2.053175    1.423283   -0.741137
     31          1           0       -0.073725    0.138075   -0.417687
     32          7           0        4.522581    0.564385   -0.219248
     33          8           0        4.428131    1.706769   -0.662730
     34          8           0        5.576122    0.005016    0.077051
 ---------------------------------------------------------------------

 SCF Done:  E(RHF) =  -669.535512769     A.U. after   15 cycles
 E2 =    -0.2091432696D+01 EUMP2 =    -0.67162694546475D+03

 The electronic state is 1-A.
 Alpha  occ. eigenvalues --  -20.60743 -20.60738 -15.85796 -11.31165 -11.27737
 Alpha  occ. eigenvalues --  -11.27729 -11.27484 -11.26756 -11.26725 -11.22558
 Alpha  occ. eigenvalues --  -11.22454 -11.22374 -11.22278 -11.21862 -11.21791
 Alpha  occ. eigenvalues --   -1.59819  -1.39372  -1.19339  -1.09353  -1.08735
 Alpha  occ. eigenvalues --   -1.04743  -1.04372  -0.96816  -0.95569  -0.87827
 Alpha  occ. eigenvalues --   -0.86145  -0.82401  -0.80435  -0.79193  -0.77445
 Alpha  occ. eigenvalues --   -0.72015  -0.71142  -0.70451  -0.66029  -0.64991
 Alpha  occ. eigenvalues --   -0.64732  -0.62113  -0.61749  -0.60180  -0.58428
 Alpha  occ. eigenvalues --   -0.56111  -0.55248  -0.53473  -0.53258  -0.53072
 Alpha  occ. eigenvalues --   -0.52833  -0.50757  -0.48795  -0.48769  -0.48729
 Alpha  occ. eigenvalues --   -0.47476  -0.46715  -0.46625  -0.44777  -0.44649
 Alpha  occ. eigenvalues --   -0.37323  -0.36345
 Alpha virt. eigenvalues --    0.05087   0.11291   0.16560   0.18395   0.22656
 Alpha virt. eigenvalues --    0.22995   0.24772   0.26294   0.26644   0.27510
 Alpha virt. eigenvalues --    0.29445   0.30499   0.31010   0.31356   0.31771

 Mulliken charges:
               1
     1  C   -0.304187
     2  C   -0.300038
     3  C   -0.476009
     4  H    0.142120
     5  H    0.153088
     6  H    0.153663
     7  H    0.155678
     8  H    0.157167
     9  H    0.150565
    10  H    0.165180
    11  C   -0.298655
    12  C   -0.298534
    13  C   -0.476328
    14  H    0.150110
    15  H    0.154173
    16  H    0.142266
    17  H    0.155280
    18  H    0.158523
    19  H    0.155129
    20  H    0.161924
    21  C   -0.174352
    22  C   -0.218542
    23  C   -0.171174
    24  C    0.159059
    25  C   -0.173040
    26  C   -0.227416
    27  H    0.225803
    28  H    0.223380
    29  H    0.275539
    30  H    0.276400
    31  H    0.236141
    32  N    0.487948
    33  O   -0.460286
    34  O   -0.460577
 Sum of Mulliken charges =  -0.00000

 Dipole moment (field-independent basis, Debye):
    X=             -4.6679    Y=             -2.6108    Z=              0.6882  Tot=              5.3925
 Quadrupole moment (field-independent basis, Debye-Ang):
   XX=           -121.4087   YY=            -91.1791   ZZ=            -94.5859
   XY=            -11.3779   XZ=              3.9537   YZ=             -1.6612

 Normal termination of Gaussian 16 at Thu May  6 18:48:28 2021.
