 Gaussian 16, Revision A.03,
 Gaussian 16:  EM64L-G16RevA.03 25-Dec-2016

 -------------
 #p 6-31g* mp2
 -------------

 ------------------------------------------------------
 Input file generated by CHIRIPA (05-May-2021 14:55:22)
 ------------------------------------------------------
 Symbolic Z-matrix:
 Charge =  0 Multiplicity = 1

                         Standard orientation:
 ---------------------------------------------------------------------
 Center     Atomic      Atomic             Coordinates (Angstroms)
 Number     Number       Type             X           Y           Z
 ---------------------------------------------------------------------
      1          6           0       -2.707891    1.850627    1.464173
      2          6           0       -3.574920    0.756132    1.381337
      3          6           0       -3.304134   -0.299487    0.505614
      4          6           0       -2.152173   -0.227559   -0.276117
      5          6           0       -1.268933    0.849289   -0.216319
      6          6           0       -1.559689    1.893636    0.666487
      7          1           0       -2.926001    2.666279    2.147207
      8          1           0       -4.467367    0.720041    1.999626
      9          1           0       -3.958243   -1.158831    0.421424
     10          1           0       -0.387074    0.856929   -0.845353
     11          1           0       -0.884549    2.742376    0.728717
     12          7           0       -1.854933   -1.339129   -1.206955
     13          8           0       -0.833489   -1.251836   -1.884944
     14          8           0       -2.649028   -2.276624   -1.240930
     15          6           0        2.787643    0.816434    0.230999
     16          6           0        2.722777    1.553805   -1.106932
     17          6           0        2.663524    3.072768   -0.942511
     18          1           0        1.910646    1.087398    0.834655
     19          1           0        3.669537    1.160454    0.788949
     20          1           0        1.842033    1.207488   -1.662784
     21          1           0        3.599931    1.280906   -1.707550
     22          1           0        3.547912    3.437409   -0.410067
     23          1           0        1.780026    3.363575   -0.365047
     24          1           0        2.617672    3.579959   -1.911280
     25          6           0        2.847331   -0.702875    0.083121
     26          6           0        2.912198   -1.440246    1.421052
     27          6           0        2.971449   -2.959210    1.256631
     28          1           0        1.965437   -1.046895   -0.474829
     29          1           0        3.724327   -0.973839   -0.520535
     30          1           0        2.035042   -1.167347    2.021670
     31          1           0        3.792941   -1.093929    1.976904
     32          1           0        3.854947   -3.250016    0.679167
     33          1           0        2.087061   -3.323851    0.724188
     34          1           0        3.017302   -3.466400    2.225400
 ---------------------------------------------------------------------

 SCF Done:  E(RHF) =  -669.535924741     A.U. after   15 cycles
 E2 =    -0.2093438165D+01 EUMP2 =    -0.67162936290615D+03

 The electronic state is 1-A.
 Alpha  occ. eigenvalues --  -20.60939 -20.60931 -15.85964 -11.31266 -11.27840
 Alpha  occ. eigenvalues --  -11.27811 -11.27571 -11.26843 -11.26832 -11.21921
 Alpha  occ. eigenvalues --  -11.21621 -11.21560 -11.21398 -11.21100 -11.20716
 Alpha  occ. eigenvalues --   -1.59995  -1.39551  -1.19443  -1.08848  -1.08476
 Alpha  occ. eigenvalues --   -1.04838  -1.03595  -0.96037  -0.95691  -0.87054
 Alpha  occ. eigenvalues --   -0.86237  -0.82526  -0.79680  -0.78204  -0.77586
 Alpha  occ. eigenvalues --   -0.72187  -0.71307  -0.70568  -0.65267  -0.65089
 Alpha  occ. eigenvalues --   -0.64762  -0.62202  -0.60938  -0.59429  -0.57622
 Alpha  occ. eigenvalues --   -0.55355  -0.55336  -0.53165  -0.52946  -0.52742
 Alpha  occ. eigenvalues --   -0.52439  -0.49979  -0.48951  -0.48940  -0.47973
 Alpha  occ. eigenvalues --   -0.46744  -0.45774  -0.45670  -0.44879  -0.43811
 Alpha  occ. eigenvalues --   -0.37420  -0.36422
 Alpha virt. eigenvalues --    0.04890   0.11185   0.16323   0.18647   0.23196
 Alpha virt. eigenvalues --    0.23814   0.25217   0.26016   0.27729   0.28375
 Alpha virt. eigenvalues --    0.29312   0.30702   0.31563   0.31603   0.32636

 Mulliken charges:
               1
     1  C   -0.170393
     2  C   -0.218960
     3  C   -0.169771
     4  C    0.156335
     5  C   -0.177393
     6  C   -0.225549
     7  H    0.226330
     8  H    0.223844
     9  H    0.275829
    10  H    0.289512
    11  H    0.226930
    12  N    0.487320
    13  O   -0.462077
    14  O   -0.458666
    15  C   -0.301052
    16  C   -0.308513
    17  C   -0.475316
    18  H    0.142100
    19  H    0.150366
    20  H    0.155781
    21  H    0.158913
    22  H    0.158601
    23  H    0.143061
    24  H    0.163723
    25  C   -0.307141
    26  C   -0.299289
    27  C   -0.476834
    28  H    0.167032
    29  H    0.150802
    30  H    0.149301
    31  H    0.149361
    32  H    0.155389
    33  H    0.162181
    34  H    0.158244
 Sum of Mulliken charges =  -0.00000

 Dipole moment (field-independent basis, Debye):
    X=             -1.0507    Y=              3.7809    Z=              3.1687  Tot=              5.0438
 Quadrupole moment (field-independent basis, Debye-Ang):
   XX=            -85.4971   YY=            -97.2273   ZZ=            -96.8718
   XY=             -5.9894   XZ=             -8.8043   YZ=             -2.4488

 Normal termination of Gaussian 16 at Thu May  6 14:11:33 2021.
