 Gaussian 16, Revision A.03,
 Gaussian 16:  EM64L-G16RevA.03 25-Dec-2016

 -------------
 #p 6-31g* mp2
 -------------

 ------------------------------------------------------
 Input file generated by CHIRIPA (05-May-2021 14:53:15)
 ------------------------------------------------------
 Symbolic Z-matrix:
 Charge =  0 Multiplicity = 1

                         Standard orientation:
 ---------------------------------------------------------------------
 Center     Atomic      Atomic             Coordinates (Angstroms)
 Number     Number       Type             X           Y           Z
 ---------------------------------------------------------------------
      1          6           0        4.122760   -0.260919    0.211075
      2          6           0        5.479082   -0.769941   -0.278079
      3          6           0        5.662654   -2.271323   -0.054590
      4          1           0        4.016337   -0.489623    1.280333
      5          1           0        3.324319   -0.810009   -0.306988
      6          1           0        6.274723   -0.219091    0.239740
      7          1           0        5.582368   -0.539828   -1.346253
      8          1           0        4.889798   -2.837076   -0.584890
      9          1           0        5.586086   -2.514517    1.010114
     10          1           0        6.638925   -2.613928   -0.411489
     11          6           0        3.924325    1.238233   -0.005475
     12          6           0        2.568003    1.747255    0.483678
     13          6           0        2.384430    3.248637    0.260189
     14          1           0        4.722766    1.787322    0.512587
     15          1           0        4.030748    1.466937   -1.074734
     16          1           0        2.464716    1.517142    1.551852
     17          1           0        1.772362    1.196405   -0.034141
     18          1           0        2.460998    3.491830   -0.804515
     19          1           0        3.157287    3.814390    0.790489
     20          1           0        1.408159    3.591242    0.617088
     21          6           0       -0.918318   -1.562044   -0.228317
     22          6           0       -1.041481   -0.241948   -0.674076
     23          6           0       -2.269465    0.421863   -0.596892
     24          6           0       -3.358504   -0.267658   -0.066003
     25          6           0       -3.267576   -1.583088    0.386398
     26          6           0       -2.029799   -2.227227    0.299566
     27          1           0        0.039413   -2.070068   -0.292022
     28          1           0       -0.179988    0.277120   -1.084495
     29          1           0       -2.392858    1.443672   -0.934678
     30          1           0       -4.144246   -2.074418    0.790704
     31          1           0       -1.937088   -3.252447    0.646514
     32          7           0       -4.663700    0.424677    0.020814
     33          8           0       -5.608041   -0.204829    0.492597
     34          8           0       -4.717658    1.583725   -0.384565
 ---------------------------------------------------------------------

 SCF Done:  E(RHF) =  -669.535420251     A.U. after   15 cycles
 E2 =    -0.2091301760D+01 EUMP2 =    -0.67162672201163D+03

 The electronic state is 1-A.
 Alpha  occ. eigenvalues --  -20.60750 -20.60745 -15.85803 -11.31170 -11.27743
 Alpha  occ. eigenvalues --  -11.27738 -11.27484 -11.26754 -11.26736 -11.22476
 Alpha  occ. eigenvalues --  -11.22327 -11.22256 -11.22160 -11.21756 -11.21754
 Alpha  occ. eigenvalues --   -1.59825  -1.39379  -1.19344  -1.09241  -1.08738
 Alpha  occ. eigenvalues --   -1.04750  -1.04290  -0.96724  -0.95572  -0.87737
 Alpha  occ. eigenvalues --   -0.86150  -0.82406  -0.80359  -0.79068  -0.77452
 Alpha  occ. eigenvalues --   -0.72022  -0.71148  -0.70449  -0.65909  -0.64996
 Alpha  occ. eigenvalues --   -0.64755  -0.62156  -0.61640  -0.60086  -0.58337
 Alpha  occ. eigenvalues --   -0.56017  -0.55245  -0.53400  -0.53151  -0.53072
 Alpha  occ. eigenvalues --   -0.52855  -0.50663  -0.48803  -0.48776  -0.48641
 Alpha  occ. eigenvalues --   -0.47391  -0.46595  -0.46525  -0.44784  -0.44552
 Alpha  occ. eigenvalues --   -0.37318  -0.36344
 Alpha virt. eigenvalues --    0.05085   0.11220   0.16552   0.19218   0.22714
 Alpha virt. eigenvalues --    0.23364   0.25068   0.26367   0.26810   0.27790
 Alpha virt. eigenvalues --    0.29582   0.29850   0.30991   0.31311   0.31805

 Mulliken charges:
               1
     1  C   -0.296694
     2  C   -0.300179
     3  C   -0.475840
     4  H    0.151720
     5  H    0.139676
     6  H    0.154843
     7  H    0.153078
     8  H    0.152409
     9  H    0.156069
    10  H    0.163120
    11  C   -0.298789
    12  C   -0.302916
    13  C   -0.476971
    14  H    0.153525
    15  H    0.150165
    16  H    0.156169
    17  H    0.142766
    18  H    0.155100
    19  H    0.159125
    20  H    0.162929
    21  C   -0.172177
    22  C   -0.220107
    23  C   -0.172099
    24  C    0.158592
    25  C   -0.170857
    26  C   -0.218686
    27  H    0.226256
    28  H    0.227894
    29  H    0.275740
    30  H    0.275572
    31  H    0.223465
    32  N    0.488058
    33  O   -0.460503
    34  O   -0.460450
 Sum of Mulliken charges =  -0.00000

 Dipole moment (field-independent basis, Debye):
    X=              4.7755    Y=             -2.3724    Z=             -0.2356  Tot=              5.3375
 Quadrupole moment (field-independent basis, Debye-Ang):
   XX=           -124.4709   YY=            -91.1115   ZZ=            -93.7770
   XY=              9.5221   XZ=              0.3012   YZ=             -1.3339

 Normal termination of Gaussian 16 at Wed May  5 23:30:34 2021.
