 Gaussian 16, Revision A.03,
 Gaussian 16:  EM64L-G16RevA.03 25-Dec-2016

 -------------
 #p 6-31g* mp2
 -------------

 ------------------------------------------------------
 Input file generated by CHIRIPA (05-May-2021 14:53:12)
 ------------------------------------------------------
 Symbolic Z-matrix:
 Charge =  0 Multiplicity = 1

                         Standard orientation:
 ---------------------------------------------------------------------
 Center     Atomic      Atomic             Coordinates (Angstroms)
 Number     Number       Type             X           Y           Z
 ---------------------------------------------------------------------
      1          6           0        3.646835    0.664400   -0.325857
      2          6           0        3.098995    1.885758    0.413155
      3          6           0        3.186633    3.167115   -0.416447
      4          1           0        4.692816    0.851364   -0.604988
      5          1           0        3.091435    0.533082   -1.264837
      6          1           0        3.654340    2.013918    1.351122
      7          1           0        2.054255    1.695789    0.690727
      8          1           0        2.617276    3.064004   -1.345856
      9          1           0        4.226452    3.383941   -0.681708
     10          1           0        2.789616    4.027709    0.130924
     11          6           0        3.566082   -0.624258    0.490580
     12          6           0        4.113922   -1.845616   -0.248432
     13          6           0        4.026284   -3.126973    0.581169
     14          1           0        4.121481   -0.492940    1.429559
     15          1           0        2.520101   -0.811222    0.769710
     16          1           0        5.158661   -1.655647   -0.526004
     17          1           0        3.558577   -1.973776   -1.186400
     18          1           0        2.986465   -3.343799    0.846431
     19          1           0        4.595641   -3.023862    1.510579
     20          1           0        4.423301   -3.987567    0.033798
     21          6           0       -5.271872   -0.531352    0.211856
     22          6           0       -4.422434   -1.468867   -0.384836
     23          6           0       -3.060859   -1.193849   -0.543028
     24          6           0       -2.580270    0.034173   -0.091047
     25          6           0       -3.401222    0.988732    0.507405
     26          6           0       -4.759459    0.692298    0.655290
     27          1           0       -6.328280   -0.753310    0.330741
     28          1           0       -4.817613   -2.419990   -0.730154
     29          1           0       -2.380873   -1.901563   -1.001479
     30          1           0       -2.978110    1.928214    0.841718
     31          1           0       -5.416797    1.422280    1.119055
     32          7           0       -1.140599    0.336658   -0.253062
     33          8           0       -0.741836    1.425844    0.153507
     34          8           0       -0.438208   -0.521168   -0.783551
 ---------------------------------------------------------------------

 SCF Done:  E(RHF) =  -669.537046219     A.U. after   15 cycles
 E2 =    -0.2091797834D+01 EUMP2 =    -0.67162884405271D+03

 The electronic state is 1-A.
 Alpha  occ. eigenvalues --  -20.61197 -20.61186 -15.86189 -11.31431 -11.27980
 Alpha  occ. eigenvalues --  -11.27976 -11.27703 -11.26967 -11.26957 -11.20363
 Alpha  occ. eigenvalues --  -11.20100 -11.19840 -11.19707 -11.19649 -11.19519
 Alpha  occ. eigenvalues --   -1.60229  -1.39788  -1.19587  -1.09008  -1.06862
 Alpha  occ. eigenvalues --   -1.04970  -1.02058  -0.95862  -0.94557  -0.86374
 Alpha  occ. eigenvalues --   -0.85587  -0.82698  -0.78146  -0.77762  -0.76652
 Alpha  occ. eigenvalues --   -0.72402  -0.71530  -0.70695  -0.65243  -0.64975
 Alpha  occ. eigenvalues --   -0.63460  -0.62317  -0.59435  -0.57959  -0.56167
 Alpha  occ. eigenvalues --   -0.55477  -0.53837  -0.53306  -0.53059  -0.51310
 Alpha  occ. eigenvalues --   -0.51002  -0.49226  -0.49162  -0.48479  -0.46473
 Alpha  occ. eigenvalues --   -0.45299  -0.45023  -0.44213  -0.43993  -0.42297
 Alpha  occ. eigenvalues --   -0.37561  -0.36566
 Alpha virt. eigenvalues --    0.04745   0.11091   0.16257   0.21227   0.24400
 Alpha virt. eigenvalues --    0.25724   0.27161   0.27977   0.28346   0.29073
 Alpha virt. eigenvalues --    0.29343   0.30841   0.32316   0.32756   0.33123

 Mulliken charges:
               1
     1  C   -0.296035
     2  C   -0.309707
     3  C   -0.472967
     4  H    0.140403
     5  H    0.156662
     6  H    0.141151
     7  H    0.179648
     8  H    0.157126
     9  H    0.146959
    10  H    0.155153
    11  C   -0.299288
    12  C   -0.298673
    13  C   -0.474957
    14  H    0.142034
    15  H    0.160642
    16  H    0.147124
    17  H    0.154778
    18  H    0.154847
    19  H    0.151937
    20  H    0.155436
    21  C   -0.170251
    22  C   -0.218607
    23  C   -0.170520
    24  C    0.157823
    25  C   -0.170530
    26  C   -0.218580
    27  H    0.226537
    28  H    0.224333
    29  H    0.276015
    30  H    0.276211
    31  H    0.224354
    32  N    0.489184
    33  O   -0.458362
    34  O   -0.459881
 Sum of Mulliken charges =  -0.00000

 Dipole moment (field-independent basis, Debye):
    X=             -5.6407    Y=             -1.0817    Z=              0.5173  Tot=              5.7668
 Quadrupole moment (field-independent basis, Debye-Ang):
   XX=            -70.0471   YY=            -92.8367   ZZ=            -94.8926
   XY=              1.9591   XZ=             -1.3105   YZ=              3.0431

 Normal termination of Gaussian 16 at Thu May  6 00:56:27 2021.
