 Gaussian 16, Revision A.03,
 Gaussian 16:  EM64L-G16RevA.03 25-Dec-2016

 -------------
 #p 6-31g* mp2
 -------------

 ------------------------------------------------------
 Input file generated by CHIRIPA (05-May-2021 14:57:24)
 ------------------------------------------------------
 Symbolic Z-matrix:
 Charge =  0 Multiplicity = 1

                         Standard orientation:
 ---------------------------------------------------------------------
 Center     Atomic      Atomic             Coordinates (Angstroms)
 Number     Number       Type             X           Y           Z
 ---------------------------------------------------------------------
      1          6           0        2.617395    1.712964    1.066528
      2          6           0        2.287881    1.060811   -0.126216
      3          6           0        3.164042    0.129683   -0.691804
      4          6           0        4.366685   -0.126312   -0.034988
      5          6           0        4.723447    0.507086    1.154473
      6          6           0        3.831986    1.434511    1.701945
      7          1           0        1.930829    2.434849    1.498854
      8          1           0        1.345306    1.275079   -0.621885
      9          1           0        2.934055   -0.389626   -1.614215
     10          1           0        5.670346    0.272604    1.625450
     11          1           0        4.090523    1.939469    2.628347
     12          7           0        5.302336   -1.110096   -0.624161
     13          8           0        6.355708   -1.317992   -0.025978
     14          8           0        4.964611   -1.654662   -1.672983
     15          6           0       -2.847137    1.918142   -0.889021
     16          6           0       -2.219661    0.852218   -0.235875
     17          6           0       -2.966205   -0.235638    0.226501
     18          6           0       -4.344473   -0.224729    0.017827
     19          6           0       -4.998697    0.822378   -0.629358
     20          6           0       -4.232211    1.899852   -1.083336
     21          1           0       -2.259458    2.759182   -1.244943
     22          1           0       -1.144153    0.863727   -0.083573
     23          1           0       -2.506070   -1.073988    0.735286
     24          1           0       -6.072486    0.782514   -0.766490
     25          1           0       -4.722204    2.726286   -1.590248
     26          7           0       -5.145362   -1.370899    0.502877
     27          8           0       -6.358210   -1.337320    0.306635
     28          8           0       -4.545087   -2.281142    1.070119
 ---------------------------------------------------------------------

 SCF Done:  E(RHF) =  -868.336541975     A.U. after   16 cycles
 E2 =    -0.2599495752D+01 EUMP2 =    -0.87093603772686D+03

 The electronic state is 1-A.
 Alpha  occ. eigenvalues --  -20.61230 -20.61224 -20.61183 -20.61177 -15.86292
 Alpha  occ. eigenvalues --  -15.86243 -11.31808 -11.31743 -11.28460 -11.28385
 Alpha  occ. eigenvalues --  -11.28368 -11.28318 -11.28244 -11.28173 -11.27597
 Alpha  occ. eigenvalues --  -11.27498 -11.27409 -11.27357  -1.60302  -1.60256
 Alpha  occ. eigenvalues --   -1.39852  -1.39805  -1.20021  -1.19949  -1.09396
 Alpha  occ. eigenvalues --   -1.09331  -1.05459  -1.05377  -0.96194  -0.96134
 Alpha  occ. eigenvalues --   -0.86884  -0.86762  -0.83033  -0.82961  -0.78064
 Alpha  occ. eigenvalues --   -0.77960  -0.72507  -0.72459  -0.71628  -0.71581
 Alpha  occ. eigenvalues --   -0.71136  -0.71075  -0.65712  -0.65666  -0.65607
 Alpha  occ. eigenvalues --   -0.65253  -0.62890  -0.62630  -0.55982  -0.55902
 Alpha  occ. eigenvalues --   -0.53781  -0.53701  -0.53675  -0.53351  -0.49283
 Alpha  occ. eigenvalues --   -0.49250  -0.49226  -0.49203  -0.45223  -0.45180
 Alpha  occ. eigenvalues --   -0.38019  -0.37955  -0.37057  -0.36979
 Alpha virt. eigenvalues --    0.04518   0.04572   0.10483   0.10651   0.15926
 Alpha virt. eigenvalues --    0.16018   0.18127   0.21874   0.24728   0.27484
 Alpha virt. eigenvalues --    0.27618   0.28462   0.29904   0.31143   0.31615

 Mulliken charges:
               1
     1  C   -0.170911
     2  C   -0.223641
     3  C   -0.169649
     4  C    0.159079
     5  C   -0.169158
     6  C   -0.218257
     7  H    0.224441
     8  H    0.216668
     9  H    0.277555
    10  H    0.278289
    11  H    0.226081
    12  N    0.488021
    13  O   -0.458301
    14  O   -0.458928
    15  C   -0.171429
    16  C   -0.223114
    17  C   -0.170684
    18  C    0.159206
    19  C   -0.169860
    20  C   -0.218260
    21  H    0.222884
    22  H    0.218255
    23  H    0.278268
    24  H    0.277743
    25  H    0.225329
    26  N    0.487936
    27  O   -0.458815
    28  O   -0.458748
 Sum of Mulliken charges =  -0.00000

 Dipole moment (field-independent basis, Debye):
    X=             -0.4271    Y=              7.4135    Z=              0.4203  Tot=              7.4377
 Quadrupole moment (field-independent basis, Debye-Ang):
   XX=           -151.1234   YY=           -107.7420   ZZ=           -102.4723
   XY=             -4.1882   XZ=             21.4656   YZ=             -0.0671

 Normal termination of Gaussian 16 at Fri May  7 12:38:30 2021.
