 Gaussian 16, Revision A.03,
 Gaussian 16:  EM64L-G16RevA.03 25-Dec-2016

 -------------
 #p 6-31g* mp2
 -------------

 ------------------------------------------------------
 Input file generated by CHIRIPA (05-May-2021 14:55:20)
 ------------------------------------------------------
 Symbolic Z-matrix:
 Charge =  0 Multiplicity = 1

                         Standard orientation:
 ---------------------------------------------------------------------
 Center     Atomic      Atomic             Coordinates (Angstroms)
 Number     Number       Type             X           Y           Z
 ---------------------------------------------------------------------
      1          6           0        2.645788    2.488296   -0.478023
      2          6           0        1.514686    1.679538   -0.326234
      3          6           0        1.644034    0.292236   -0.211297
      4          6           0        2.925372   -0.255280   -0.252390
      5          6           0        4.071516    0.523877   -0.402590
      6          6           0        3.918349    1.908906   -0.515650
      7          1           0        2.536056    3.565103   -0.566579
      8          1           0        0.525154    2.126749   -0.296679
      9          1           0        0.785313   -0.357374   -0.092877
     10          1           0        5.044819    0.049086   -0.428539
     11          1           0        4.798553    2.534535   -0.633435
     12          7           0        3.074915   -1.722752   -0.131705
     13          8           0        4.214845   -2.180641   -0.170874
     14          8           0        2.049365   -2.387280   -0.000228
     15          6           0       -3.969224   -0.045723   -0.368271
     16          6           0       -5.489119   -0.186208   -0.458646
     17          6           0       -5.986644   -0.311054   -1.899020
     18          1           0       -3.653884    0.835035   -0.944268
     19          1           0       -3.498480   -0.916318   -0.845616
     20          1           0       -5.956863    0.683720    0.019952
     21          1           0       -5.800895   -1.066623    0.117791
     22          1           0       -5.547149   -1.188865   -2.383678
     23          1           0       -5.704003    0.571424   -2.482073
     24          1           0       -7.075807   -0.410417   -1.940359
     25          6           0       -3.456634    0.080086    1.065310
     26          6           0       -1.936740    0.220572    1.155685
     27          6           0       -1.439215    0.345418    2.596059
     28          1           0       -3.927377    0.950682    1.542655
     29          1           0       -3.771974   -0.800671    1.641306
     30          1           0       -1.624963    1.100988    0.579247
     31          1           0       -1.468994   -0.649356    0.677087
     32          1           0       -1.721854   -0.537059    3.179112
     33          1           0       -1.878709    1.223229    3.080717
     34          1           0       -0.350050    0.444780    2.637398
 ---------------------------------------------------------------------

 SCF Done:  E(RHF) =  -669.535295143     A.U. after   15 cycles
 E2 =    -0.2092448272D+01 EUMP2 =    -0.67162774341519D+03

 The electronic state is 1-A.
 Alpha  occ. eigenvalues --  -20.60734 -20.60728 -15.85784 -11.31117 -11.27704
 Alpha  occ. eigenvalues --  -11.27634 -11.27442 -11.26719 -11.26681 -11.22374
 Alpha  occ. eigenvalues --  -11.21879 -11.21861 -11.21745 -11.21539 -11.21279
 Alpha  occ. eigenvalues --   -1.59808  -1.39362  -1.19298  -1.08889  -1.08701
 Alpha  occ. eigenvalues --   -1.04704  -1.03967  -0.96375  -0.95536  -0.87388
 Alpha  occ. eigenvalues --   -0.86098  -0.82379  -0.80101  -0.78719  -0.77393
 Alpha  occ. eigenvalues --   -0.72005  -0.71130  -0.70413  -0.65547  -0.64950
 Alpha  occ. eigenvalues --   -0.64690  -0.62115  -0.61357  -0.59717  -0.57987
 Alpha  occ. eigenvalues --   -0.55639  -0.55201  -0.53121  -0.53015  -0.52814
 Alpha  occ. eigenvalues --   -0.52747  -0.50299  -0.48765  -0.48761  -0.48363
 Alpha  occ. eigenvalues --   -0.47100  -0.46230  -0.46129  -0.44774  -0.44211
 Alpha  occ. eigenvalues --   -0.37287  -0.36289
 Alpha virt. eigenvalues --    0.05086   0.11339   0.16540   0.20000   0.22762
 Alpha virt. eigenvalues --    0.23935   0.24917   0.25803   0.27486   0.28099
 Alpha virt. eigenvalues --    0.29196   0.29455   0.31410   0.31495   0.31912

 Mulliken charges:
               1
     1  C   -0.170867
     2  C   -0.225147
     3  C   -0.177945
     4  C    0.158237
     5  C   -0.170317
     6  C   -0.218938
     7  H    0.225472
     8  H    0.227518
     9  H    0.286573
    10  H    0.275366
    11  H    0.223172
    12  N    0.487627
    13  O   -0.460530
    14  O   -0.461155
    15  C   -0.299431
    16  C   -0.300102
    17  C   -0.476115
    18  H    0.146162
    19  H    0.152992
    20  H    0.151692
    21  H    0.154109
    22  H    0.157072
    23  H    0.154270
    24  H    0.161414
    25  C   -0.296794
    26  C   -0.311555
    27  C   -0.477246
    28  H    0.150202
    29  H    0.154759
    30  H    0.141962
    31  H    0.158102
    32  H    0.162111
    33  H    0.155360
    34  H    0.161970
 Sum of Mulliken charges =  -0.00000

 Dipole moment (field-independent basis, Debye):
    X=             -0.6898    Y=              5.0751    Z=             -0.3565  Tot=              5.1341
 Quadrupole moment (field-independent basis, Debye-Ang):
   XX=            -92.6288   YY=            -97.0056   ZZ=            -96.1007
   XY=             16.1241   XZ=             -2.2288   YZ=             -1.5110

 Normal termination of Gaussian 16 at Wed May  5 18:56:28 2021.
