 Gaussian 16, Revision A.03,
 Gaussian 16:  EM64L-G16RevA.03 25-Dec-2016

 -------------
 #p 6-31g* mp2
 -------------

 ------------------------------------------------------
 Input file generated by CHIRIPA (05-May-2021 14:55:20)
 ------------------------------------------------------
 Symbolic Z-matrix:
 Charge =  0 Multiplicity = 1

                         Standard orientation:
 ---------------------------------------------------------------------
 Center     Atomic      Atomic             Coordinates (Angstroms)
 Number     Number       Type             X           Y           Z
 ---------------------------------------------------------------------
      1          6           0       -0.618975   -0.834198    0.457838
      2          6           0       -1.527309   -0.781439    1.520226
      3          6           0       -2.855492   -0.404219    1.300718
      4          6           0       -3.242993   -0.084901    0.000268
      5          6           0       -2.361635   -0.127909   -1.078920
      6          6           0       -1.038298   -0.507840   -0.836063
      7          1           0        0.410907   -1.128285    0.637427
      8          1           0       -1.204458   -1.034353    2.526132
      9          1           0       -3.579550   -0.354943    2.104913
     10          1           0       -2.712978    0.129899   -2.070641
     11          1           0       -0.335060   -0.547930   -1.663042
     12          7           0       -4.646516    0.315880   -0.244475
     13          8           0       -4.962991    0.592396   -1.399472
     14          8           0       -5.403545    0.345908    0.723328
     15          6           0        3.442937    0.835563   -0.019133
     16          6           0        4.296689    2.097762    0.107144
     17          6           0        3.458119    3.374643    0.171704
     18          1           0        2.818313    0.911647   -0.919688
     19          1           0        2.754172    0.780197    0.835228
     20          1           0        4.984596    2.150011   -0.746478
     21          1           0        4.919494    2.018580    1.007400
     22          1           0        2.782475    3.348686    1.032768
     23          1           0        2.847947    3.480863   -0.731075
     24          1           0        4.088485    4.264800    0.261809
     25          6           0        4.266952   -0.449120   -0.084817
     26          6           0        3.413201   -1.711320   -0.211093
     27          6           0        4.251772   -2.988200   -0.275652
     28          1           0        4.955719   -0.393754   -0.939177
     29          1           0        4.891578   -0.525205    0.815740
     30          1           0        2.790396   -1.632138   -1.111349
     31          1           0        2.725294   -1.763568    0.642529
     32          1           0        4.861944   -3.094421    0.627126
     33          1           0        4.927415   -2.962243   -1.136717
     34          1           0        3.621405   -3.878357   -0.365757
 ---------------------------------------------------------------------

 SCF Done:  E(RHF) =  -669.535582470     A.U. after   15 cycles
 E2 =    -0.2091709911D+01 EUMP2 =    -0.67162729238110D+03

 The electronic state is 1-A.
 Alpha  occ. eigenvalues --  -20.60693 -20.60688 -15.85747 -11.31089 -11.27666
 Alpha  occ. eigenvalues --  -11.27661 -11.27327 -11.26662 -11.26650 -11.22951
 Alpha  occ. eigenvalues --  -11.22435 -11.22382 -11.22328 -11.22078 -11.21662
 Alpha  occ. eigenvalues --   -1.59770  -1.39324  -1.19259  -1.09450  -1.08647
 Alpha  occ. eigenvalues --   -1.04664  -1.04473  -0.96875  -0.95490  -0.87895
 Alpha  occ. eigenvalues --   -0.86057  -0.82335  -0.80590  -0.79271  -0.77385
 Alpha  occ. eigenvalues --   -0.71965  -0.71093  -0.70356  -0.66074  -0.64907
 Alpha  occ. eigenvalues --   -0.64671  -0.62019  -0.61868  -0.60275  -0.58502
 Alpha  occ. eigenvalues --   -0.56144  -0.55180  -0.53558  -0.53292  -0.52984
 Alpha  occ. eigenvalues --   -0.52755  -0.50820  -0.48869  -0.48722  -0.48717
 Alpha  occ. eigenvalues --   -0.47626  -0.46765  -0.46698  -0.44735  -0.44732
 Alpha  occ. eigenvalues --   -0.37219  -0.36275
 Alpha virt. eigenvalues --    0.05147   0.11369   0.16610   0.19341   0.22538
 Alpha virt. eigenvalues --    0.23582   0.23916   0.25269   0.27151   0.27949
 Alpha virt. eigenvalues --    0.29672   0.30125   0.30934   0.31244   0.31752

 Mulliken charges:
               1
     1  C   -0.176610
     2  C   -0.221719
     3  C   -0.170579
     4  C    0.158076
     5  C   -0.170813
     6  C   -0.222721
     7  H    0.238653
     8  H    0.222935
     9  H    0.275132
    10  H    0.275106
    11  H    0.223409
    12  N    0.488031
    13  O   -0.460779
    14  O   -0.460768
    15  C   -0.299798
    16  C   -0.300397
    17  C   -0.476257
    18  H    0.147205
    19  H    0.146545
    20  H    0.154102
    21  H    0.153726
    22  H    0.156161
    23  H    0.156126
    24  H    0.163114
    25  C   -0.298071
    26  C   -0.305640
    27  C   -0.475281
    28  H    0.153781
    29  H    0.153010
    30  H    0.148629
    31  H    0.145755
    32  H    0.158445
    33  H    0.159353
    34  H    0.162141
 Sum of Mulliken charges =  -0.00000

 Dipole moment (field-independent basis, Debye):
    X=              5.2541    Y=             -1.3784    Z=              0.8463  Tot=              5.4974
 Quadrupole moment (field-independent basis, Debye-Ang):
   XX=           -126.4679   YY=            -95.8502   ZZ=            -89.0219
   XY=              4.7185   XZ=             -4.0205   YZ=             -0.8110

 Normal termination of Gaussian 16 at Thu May  6 15:46:00 2021.
