 Gaussian 16, Revision A.03,
 Gaussian 16:  EM64L-G16RevA.03 25-Dec-2016

 -------------
 #p 6-31g* mp2
 -------------

 ------------------------------------------------------
 Input file generated by CHIRIPA (05-May-2021 14:55:25)
 ------------------------------------------------------
 Symbolic Z-matrix:
 Charge =  0 Multiplicity = 1

                         Standard orientation:
 ---------------------------------------------------------------------
 Center     Atomic      Atomic             Coordinates (Angstroms)
 Number     Number       Type             X           Y           Z
 ---------------------------------------------------------------------
      1          6           0        4.218180   -2.301291   -0.271108
      2          6           0        5.173990   -1.289091   -0.135467
      3          6           0        4.783841    0.051883   -0.071278
      4          6           0        3.423284    0.346123   -0.146102
      5          6           0        2.447104   -0.639810   -0.281374
      6          6           0        2.860182   -1.973997   -0.343501
      7          1           0        4.530163   -3.340356   -0.320171
      8          1           0        6.229327   -1.540326   -0.078996
      9          1           0        5.502724    0.855389    0.033617
     10          1           0        1.402449   -0.358326   -0.335038
     11          1           0        2.115678   -2.758000   -0.448854
     12          7           0        2.998114    1.762160   -0.079239
     13          8           0        1.793251    1.995179   -0.147379
     14          8           0        3.877780    2.612217    0.040041
     15          6           0       -3.975737   -0.243462    0.773674
     16          6           0       -2.515783   -0.238955    0.319252
     17          6           0       -1.535995   -0.438396    1.475986
     18          1           0       -4.122859    0.547972    1.521292
     19          1           0       -4.192280   -1.194890    1.278936
     20          1           0       -2.302437    0.711621   -0.186225
     21          1           0       -2.372163   -1.030366   -0.427512
     22          1           0       -1.720330   -1.394494    1.976484
     23          1           0       -1.650207    0.357391    2.219143
     24          1           0       -0.498119   -0.431830    1.128669
     25          6           0       -4.967258   -0.045160   -0.371441
     26          6           0       -6.427212   -0.049667    0.082980
     27          6           0       -7.406999    0.149772   -1.073754
     28          1           0       -4.750715    0.906267   -0.876703
     29          1           0       -4.820135   -0.836595   -1.119060
     30          1           0       -6.570831    0.741744    0.829745
     31          1           0       -6.640558   -1.000243    0.588457
     32          1           0       -7.292787   -0.646013   -1.816911
     33          1           0       -7.222665    1.105872   -1.574251
     34          1           0       -8.444875    0.143208   -0.726436
 ---------------------------------------------------------------------

 SCF Done:  E(RHF) =  -669.535503165     A.U. after   15 cycles
 E2 =    -0.2091024276D+01 EUMP2 =    -0.67162652744080D+03

 The electronic state is 1-A.
 Alpha  occ. eigenvalues --  -20.60778 -20.60772 -15.85829 -11.31197 -11.27765
 Alpha  occ. eigenvalues --  -11.27754 -11.27509 -11.26788 -11.26777 -11.21565
 Alpha  occ. eigenvalues --  -11.21527 -11.21342 -11.21278 -11.21129 -11.20995
 Alpha  occ. eigenvalues --   -1.59851  -1.39404  -1.19371  -1.08765  -1.08373
 Alpha  occ. eigenvalues --   -1.04776  -1.03490  -0.95950  -0.95598  -0.86966
 Alpha  occ. eigenvalues --   -0.86172  -0.82431  -0.79549  -0.78180  -0.77481
 Alpha  occ. eigenvalues --   -0.72049  -0.71172  -0.70490  -0.65025  -0.64994
 Alpha  occ. eigenvalues --   -0.64790  -0.62167  -0.60874  -0.59315  -0.57564
 Alpha  occ. eigenvalues --   -0.55278  -0.55217  -0.53116  -0.52977  -0.52559
 Alpha  occ. eigenvalues --   -0.52327  -0.49870  -0.48807  -0.48803  -0.47870
 Alpha  occ. eigenvalues --   -0.46568  -0.45728  -0.45636  -0.44809  -0.43747
 Alpha  occ. eigenvalues --   -0.37350  -0.36372
 Alpha virt. eigenvalues --    0.05028   0.11228   0.16547   0.20535   0.22952
 Alpha virt. eigenvalues --    0.23892   0.26418   0.26733   0.27615   0.27814
 Alpha virt. eigenvalues --    0.29163   0.30577   0.31477   0.31532   0.31994

 Mulliken charges:
               1
     1  C   -0.170761
     2  C   -0.218454
     3  C   -0.170676
     4  C    0.158443
     5  C   -0.176619
     6  C   -0.220081
     7  H    0.225664
     8  H    0.223524
     9  H    0.275643
    10  H    0.283972
    11  H    0.223841
    12  N    0.487606
    13  O   -0.460983
    14  O   -0.460259
    15  C   -0.298370
    16  C   -0.301642
    17  C   -0.477071
    18  H    0.152004
    19  H    0.147716
    20  H    0.161291
    21  H    0.145622
    22  H    0.151645
    23  H    0.162453
    24  H    0.154917
    25  C   -0.298547
    26  C   -0.299707
    27  C   -0.475744
    28  H    0.151993
    29  H    0.148071
    30  H    0.152851
    31  H    0.150968
    32  H    0.154424
    33  H    0.156168
    34  H    0.160096
 Sum of Mulliken charges =  -0.00000

 Dipole moment (field-independent basis, Debye):
    X=              1.4814    Y=             -4.8984    Z=             -0.2196  Tot=              5.1223
 Quadrupole moment (field-independent basis, Debye-Ang):
   XX=            -80.4518   YY=            -97.4178   ZZ=            -96.0608
   XY=            -15.4152   XZ=             -1.2265   YZ=              1.1400

 Normal termination of Gaussian 16 at Thu May  6 16:04:18 2021.
