 Gaussian 16, Revision A.03,
 Gaussian 16:  EM64L-G16RevA.03 25-Dec-2016

 -------------
 #p 6-31g* mp2
 -------------

 ------------------------------------------------------
 Input file generated by CHIRIPA (05-May-2021 14:53:15)
 ------------------------------------------------------
 Symbolic Z-matrix:
 Charge =  0 Multiplicity = 1

                         Standard orientation:
 ---------------------------------------------------------------------
 Center     Atomic      Atomic             Coordinates (Angstroms)
 Number     Number       Type             X           Y           Z
 ---------------------------------------------------------------------
      1          6           0       -3.363308   -0.565134   -0.088628
      2          6           0       -2.724496   -1.749187   -0.815210
      3          6           0       -3.284759   -3.096018   -0.357013
      4          1           0       -3.207978   -0.679681    0.992898
      5          1           0       -4.449653   -0.586232   -0.252347
      6          1           0       -1.639520   -1.725073   -0.651312
      7          1           0       -2.881198   -1.631709   -1.895145
      8          1           0       -4.363728   -3.145370   -0.535876
      9          1           0       -3.114995   -3.239264    0.715024
     10          1           0       -2.814209   -3.928589   -0.889242
     11          6           0       -2.813569    0.788205   -0.535830
     12          6           0       -3.452380    1.972258    0.190752
     13          6           0       -2.892117    3.319089   -0.267445
     14          1           0       -1.727223    0.809303   -0.372111
     15          1           0       -2.968898    0.902753   -1.617355
     16          1           0       -3.295678    1.854780    1.270687
     17          1           0       -4.537356    1.948144    0.026855
     18          1           0       -3.061881    3.462336   -1.339481
     19          1           0       -1.813148    3.368441   -0.088582
     20          1           0       -3.362667    4.151660    0.264784
     21          6           0        0.209109   -0.640402    1.340916
     22          6           0        0.592345    0.694437    1.174017
     23          6           0        1.811139    1.012699    0.567555
     24          6           0        2.625891   -0.033649    0.137876
     25          6           0        2.271993   -1.373397    0.289936
     26          6           0        1.048676   -1.668246    0.899122
     27          1           0       -0.739436   -0.878542    1.813089
     28          1           0       -0.057665    1.494737    1.516150
     29          1           0        2.132471    2.037427    0.425792
     30          1           0        2.941131   -2.149460   -0.061345
     31          1           0        0.753634   -2.705808    1.027423
     32          7           0        3.918568    0.290887   -0.505600
     33          8           0        4.618486   -0.649281   -0.875514
     34          8           0        4.207373    1.479282   -0.627860
 ---------------------------------------------------------------------

 SCF Done:  E(RHF) =  -669.533679724     A.U. after   15 cycles
 E2 =    -0.2095551475D+01 EUMP2 =    -0.67162923119883D+03

 The electronic state is 1-A.
 Alpha  occ. eigenvalues --  -20.60838 -20.60833 -15.85895 -11.31301 -11.27890
 Alpha  occ. eigenvalues --  -11.27886 -11.27613 -11.26891 -11.26879 -11.22416
 Alpha  occ. eigenvalues --  -11.22308 -11.22249 -11.22002 -11.21881 -11.21837
 Alpha  occ. eigenvalues --   -1.59913  -1.39466  -1.19500  -1.09284  -1.08848
 Alpha  occ. eigenvalues --   -1.04912  -1.04325  -0.96778  -0.95707  -0.87790
 Alpha  occ. eigenvalues --   -0.86304  -0.82534  -0.80370  -0.79044  -0.77569
 Alpha  occ. eigenvalues --   -0.72114  -0.71237  -0.70655  -0.66039  -0.65149
 Alpha  occ. eigenvalues --   -0.64770  -0.62317  -0.61688  -0.60125  -0.58369
 Alpha  occ. eigenvalues --   -0.56149  -0.55350  -0.53491  -0.53255  -0.53154
 Alpha  occ. eigenvalues --   -0.52983  -0.50737  -0.48878  -0.48865  -0.48681
 Alpha  occ. eigenvalues --   -0.47447  -0.46581  -0.46493  -0.44863  -0.44559
 Alpha  occ. eigenvalues --   -0.37338  -0.36465
 Alpha virt. eigenvalues --    0.04939   0.10919   0.16319   0.18485   0.22015
 Alpha virt. eigenvalues --    0.23834   0.25222   0.26449   0.27427   0.27768
 Alpha virt. eigenvalues --    0.29783   0.30245   0.31016   0.31573   0.32025

 Mulliken charges:
               1
     1  C   -0.299272
     2  C   -0.308419
     3  C   -0.475814
     4  H    0.138390
     5  H    0.154056
     6  H    0.156621
     7  H    0.156745
     8  H    0.158971
     9  H    0.148260
    10  H    0.162142
    11  C   -0.309209
    12  C   -0.300723
    13  C   -0.475425
    14  H    0.157927
    15  H    0.154080
    16  H    0.144527
    17  H    0.155805
    18  H    0.160185
    19  H    0.149367
    20  H    0.162889
    21  C   -0.169537
    22  C   -0.223346
    23  C   -0.171806
    24  C    0.158443
    25  C   -0.170497
    26  C   -0.219896
    27  H    0.231480
    28  H    0.227955
    29  H    0.276384
    30  H    0.276377
    31  H    0.225286
    32  N    0.488111
    33  O   -0.460074
    34  O   -0.459985
 Sum of Mulliken charges =  -0.00000

 Dipole moment (field-independent basis, Debye):
    X=             -4.5260    Y=             -1.1217    Z=              2.1391  Tot=              5.1301
 Quadrupole moment (field-independent basis, Debye-Ang):
   XX=           -118.5650   YY=            -90.9208   ZZ=            -94.3252
   XY=             -4.4741   XZ=              6.3227   YZ=              0.5668

 Normal termination of Gaussian 16 at Wed May  5 20:16:36 2021.
