 Gaussian 16, Revision A.03,
 Gaussian 16:  EM64L-G16RevA.03 25-Dec-2016

 -------------
 #p 6-31g* mp2
 -------------

 ------------------------------------------------------
 Input file generated by CHIRIPA (05-May-2021 14:51:10)
 ------------------------------------------------------
 Symbolic Z-matrix:
 Charge =  0 Multiplicity = 1

                         Standard orientation:
 ---------------------------------------------------------------------
 Center     Atomic      Atomic             Coordinates (Angstroms)
 Number     Number       Type             X           Y           Z
 ---------------------------------------------------------------------
      1          6           0       -4.320273    0.223931   -0.350089
      2          6           0       -4.598535   -1.242355   -0.017584
      3          6           0       -5.938263   -1.729856   -0.570092
      4          1           0       -5.132275    0.845011    0.052225
      5          1           0       -4.337611    0.354976   -1.440924
      6          1           0       -4.579306   -1.370866    1.072247
      7          1           0       -3.785678   -1.859997   -0.420571
      8          1           0       -5.964589   -1.630441   -1.660057
      9          1           0       -6.762726   -1.138531   -0.158758
     10          1           0       -6.116934   -2.780478   -0.320836
     11          6           0       -2.984592    0.725924    0.195519
     12          6           0       -2.706330    2.192210   -0.136986
     13          6           0       -1.366602    2.679711    0.415522
     14          1           0       -2.967253    0.594879    1.286354
     15          1           0       -2.172590    0.104844   -0.206795
     16          1           0       -3.519186    2.809852    0.266001
     17          1           0       -2.725558    2.320721   -1.226817
     18          1           0       -0.542138    2.088386    0.004188
     19          1           0       -1.340276    2.580296    1.505487
     20          1           0       -1.187930    3.730333    0.166266
     21          6           0        4.177131    0.020565   -0.172935
     22          6           0        5.595737   -0.549966   -0.178972
     23          6           0        6.634204    0.453158   -0.682085
     24          1           0        3.914396    0.343735   -1.189535
     25          1           0        4.154072    0.920636    0.456934
     26          1           0        5.615801   -1.449480   -0.807532
     27          1           0        5.855056   -0.871993    0.837723
     28          1           0        6.643486    1.347448   -0.050610
     29          1           0        6.402873    0.766679   -1.705213
     30          1           0        7.641251    0.024557   -0.678090
     31          6           0        3.127733   -0.970420    0.327505
     32          6           0        1.709128   -0.399889    0.333542
     33          6           0        0.670661   -1.403013    0.836655
     34          1           0        3.150793   -1.870490   -0.302365
     35          1           0        3.390469   -1.293591    1.344106
     36          1           0        1.449810   -0.077862   -0.683153
     37          1           0        1.689063    0.499625    0.962103
     38          1           0        0.901992   -1.716534    1.859783
     39          1           0        0.661378   -2.297303    0.205180
     40          1           0       -0.336387   -0.974411    0.832660
 ---------------------------------------------------------------------

 SCF Done:  E(RHF) =  -470.733143190     A.U. after   11 cycles
 E2 =    -0.1583267643D+01 EUMP2 =    -0.47231641083265D+03

 The electronic state is 1-A.
 Alpha  occ. eigenvalues --  -11.21606 -11.21598 -11.21591 -11.21587 -11.21417
 Alpha  occ. eigenvalues --  -11.21391 -11.21357 -11.21332 -11.21068 -11.21062
 Alpha  occ. eigenvalues --  -11.21039 -11.20981  -1.08451  -1.08408  -1.03549
 Alpha  occ. eigenvalues --   -1.03491  -0.95981  -0.95955  -0.87024  -0.86945
 Alpha  occ. eigenvalues --   -0.79607  -0.79563  -0.78279  -0.78223  -0.65087
 Alpha  occ. eigenvalues --   -0.65040  -0.60940  -0.60904  -0.59466  -0.59221
 Alpha  occ. eigenvalues --   -0.57597  -0.57567  -0.55283  -0.55231  -0.52755
 Alpha  occ. eigenvalues --   -0.52642  -0.52455  -0.52288  -0.49933  -0.49894
 Alpha  occ. eigenvalues --   -0.47912  -0.47863  -0.46623  -0.46610  -0.45793
 Alpha  occ. eigenvalues --   -0.45756  -0.45703  -0.45686  -0.43793  -0.43712
 Alpha virt. eigenvalues --    0.21236   0.23103   0.23488   0.24928   0.26237
 Alpha virt. eigenvalues --    0.26550   0.26738   0.26943   0.28209   0.29259
 Alpha virt. eigenvalues --    0.30595   0.31294   0.31356   0.31759   0.32169

 Mulliken charges:
               1
     1  C   -0.297516
     2  C   -0.300017
     3  C   -0.475691
     4  H    0.149749
     5  H    0.149422
     6  H    0.152043
     7  H    0.152293
     8  H    0.155127
     9  H    0.155165
    10  H    0.160376
    11  C   -0.304686
    12  C   -0.299097
    13  C   -0.480864
    14  H    0.149578
    15  H    0.155541
    16  H    0.151956
    17  H    0.151696
    18  H    0.161272
    19  H    0.154768
    20  H    0.160174
    21  C   -0.298321
    22  C   -0.299628
    23  C   -0.475693
    24  H    0.149435
    25  H    0.149748
    26  H    0.151852
    27  H    0.151954
    28  H    0.155244
    29  H    0.155124
    30  H    0.160208
    31  C   -0.298225
    32  C   -0.300880
    33  C   -0.484117
    34  H    0.149365
    35  H    0.149811
    36  H    0.150612
    37  H    0.154023
    38  H    0.155020
    39  H    0.154167
    40  H    0.169014
 Sum of Mulliken charges =  -0.00000

 Dipole moment (field-independent basis, Debye):
    X=             -0.0180    Y=              0.0094    Z=              0.0040  Tot=              0.0207
 Quadrupole moment (field-independent basis, Debye-Ang):
   XX=            -86.2145   YY=            -85.2747   ZZ=            -83.3119
   XY=             -1.0296   XZ=             -0.2669   YZ=              0.6175

 Normal termination of Gaussian 16 at Wed May  5 23:03:19 2021.
