 Gaussian 16, Revision A.03,
 Gaussian 16:  EM64L-G16RevA.03 25-Dec-2016

 -------------
 #p 6-31g* mp2
 -------------

 ------------------------------------------------------
 Input file generated by CHIRIPA (05-May-2021 14:57:25)
 ------------------------------------------------------
 Symbolic Z-matrix:
 Charge =  0 Multiplicity = 1

                         Standard orientation:
 ---------------------------------------------------------------------
 Center     Atomic      Atomic             Coordinates (Angstroms)
 Number     Number       Type             X           Y           Z
 ---------------------------------------------------------------------
      1          6           0        4.084381    2.500098   -0.649730
      2          6           0        5.185928    1.765416   -0.198777
      3          6           0        5.037954    0.430946    0.190890
      4          6           0        3.768330   -0.139850    0.116477
      5          6           0        2.651535    0.565917   -0.328439
      6          6           0        2.822924    1.899064   -0.713010
      7          1           0        4.208426    3.536233   -0.950453
      8          1           0        6.166776    2.229595   -0.148581
      9          1           0        5.873707   -0.160951    0.543866
     10          1           0        1.686254    0.075884   -0.367401
     11          1           0        1.965664    2.467203   -1.062821
     12          7           0        3.599282   -1.551893    0.526303
     13          8           0        2.470207   -2.031702    0.451395
     14          8           0        4.599057   -2.152106    0.914672
     15          6           0       -5.821959    1.078844    0.894077
     16          6           0       -4.589430    1.175928    1.548269
     17          6           0       -3.460338    0.530881    1.034835
     18          6           0       -3.600347   -0.206149   -0.140100
     19          6           0       -4.814631   -0.321812   -0.814953
     20          6           0       -5.930435    0.331601   -0.283370
     21          1           0       -6.693903    1.583182    1.299974
     22          1           0       -4.502232    1.755556    2.462857
     23          1           0       -2.494052    0.589331    1.520937
     24          1           0       -4.870433   -0.906891   -1.724891
     25          1           0       -6.886365    0.254453   -0.793557
     26          7           0       -2.412062   -0.893460   -0.693256
     27          8           0       -2.561685   -1.536641   -1.729870
     28          8           0       -1.353561   -0.775980   -0.079732
 ---------------------------------------------------------------------

 SCF Done:  E(RHF) =  -868.337954424     A.U. after   16 cycles
 E2 =    -0.2599155677D+01 EUMP2 =    -0.87093711010068D+03

 The electronic state is 1-A.
 Alpha  occ. eigenvalues --  -20.60924 -20.60909 -20.59800 -20.59732 -15.85962
 Alpha  occ. eigenvalues --  -15.84822 -11.31323 -11.30295 -11.27895 -11.27881
 Alpha  occ. eigenvalues --  -11.27631 -11.26975 -11.26906 -11.26893 -11.26760
 Alpha  occ. eigenvalues --  -11.26743 -11.26021 -11.25934  -1.59979  -1.58855
 Alpha  occ. eigenvalues --   -1.39534  -1.38394  -1.19494  -1.18513  -1.08888
 Alpha  occ. eigenvalues --   -1.07908  -1.04896  -1.03924  -0.95721  -0.94705
 Alpha  occ. eigenvalues --   -0.86293  -0.85322  -0.82553  -0.81525  -0.77604
 Alpha  occ. eigenvalues --   -0.76528  -0.72170  -0.71303  -0.71031  -0.70600
 Alpha  occ. eigenvalues --   -0.70190  -0.69621  -0.65147  -0.64896  -0.64163
 Alpha  occ. eigenvalues --   -0.63939  -0.62242  -0.61233  -0.55395  -0.54469
 Alpha  occ. eigenvalues --   -0.53227  -0.52986  -0.52276  -0.52010  -0.48926
 Alpha  occ. eigenvalues --   -0.48916  -0.47833  -0.47765  -0.44938  -0.43778
 Alpha  occ. eigenvalues --   -0.37476  -0.36549  -0.36500  -0.35542
 Alpha virt. eigenvalues --    0.04911   0.05982   0.11154   0.12104   0.16390
 Alpha virt. eigenvalues --    0.17421   0.21277   0.22223   0.27209   0.27936
 Alpha virt. eigenvalues --    0.28265   0.29205   0.30851   0.31703   0.32381

 Mulliken charges:
               1
     1  C   -0.171334
     2  C   -0.219783
     3  C   -0.171419
     4  C    0.155827
     5  C   -0.178334
     6  C   -0.221483
     7  H    0.221650
     8  H    0.219889
     9  H    0.273232
    10  H    0.298047
    11  H    0.221379
    12  N    0.486190
    13  O   -0.450017
    14  O   -0.466762
    15  C   -0.170773
    16  C   -0.218592
    17  C   -0.171587
    18  C    0.157811
    19  C   -0.170742
    20  C   -0.218565
    21  H    0.225962
    22  H    0.223651
    23  H    0.275333
    24  H    0.276308
    25  H    0.223971
    26  N    0.490378
    27  O   -0.457013
    28  O   -0.463222
 Sum of Mulliken charges =  -0.00000

 Dipole moment (field-independent basis, Debye):
    X=             -3.9844    Y=              7.2311    Z=              0.4788  Tot=              8.2700
 Quadrupole moment (field-independent basis, Debye-Ang):
   XX=            -65.6190   YY=           -108.2485   ZZ=           -103.7822
   XY=             11.3598   XZ=             -8.3799   YZ=              1.6816

 Normal termination of Gaussian 16 at Thu May  6 08:16:47 2021.
