 Gaussian 16, Revision A.03,
 Gaussian 16:  EM64L-G16RevA.03 25-Dec-2016

 -------------
 #p 6-31g* mp2
 -------------

 ------------------------------------------------------
 Input file generated by CHIRIPA (05-May-2021 14:55:19)
 ------------------------------------------------------
 Symbolic Z-matrix:
 Charge =  0 Multiplicity = 1

                         Standard orientation:
 ---------------------------------------------------------------------
 Center     Atomic      Atomic             Coordinates (Angstroms)
 Number     Number       Type             X           Y           Z
 ---------------------------------------------------------------------
      1          6           0        4.575600    2.137624    0.291379
      2          6           0        4.558712    1.580985   -0.991738
      3          6           0        3.865190    0.392993   -1.241237
      4          6           0        3.196432   -0.214470   -0.179615
      5          6           0        3.194578    0.315437    1.109759
      6          6           0        3.894680    1.504190    1.336190
      7          1           0        5.116900    3.060781    0.476236
      8          1           0        5.086630    2.070732   -1.805061
      9          1           0        3.835634   -0.059721   -2.224901
     10          1           0        2.658910   -0.195809    1.900395
     11          1           0        3.906068    1.934200    2.333690
     12          7           0        2.458749   -1.472548   -0.431538
     13          8           0        1.877519   -1.988270    0.520743
     14          8           0        2.475751   -1.919085   -1.576507
     15          6           0       -4.887470    0.404736    0.306325
     16          6           0       -5.776408    0.541436   -0.930237
     17          6           0       -7.053806    1.335398   -0.655149
     18          1           0       -5.458368   -0.082818    1.108392
     19          1           0       -4.625599    1.406682    0.673643
     20          1           0       -6.035389   -0.460471   -1.295929
     21          1           0       -5.203267    1.028549   -1.729516
     22          1           0       -6.812482    2.346574   -0.311803
     23          1           0       -7.649332    0.849096    0.124247
     24          1           0       -7.674445    1.420918   -1.552564
     25          6           0       -3.606638   -0.386498    0.047198
     26          6           0       -2.717700   -0.523198    1.283760
     27          6           0       -1.440302   -1.317161    1.008673
     28          1           0       -3.868508   -1.388444   -0.320120
     29          1           0       -3.035739    0.101056   -0.754868
     30          1           0       -3.290841   -1.010310    2.083039
     31          1           0       -2.458719    0.478708    1.649452
     32          1           0       -0.844776   -0.830858    0.229276
     33          1           0       -1.681626   -2.328337    0.665327
     34          1           0       -0.819663   -1.402680    1.906087
 ---------------------------------------------------------------------

 SCF Done:  E(RHF) =  -669.535492601     A.U. after   15 cycles
 E2 =    -0.2091243492D+01 EUMP2 =    -0.67162673609257D+03

 The electronic state is 1-A.
 Alpha  occ. eigenvalues --  -20.60848 -20.60810 -15.85857 -11.31231 -11.27801
 Alpha  occ. eigenvalues --  -11.27797 -11.27546 -11.26818 -11.26808 -11.21240
 Alpha  occ. eigenvalues --  -11.20947 -11.20855 -11.20793 -11.20766 -11.19905
 Alpha  occ. eigenvalues --   -1.59893  -1.39447  -1.19405  -1.08800  -1.07892
 Alpha  occ. eigenvalues --   -1.04807  -1.02927  -0.95642  -0.95335  -0.86344
 Alpha  occ. eigenvalues --   -0.86205  -0.82466  -0.78997  -0.77699  -0.77504
 Alpha  occ. eigenvalues --   -0.72081  -0.71212  -0.70513  -0.65059  -0.64811
 Alpha  occ. eigenvalues --   -0.64534  -0.62155  -0.60335  -0.58749  -0.56960
 Alpha  occ. eigenvalues --   -0.55310  -0.54640  -0.53139  -0.52900  -0.52006
 Alpha  occ. eigenvalues --   -0.51761  -0.49300  -0.48853  -0.48832  -0.47303
 Alpha  occ. eigenvalues --   -0.46082  -0.45280  -0.45175  -0.44723  -0.43138
 Alpha  occ. eigenvalues --   -0.37386  -0.36411
 Alpha virt. eigenvalues --    0.05001   0.11238   0.16476   0.21316   0.23340
 Alpha virt. eigenvalues --    0.24778   0.27134   0.27169   0.27850   0.27988
 Alpha virt. eigenvalues --    0.28839   0.30840   0.31849   0.31973   0.32300

 Mulliken charges:
               1
     1  C   -0.170767
     2  C   -0.218579
     3  C   -0.171049
     4  C    0.157940
     5  C   -0.170655
     6  C   -0.218606
     7  H    0.225735
     8  H    0.223576
     9  H    0.275716
    10  H    0.275839
    11  H    0.223614
    12  N    0.487865
    13  O   -0.456952
    14  O   -0.460094
    15  C   -0.297444
    16  C   -0.299208
    17  C   -0.475335
    18  H    0.148810
    19  H    0.147083
    20  H    0.152432
    21  H    0.151221
    22  H    0.153858
    23  H    0.154788
    24  H    0.159292
    25  C   -0.297403
    26  C   -0.302542
    27  C   -0.464673
    28  H    0.150800
    29  H    0.148582
    30  H    0.148965
    31  H    0.145327
    32  H    0.152150
    33  H    0.159135
    34  H    0.160578
 Sum of Mulliken charges =  -0.00000

 Dipole moment (field-independent basis, Debye):
    X=              2.8050    Y=              4.3120    Z=              0.8684  Tot=              5.2168
 Quadrupole moment (field-independent basis, Debye-Ang):
   XX=            -79.9574   YY=            -96.7388   ZZ=            -90.5611
   XY=             15.1773   XZ=              0.9205   YZ=             -1.4454

 Normal termination of Gaussian 16 at Wed May  5 22:06:09 2021.
