 Gaussian 16, Revision A.03,
 Gaussian 16:  EM64L-G16RevA.03 25-Dec-2016

 -------------
 #p 6-31g* mp2
 -------------

 ------------------------------------------------------
 Input file generated by CHIRIPA (05-May-2021 14:57:23)
 ------------------------------------------------------
 Symbolic Z-matrix:
 Charge =  0 Multiplicity = 1

                         Standard orientation:
 ---------------------------------------------------------------------
 Center     Atomic      Atomic             Coordinates (Angstroms)
 Number     Number       Type             X           Y           Z
 ---------------------------------------------------------------------
      1          6           0       -3.419873   -2.368845    0.581739
      2          6           0       -2.328203   -1.522055    0.800200
      3          6           0       -2.432907   -0.150210    0.551958
      4          6           0       -3.649659    0.343237    0.083647
      5          6           0       -4.755297   -0.474760   -0.143808
      6          6           0       -4.627806   -1.843422    0.111261
      7          1           0       -3.329686   -3.433291    0.777231
      8          1           0       -1.388881   -1.927328    1.165539
      9          1           0       -1.603638    0.528006    0.712439
     10          1           0       -5.678739   -0.041483   -0.508422
     11          1           0       -5.477273   -2.498675   -0.059305
     12          7           0       -3.772566    1.793863   -0.182769
     13          8           0       -4.855435    2.203869   -0.594991
     14          8           0       -2.783704    2.493391    0.025680
     15          6           0        5.693119    1.217697    0.472196
     16          6           0        4.444712    1.847478    0.435052
     17          6           0        3.294542    1.124933    0.104018
     18          6           0        3.429891   -0.231949   -0.185538
     19          6           0        4.659637   -0.887845   -0.157043
     20          6           0        5.796414   -0.145551    0.176552
     21          1           0        6.581397    1.786658    0.730345
     22          1           0        4.361492    2.906069    0.664190
     23          1           0        2.315652    1.587402    0.067750
     24          1           0        4.710987   -1.944423   -0.390335
     25          1           0        6.764641   -0.637276    0.204611
     26          7           0        2.219345   -1.007328   -0.537344
     27          8           0        2.365273   -2.201627   -0.788328
     28          8           0        1.147514   -0.406091   -0.555443
 ---------------------------------------------------------------------

 SCF Done:  E(RHF) =  -868.340072071     A.U. after   16 cycles
 E2 =    -0.2598570017D+01 EUMP2 =    -0.87093864208745D+03

 The electronic state is 1-A.
 Alpha  occ. eigenvalues --  -20.61432 -20.61406 -20.59975 -20.59969 -15.86451
 Alpha  occ. eigenvalues --  -15.85018 -11.31548 -11.30122 -11.28101 -11.28057
 Alpha  occ. eigenvalues --  -11.27784 -11.27057 -11.27014 -11.26737 -11.26553
 Alpha  occ. eigenvalues --  -11.26395 -11.25733 -11.25511  -1.60490  -1.59052
 Alpha  occ. eigenvalues --   -1.40049  -1.38613  -1.19698  -1.18277  -1.09145
 Alpha  occ. eigenvalues --   -1.07735  -1.05056  -1.03620  -0.96022  -0.94607
 Alpha  occ. eigenvalues --   -0.86469  -0.85050  -0.82862  -0.81435  -0.77937
 Alpha  occ. eigenvalues --   -0.76505  -0.72681  -0.71798  -0.71251  -0.70801
 Alpha  occ. eigenvalues --   -0.70365  -0.69404  -0.65353  -0.65053  -0.63930
 Alpha  occ. eigenvalues --   -0.63627  -0.62401  -0.60963  -0.55571  -0.54185
 Alpha  occ. eigenvalues --   -0.53407  -0.53140  -0.51990  -0.51713  -0.49435
 Alpha  occ. eigenvalues --   -0.49408  -0.48010  -0.47981  -0.45511  -0.44075
 Alpha  occ. eigenvalues --   -0.37670  -0.36649  -0.36280  -0.35189
 Alpha virt. eigenvalues --    0.04551   0.05997   0.11007   0.12439   0.16087
 Alpha virt. eigenvalues --    0.17540   0.21125   0.22535   0.27032   0.27647
 Alpha virt. eigenvalues --    0.28644   0.29343   0.30850   0.31845   0.32323

 Mulliken charges:
               1
     1  C   -0.171674
     2  C   -0.213595
     3  C   -0.164851
     4  C    0.156243
     5  C   -0.172697
     6  C   -0.219293
     7  H    0.223269
     8  H    0.229836
     9  H    0.278845
    10  H    0.271564
    11  H    0.219238
    12  N    0.488617
    13  O   -0.464096
    14  O   -0.463566
    15  C   -0.169955
    16  C   -0.218754
    17  C   -0.171378
    18  C    0.156874
    19  C   -0.170927
    20  C   -0.218702
    21  H    0.227352
    22  H    0.226909
    23  H    0.278837
    24  H    0.275128
    25  H    0.224355
    26  N    0.489929
    27  O   -0.459996
    28  O   -0.467512
 Sum of Mulliken charges =  -0.00000

 Dipole moment (field-independent basis, Debye):
    X=              5.1862    Y=             -2.3857    Z=              2.1978  Tot=              6.1171
 Quadrupole moment (field-independent basis, Debye-Ang):
   XX=            -73.8672   YY=           -107.0196   ZZ=           -106.3616
   XY=             25.9615   XZ=              1.4066   YZ=             -0.1201

 Normal termination of Gaussian 16 at Fri May  7 04:54:40 2021.
