 Gaussian 16, Revision A.03,
 Gaussian 16:  EM64L-G16RevA.03 25-Dec-2016

 -------------
 #p 6-31g* mp2
 -------------

 ------------------------------------------------------
 Input file generated by CHIRIPA (05-May-2021 14:55:19)
 ------------------------------------------------------
 Symbolic Z-matrix:
 Charge =  0 Multiplicity = 1

                         Standard orientation:
 ---------------------------------------------------------------------
 Center     Atomic      Atomic             Coordinates (Angstroms)
 Number     Number       Type             X           Y           Z
 ---------------------------------------------------------------------
      1          6           0       -3.039854   -2.575630    0.614204
      2          6           0       -1.779263   -1.981188    0.732825
      3          6           0       -1.591171   -0.640072    0.385582
      4          6           0       -2.690563    0.080301   -0.078843
      5          6           0       -3.958856   -0.483617   -0.208141
      6          6           0       -4.123716   -1.826268    0.144927
      7          1           0       -3.176945   -3.618037    0.886213
      8          1           0       -0.935717   -2.560726    1.096982
      9          1           0       -0.626149   -0.154870    0.467608
     10          1           0       -4.780729    0.119661   -0.574199
     11          1           0       -5.103849   -2.285299    0.051777
     12          7           0       -2.503736    1.500893   -0.449537
     13          8           0       -3.488355    2.113958   -0.856123
     14          8           0       -1.376218    1.974390   -0.326481
     15          6           0        3.133662    0.845138   -0.179646
     16          6           0        2.982869    1.838185    0.973222
     17          6           0        2.281467    3.130085    0.552720
     18          1           0        3.696595    1.321315   -0.994083
     19          1           0        2.139363    0.608956   -0.583358
     20          1           0        3.977045    2.071360    1.375540
     21          1           0        2.420395    1.359524    1.785086
     22          1           0        1.277882    2.916809    0.170712
     23          1           0        2.843377    3.632689   -0.241162
     24          1           0        2.184235    3.825653    1.392120
     25          6           0        3.833004   -0.451335    0.225082
     26          6           0        3.983798   -1.444381   -0.927787
     27          6           0        4.685199   -2.736282   -0.507285
     28          1           0        4.827304   -0.215153    0.628793
     29          1           0        3.270071   -0.927512    1.039518
     30          1           0        4.546272   -0.965721   -1.739651
     31          1           0        2.989621   -1.677557   -1.330105
     32          1           0        4.123290   -3.238886    0.286597
     33          1           0        5.688785   -2.523005   -0.125278
     34          1           0        4.782432   -3.431849   -1.346685
 ---------------------------------------------------------------------

 SCF Done:  E(RHF) =  -669.536077891     A.U. after   15 cycles
 E2 =    -0.2091478955D+01 EUMP2 =    -0.67162755684550D+03

 The electronic state is 1-A.
 Alpha  occ. eigenvalues --  -20.60936 -20.60924 -15.85982 -11.31297 -11.27865
 Alpha  occ. eigenvalues --  -11.27855 -11.27595 -11.26868 -11.26858 -11.21720
 Alpha  occ. eigenvalues --  -11.21425 -11.21261 -11.21207 -11.21148 -11.20086
 Alpha  occ. eigenvalues --   -1.59998  -1.39555  -1.19465  -1.08868  -1.08315
 Alpha  occ. eigenvalues --   -1.04863  -1.03301  -0.95743  -0.95695  -0.86735
 Alpha  occ. eigenvalues --   -0.86262  -0.82549  -0.79400  -0.78090  -0.77596
 Alpha  occ. eigenvalues --   -0.72211  -0.71313  -0.70575  -0.65128  -0.64986
 Alpha  occ. eigenvalues --   -0.64845  -0.62211  -0.60696  -0.59156  -0.57328
 Alpha  occ. eigenvalues --   -0.55366  -0.55002  -0.53193  -0.52956  -0.52402
 Alpha  occ. eigenvalues --   -0.52129  -0.49663  -0.48961  -0.48935  -0.47679
 Alpha  occ. eigenvalues --   -0.46451  -0.45623  -0.45524  -0.44967  -0.43580
 Alpha  occ. eigenvalues --   -0.37443  -0.36464
 Alpha virt. eigenvalues --    0.04930   0.11184   0.16438   0.19645   0.22697
 Alpha virt. eigenvalues --    0.24058   0.25981   0.27379   0.27593   0.28387
 Alpha virt. eigenvalues --    0.29343   0.30546   0.31572   0.31891   0.32169

 Mulliken charges:
               1
     1  C   -0.170467
     2  C   -0.219164
     3  C   -0.173197
     4  C    0.157420
     5  C   -0.170449
     6  C   -0.218630
     7  H    0.226092
     8  H    0.223999
     9  H    0.278453
    10  H    0.275899
    11  H    0.223876
    12  N    0.496852
    13  O   -0.458734
    14  O   -0.469732
    15  C   -0.301034
    16  C   -0.298161
    17  C   -0.487642
    18  H    0.152021
    19  H    0.150387
    20  H    0.149477
    21  H    0.145617
    22  H    0.184348
    23  H    0.151900
    24  H    0.157639
    25  C   -0.297221
    26  C   -0.299133
    27  C   -0.475034
    28  H    0.150923
    29  H    0.142406
    30  H    0.154499
    31  H    0.148674
    32  H    0.151240
    33  H    0.156613
    34  H    0.160261
 Sum of Mulliken charges =  -0.00000

 Dipole moment (field-independent basis, Debye):
    X=             -0.8210    Y=             -4.9076    Z=              1.2192  Tot=              5.1230
 Quadrupole moment (field-independent basis, Debye-Ang):
   XX=            -86.0199   YY=            -96.8656   ZZ=            -95.6127
   XY=             14.1704   XZ=             -2.7065   YZ=              0.2611

 Normal termination of Gaussian 16 at Thu May  6 15:43:20 2021.
