 Gaussian 16, Revision A.03,
 Gaussian 16:  EM64L-G16RevA.03 25-Dec-2016

 -------------
 #p 6-31g* mp2
 -------------

 ------------------------------------------------------
 Input file generated by CHIRIPA (05-May-2021 14:55:24)
 ------------------------------------------------------
 Symbolic Z-matrix:
 Charge =  0 Multiplicity = 1

                         Standard orientation:
 ---------------------------------------------------------------------
 Center     Atomic      Atomic             Coordinates (Angstroms)
 Number     Number       Type             X           Y           Z
 ---------------------------------------------------------------------
      1          6           0       -5.362553    0.279431    0.526158
      2          6           0       -4.312192    1.015242    1.084588
      3          6           0       -2.983835    0.682047    0.803525
      4          6           0       -2.740988   -0.397840   -0.043918
      5          6           0       -3.765815   -1.150228   -0.615698
      6          6           0       -5.086499   -0.799054   -0.320709
      7          1           0       -6.391473    0.545249    0.749904
      8          1           0       -4.523601    1.853304    1.742618
      9          1           0       -2.151556    1.234674    1.222253
     10          1           0       -3.523698   -1.980421   -1.268060
     11          1           0       -5.900219   -1.372278   -0.755818
     12          7           0       -1.338777   -0.760096   -0.348838
     13          8           0       -1.151316   -1.715891   -1.098472
     14          8           0       -0.453736   -0.081377    0.167573
     15          6           0        3.107170    0.744152    0.015255
     16          6           0        3.036165    2.122236   -0.643402
     17          6           0        1.635151    2.732119   -0.588669
     18          1           0        2.393223    0.071260   -0.479156
     19          1           0        2.783671    0.828633    1.061967
     20          1           0        3.361021    2.035432   -1.688174
     21          1           0        3.750501    2.791872   -0.147492
     22          1           0        1.305538    2.847610    0.448932
     23          1           0        0.913845    2.086872   -1.100504
     24          1           0        1.607145    3.717023   -1.065155
     25          6           0        4.501378    0.121475   -0.031476
     26          6           0        4.572383   -1.256608    0.627181
     27          6           0        5.973397   -1.866492    0.572449
     28          1           0        4.824878    0.036994   -1.078188
     29          1           0        5.215325    0.794368    0.462935
     30          1           0        3.858047   -1.926244    0.131271
     31          1           0        4.247526   -1.169804    1.671954
     32          1           0        6.694703   -1.221245    1.084284
     33          1           0        6.303011   -1.981983   -0.465154
     34          1           0        6.001402   -2.851396    1.048935
 ---------------------------------------------------------------------

 SCF Done:  E(RHF) =  -669.535971034     A.U. after   15 cycles
 E2 =    -0.2091910498D+01 EUMP2 =    -0.67162788153209D+03

 The electronic state is 1-A.
 Alpha  occ. eigenvalues --  -20.61034 -20.61010 -15.86032 -11.31323 -11.27884
 Alpha  occ. eigenvalues --  -11.27874 -11.27616 -11.26882 -11.26871 -11.20464
 Alpha  occ. eigenvalues --  -11.20340 -11.20174 -11.20139 -11.19781 -11.19687
 Alpha  occ. eigenvalues --   -1.60081  -1.39637  -1.19489  -1.08902  -1.07110
 Alpha  occ. eigenvalues --   -1.04879  -1.02331  -0.95749  -0.94773  -0.86281
 Alpha  occ. eigenvalues --   -0.85797  -0.82587  -0.78413  -0.77643  -0.76853
 Alpha  occ. eigenvalues --   -0.72248  -0.71389  -0.70597  -0.65145  -0.64883
 Alpha  occ. eigenvalues --   -0.63749  -0.62225  -0.59745  -0.58146  -0.56378
 Alpha  occ. eigenvalues --   -0.55387  -0.54063  -0.53213  -0.52970  -0.51544
 Alpha  occ. eigenvalues --   -0.51202  -0.49066  -0.49023  -0.48704  -0.46727
 Alpha  occ. eigenvalues --   -0.45492  -0.45001  -0.44420  -0.44168  -0.42546
 Alpha  occ. eigenvalues --   -0.37466  -0.36478
 Alpha virt. eigenvalues --    0.04861   0.11177   0.16343   0.21259   0.24115
 Alpha virt. eigenvalues --    0.25354   0.27128   0.27844   0.28068   0.29001
 Alpha virt. eigenvalues --    0.29204   0.30981   0.32133   0.32671   0.32921

 Mulliken charges:
               1
     1  C   -0.170451
     2  C   -0.218586
     3  C   -0.170640
     4  C    0.157475
     5  C   -0.170584
     6  C   -0.218637
     7  H    0.226122
     8  H    0.224077
     9  H    0.276573
    10  H    0.275779
    11  H    0.223875
    12  N    0.489487
    13  O   -0.459511
    14  O   -0.458618
    15  C   -0.301088
    16  C   -0.299247
    17  C   -0.473466
    18  H    0.174300
    19  H    0.146747
    20  H    0.147769
    21  H    0.144753
    22  H    0.149559
    23  H    0.166705
    24  H    0.149337
    25  C   -0.298013
    26  C   -0.299008
    27  C   -0.474906
    28  H    0.146142
    29  H    0.143497
    30  H    0.157479
    31  H    0.149988
    32  H    0.152099
    33  H    0.153586
    34  H    0.157408
 Sum of Mulliken charges =  -0.00000

 Dipole moment (field-independent basis, Debye):
    X=             -5.3530    Y=              1.0803    Z=              1.0558  Tot=              5.5621
 Quadrupole moment (field-independent basis, Debye-Ang):
   XX=            -70.1583   YY=            -94.3867   ZZ=            -93.0577
   XY=              0.0027   XZ=             -1.7099   YZ=              2.7387

 Normal termination of Gaussian 16 at Thu May  6 01:35:41 2021.
