 Gaussian 16, Revision A.03,
 Gaussian 16:  EM64L-G16RevA.03 25-Dec-2016

 -------------
 #p 6-31g* mp2
 -------------

 ------------------------------------------------------
 Input file generated by CHIRIPA (05-May-2021 14:55:24)
 ------------------------------------------------------
 Symbolic Z-matrix:
 Charge =  0 Multiplicity = 1

                         Standard orientation:
 ---------------------------------------------------------------------
 Center     Atomic      Atomic             Coordinates (Angstroms)
 Number     Number       Type             X           Y           Z
 ---------------------------------------------------------------------
      1          6           0       -2.320517    2.096072    1.018218
      2          6           0       -2.269830    1.011149    1.899635
      3          6           0       -2.425637   -0.295384    1.427148
      4          6           0       -2.631437   -0.481402    0.061010
      5          6           0       -2.686889    0.578933   -0.842264
      6          6           0       -2.528518    1.876888   -0.347510
      7          1           0       -2.198487    3.107686    1.393906
      8          1           0       -2.108426    1.178378    2.960780
      9          1           0       -2.390765   -1.153471    2.087366
     10          1           0       -2.849185    0.380694   -1.894775
     11          1           0       -2.568341    2.717547   -1.034351
     12          7           0       -2.797740   -1.860029   -0.450977
     13          8           0       -2.977867   -1.997285   -1.659014
     14          8           0       -2.744812   -2.777236    0.365458
     15          6           0        2.639105    0.528030   -0.432373
     16          6           0        2.423974    2.041593   -0.461173
     17          6           0        1.030795    2.431357   -0.956075
     18          1           0        2.479807    0.122186   -1.440767
     19          1           0        1.877823    0.068709    0.213281
     20          1           0        3.186286    2.498065   -1.105479
     21          1           0        2.583990    2.443908    0.547368
     22          1           0        0.258369    2.002960   -0.309210
     23          1           0        0.864087    2.057425   -1.971449
     24          1           0        0.898595    3.517738   -0.968653
     25          6           0        4.027207    0.122689    0.060170
     26          6           0        4.242337   -1.390874    0.088970
     27          6           0        5.635516   -1.780637    0.583873
     28          1           0        4.788489    0.582012   -0.585484
     29          1           0        4.186504    0.528534    1.068564
     30          1           0        4.082322   -1.793188   -0.919571
     31          1           0        3.480025   -1.847344    0.733277
     32          1           0        5.802224   -1.406704    1.599246
     33          1           0        6.407943   -1.352240   -0.062993
     34          1           0        5.767716   -2.867019    0.596451
 ---------------------------------------------------------------------

 SCF Done:  E(RHF) =  -669.534359272     A.U. after   15 cycles
 E2 =    -0.2092874042D+01 EUMP2 =    -0.67162723331465D+03

 The electronic state is 1-A.
 Alpha  occ. eigenvalues --  -20.60802 -20.60796 -15.85856 -11.31250 -11.27817
 Alpha  occ. eigenvalues --  -11.27774 -11.27524 -11.26849 -11.26787 -11.21810
 Alpha  occ. eigenvalues --  -11.21572 -11.21489 -11.21419 -11.21267 -11.21044
 Alpha  occ. eigenvalues --   -1.59876  -1.39429  -1.19427  -1.08821  -1.08517
 Alpha  occ. eigenvalues --   -1.04826  -1.03630  -0.96097  -0.95639  -0.87128
 Alpha  occ. eigenvalues --   -0.86210  -0.82466  -0.79707  -0.78320  -0.77510
 Alpha  occ. eigenvalues --   -0.72073  -0.71199  -0.70515  -0.65160  -0.65064
 Alpha  occ. eigenvalues --   -0.64816  -0.62161  -0.61050  -0.59472  -0.57721
 Alpha  occ. eigenvalues --   -0.55471  -0.55313  -0.53393  -0.52919  -0.52773
 Alpha  occ. eigenvalues --   -0.52319  -0.49989  -0.48834  -0.48827  -0.47996
 Alpha  occ. eigenvalues --   -0.46718  -0.45862  -0.45779  -0.44828  -0.43895
 Alpha  occ. eigenvalues --   -0.37339  -0.36371
 Alpha virt. eigenvalues --    0.05004   0.11202   0.16457   0.21242   0.22783
 Alpha virt. eigenvalues --    0.24236   0.26541   0.26961   0.27434   0.28064
 Alpha virt. eigenvalues --    0.28438   0.30796   0.31373   0.31676   0.31932

 Mulliken charges:
               1
     1  C   -0.173108
     2  C   -0.218088
     3  C   -0.172004
     4  C    0.159181
     5  C   -0.169883
     6  C   -0.216190
     7  H    0.226630
     8  H    0.223788
     9  H    0.275766
    10  H    0.275908
    11  H    0.225397
    12  N    0.488116
    13  O   -0.460030
    14  O   -0.460386
    15  C   -0.298612
    16  C   -0.298282
    17  C   -0.484985
    18  H    0.151787
    19  H    0.149929
    20  H    0.151890
    21  H    0.149075
    22  H    0.166660
    23  H    0.154043
    24  H    0.152427
    25  C   -0.298304
    26  C   -0.300027
    27  C   -0.475826
    28  H    0.149474
    29  H    0.148031
    30  H    0.153907
    31  H    0.153085
    32  H    0.154128
    33  H    0.154884
    34  H    0.161618
 Sum of Mulliken charges =  -0.00000

 Dipole moment (field-independent basis, Debye):
    X=              0.5092    Y=              4.7849    Z=              1.8049  Tot=              5.1393
 Quadrupole moment (field-independent basis, Debye-Ang):
   XX=            -99.4469   YY=            -99.8333   ZZ=            -89.5164
   XY=            -13.3543   XZ=             -4.8437   YZ=             -2.2274

 Normal termination of Gaussian 16 at Thu May  6 12:39:49 2021.
