 Gaussian 16, Revision A.03,
 Gaussian 16:  EM64L-G16RevA.03 25-Dec-2016

 -------------
 #p 6-31g* mp2
 -------------

 ------------------------------------------------------
 Input file generated by CHIRIPA (05-May-2021 14:57:21)
 ------------------------------------------------------
 Symbolic Z-matrix:
 Charge =  0 Multiplicity = 1

                         Standard orientation:
 ---------------------------------------------------------------------
 Center     Atomic      Atomic             Coordinates (Angstroms)
 Number     Number       Type             X           Y           Z
 ---------------------------------------------------------------------
      1          6           0        4.896790   -1.790581   -0.867651
      2          6           0        5.572948   -0.623334   -0.497700
      3          6           0        4.864498    0.497168   -0.053714
      4          6           0        3.474267    0.415230    0.008200
      5          6           0        2.771906   -0.733342   -0.353408
      6          6           0        3.500888   -1.841770   -0.794453
      7          1           0        5.455105   -2.656324   -1.211407
      8          1           0        6.656974   -0.580718   -0.553527
      9          1           0        5.362644    1.413506    0.238851
     10          1           0        1.690768   -0.745672   -0.287023
     11          1           0        2.973121   -2.746939   -1.081116
     12          7           0        2.713395    1.595064    0.476671
     13          8           0        1.489044    1.497421    0.522156
     14          8           0        3.355781    2.595121    0.789504
     15          6           0       -5.418389    1.163194   -1.000005
     16          6           0       -5.695515   -0.133771   -0.555482
     17          6           0       -4.695535   -0.909657    0.038310
     18          6           0       -3.423841   -0.354577    0.172358
     19          6           0       -3.116623    0.934432   -0.260498
     20          6           0       -4.132095    1.692224   -0.851358
     21          1           0       -6.201216    1.758893   -1.460138
     22          1           0       -6.693555   -0.547212   -0.669624
     23          1           0       -4.882626   -1.916540    0.391301
     24          1           0       -2.112106    1.319286   -0.133018
     25          1           0       -3.913998    2.699170   -1.195653
     26          7           0       -2.357006   -1.166394    0.799426
     27          8           0       -1.244765   -0.654334    0.905959
     28          8           0       -2.653263   -2.299387    1.172516
 ---------------------------------------------------------------------

 SCF Done:  E(RHF) =  -868.339322720     A.U. after   16 cycles
 E2 =    -0.2599166417D+01 EUMP2 =    -0.87093848913786D+03

 The electronic state is 1-A.
 Alpha  occ. eigenvalues --  -20.60565 -20.60539 -20.60124 -20.60082 -15.85581
 Alpha  occ. eigenvalues --  -15.85152 -11.30837 -11.30439 -11.27460 -11.27297
 Alpha  occ. eigenvalues --  -11.27176 -11.27092 -11.26877 -11.26824 -11.26452
 Alpha  occ. eigenvalues --  -11.26360 -11.26100 -11.25985  -1.59631  -1.59185
 Alpha  occ. eigenvalues --   -1.39176  -1.38731  -1.19017  -1.18632  -1.08445
 Alpha  occ. eigenvalues --   -1.08058  -1.04394  -1.04016  -0.95287  -0.94889
 Alpha  occ. eigenvalues --   -0.85800  -0.85422  -0.82111  -0.81711  -0.77168
 Alpha  occ. eigenvalues --   -0.76733  -0.71825  -0.71340  -0.70950  -0.70505
 Alpha  occ. eigenvalues --   -0.70120  -0.69742  -0.64669  -0.64399  -0.64284
 Alpha  occ. eigenvalues --   -0.64024  -0.61718  -0.61333  -0.54926  -0.54561
 Alpha  occ. eigenvalues --   -0.52751  -0.52476  -0.52373  -0.52100  -0.48589
 Alpha  occ. eigenvalues --   -0.48555  -0.48148  -0.48093  -0.44605  -0.44152
 Alpha  occ. eigenvalues --   -0.37021  -0.36650  -0.35998  -0.35621
 Alpha virt. eigenvalues --    0.05316   0.05756   0.11653   0.12028   0.16791
 Alpha virt. eigenvalues --    0.17236   0.21730   0.22211   0.27722   0.28039
 Alpha virt. eigenvalues --    0.28436   0.29269   0.31207   0.31714   0.32667

 Mulliken charges:
               1
     1  C   -0.170762
     2  C   -0.219665
     3  C   -0.171492
     4  C    0.155234
     5  C   -0.174555
     6  C   -0.220661
     7  H    0.223195
     8  H    0.220448
     9  H    0.272883
    10  H    0.293602
    11  H    0.224694
    12  N    0.488115
    13  O   -0.457348
    14  O   -0.465792
    15  C   -0.170622
    16  C   -0.219305
    17  C   -0.171461
    18  C    0.155485
    19  C   -0.174317
    20  C   -0.219772
    21  H    0.224650
    22  H    0.221774
    23  H    0.273603
    24  H    0.290211
    25  H    0.225473
    26  N    0.489072
    27  O   -0.458294
    28  O   -0.464395
 Sum of Mulliken charges =  -0.00000

 Dipole moment (field-independent basis, Debye):
    X=             -1.2361    Y=             -1.2487    Z=             -3.8324  Tot=              4.2160
 Quadrupole moment (field-independent basis, Debye-Ang):
   XX=            -57.0420   YY=           -107.2738   ZZ=           -107.2204
   XY=            -17.4329   XZ=              1.5169   YZ=              0.3607

 Normal termination of Gaussian 16 at Wed May  5 17:43:10 2021.
