 Gaussian 16, Revision A.03,
 Gaussian 16:  EM64L-G16RevA.03 25-Dec-2016

 -------------
 #p 6-31g* mp2
 -------------

 ------------------------------------------------------
 Input file generated by CHIRIPA (05-May-2021 14:57:21)
 ------------------------------------------------------
 Symbolic Z-matrix:
 Charge =  0 Multiplicity = 1

                         Standard orientation:
 ---------------------------------------------------------------------
 Center     Atomic      Atomic             Coordinates (Angstroms)
 Number     Number       Type             X           Y           Z
 ---------------------------------------------------------------------
      1          6           0       -2.849392    2.204985    0.033783
      2          6           0       -2.226463    0.952595    0.032649
      3          6           0       -2.988054   -0.219169   -0.006029
      4          6           0       -4.376570   -0.101116   -0.043130
      5          6           0       -5.026610    1.132066   -0.043040
      6          6           0       -4.245017    2.290572   -0.003999
      7          1           0       -2.250001    3.110090    0.063969
      8          1           0       -1.142786    0.883095    0.061940
      9          1           0       -2.531746   -1.201614   -0.007823
     10          1           0       -6.108802    1.169401   -0.072766
     11          1           0       -4.731511    3.261844   -0.003214
     12          7           0       -5.193420   -1.334592   -0.084269
     13          8           0       -6.415076   -1.203616   -0.116510
     14          8           0       -4.596544   -2.409011   -0.083493
     15          6           0        6.745486   -0.227657   -0.250794
     16          6           0        6.101961    1.014273   -0.253499
     17          6           0        4.715291    1.095761   -0.095213
     18          6           0        3.999910   -0.090045    0.064110
     19          6           0        4.612170   -1.342394    0.071160
     20          6           0        5.999852   -1.399959   -0.088758
     21          1           0        7.823078   -0.281667   -0.374388
     22          1           0        6.678486    1.926346   -0.379141
     23          1           0        4.191594    2.043999   -0.093466
     24          1           0        4.010647   -2.234236    0.198469
     25          1           0        6.496949   -2.365844   -0.086254
     26          7           0        2.531369   -0.016439    0.232544
     27          8           0        1.923756   -1.075791    0.371166
     28          8           0        2.015748    1.099211    0.222750
 ---------------------------------------------------------------------

 SCF Done:  E(RHF) =  -868.341366768     A.U. after   16 cycles
 E2 =    -0.2598421671D+01 EUMP2 =    -0.87093978843880D+03

 The electronic state is 1-A.
 Alpha  occ. eigenvalues --  -20.61864 -20.61858 -20.59844 -20.59831 -15.86839
 Alpha  occ. eigenvalues --  -15.84880 -11.31878 -11.30036 -11.28416 -11.28383
 Alpha  occ. eigenvalues --  -11.28082 -11.27347 -11.27323 -11.26628 -11.26432
 Alpha  occ. eigenvalues --  -11.26225 -11.25642 -11.25244  -1.60898  -1.58919
 Alpha  occ. eigenvalues --   -1.40459  -1.38478  -1.20015  -1.18163  -1.09475
 Alpha  occ. eigenvalues --   -1.07599  -1.05366  -1.03501  -0.96364  -0.94476
 Alpha  occ. eigenvalues --   -0.86780  -0.84907  -0.83209  -0.81293  -0.78292
 Alpha  occ. eigenvalues --   -0.76366  -0.73073  -0.72177  -0.71118  -0.71105
 Alpha  occ. eigenvalues --   -0.70239  -0.69277  -0.65671  -0.65366  -0.63797
 Alpha  occ. eigenvalues --   -0.63447  -0.62715  -0.60820  -0.55881  -0.54025
 Alpha  occ. eigenvalues --   -0.53713  -0.53452  -0.51891  -0.51562  -0.49838
 Alpha  occ. eigenvalues --   -0.49804  -0.47871  -0.47837  -0.45930  -0.43930
 Alpha  occ. eigenvalues --   -0.37974  -0.36952  -0.36159  -0.35108
 Alpha virt. eigenvalues --    0.04223   0.06105   0.10709   0.12536   0.15789
 Alpha virt. eigenvalues --    0.17664   0.20879   0.22815   0.26817   0.27733
 Alpha virt. eigenvalues --    0.28910   0.29511   0.30481   0.31942   0.32441

 Mulliken charges:
               1
     1  C   -0.173330
     2  C   -0.229526
     3  C   -0.174115
     4  C    0.157977
     5  C   -0.173861
     6  C   -0.218901
     7  H    0.224741
     8  H    0.251122
     9  H    0.278595
    10  H    0.271207
    11  H    0.218412
    12  N    0.488032
    13  O   -0.464536
    14  O   -0.461396
    15  C   -0.169517
    16  C   -0.218550
    17  C   -0.170317
    18  C    0.157862
    19  C   -0.170022
    20  C   -0.218587
    21  H    0.228103
    22  H    0.225148
    23  H    0.274692
    24  H    0.277474
    25  H    0.226196
    26  N    0.490021
    27  O   -0.458946
    28  O   -0.467979
 Sum of Mulliken charges =  -0.00000

 Dipole moment (field-independent basis, Debye):
    X=              8.7900    Y=              3.9818    Z=             -0.4398  Tot=              9.6598
 Quadrupole moment (field-independent basis, Debye-Ang):
   XX=            -86.3735   YY=            -99.7351   ZZ=           -106.7054
   XY=            -23.3494   XZ=             -2.9102   YZ=             -0.6243

 Normal termination of Gaussian 16 at Thu May  6 16:11:00 2021.
