 Gaussian 16, Revision A.03,
 Gaussian 16:  EM64L-G16RevA.03 25-Dec-2016

 -------------
 #p 6-31g* mp2
 -------------

 ------------------------------------------------------
 Input file generated by CHIRIPA (05-May-2021 14:51:08)
 ------------------------------------------------------
 Symbolic Z-matrix:
 Charge =  0 Multiplicity = 1

                         Standard orientation:
 ---------------------------------------------------------------------
 Center     Atomic      Atomic             Coordinates (Angstroms)
 Number     Number       Type             X           Y           Z
 ---------------------------------------------------------------------
      1          6           0        3.608927    0.411294    0.491127
      2          6           0        3.308424    1.772197   -0.137860
      3          6           0        2.219147    2.541539    0.610059
      4          1           0        2.687120   -0.185891    0.515380
      5          1           0        3.914119    0.557675    1.536510
      6          1           0        3.005223    1.623398   -1.182151
      7          1           0        4.231096    2.366139   -0.160793
      8          1           0        2.516905    2.719203    1.648508
      9          1           0        1.284067    1.972242    0.621347
     10          1           0        2.020259    3.511391    0.143486
     11          6           0        4.695782   -0.369771   -0.245359
     12          6           0        4.996284   -1.730675    0.383628
     13          6           0        6.085561   -2.500017   -0.364291
     14          1           0        4.390589   -0.516153   -1.290742
     15          1           0        5.617588    0.227413   -0.269613
     16          1           0        4.073613   -2.324617    0.406561
     17          1           0        5.299486   -1.581876    1.427919
     18          1           0        7.020641   -1.930720   -0.375579
     19          1           0        5.787803   -2.677681   -1.402740
     20          1           0        6.284450   -3.469869    0.102281
     21          6           0       -3.769504    0.639941   -0.104724
     22          6           0       -2.321062    0.514654   -0.578334
     23          6           0       -1.568198    1.844774   -0.536246
     24          1           0       -4.290545    1.377766   -0.730085
     25          1           0       -3.779863    1.035923    0.920208
     26          1           0       -2.313388    0.117724   -1.601565
     27          1           0       -1.803461   -0.223099    0.048106
     28          1           0       -1.546164    2.242871    0.483378
     29          1           0       -2.058988    2.585631   -1.175666
     30          1           0       -0.534867    1.732226   -0.878910
     31          6           0       -4.535205   -0.681464   -0.141043
     32          6           0       -5.983646   -0.556176    0.332566
     33          6           0       -6.736510   -1.886296    0.290479
     34          1           0       -4.524845   -1.077445   -1.165976
     35          1           0       -4.014165   -1.419288    0.484318
     36          1           0       -6.501247    0.181577   -0.293874
     37          1           0       -5.991320   -0.159246    1.355798
     38          1           0       -6.245721   -2.627153    0.929899
     39          1           0       -6.758545   -2.284393   -0.729146
     40          1           0       -7.769842   -1.773748    0.633142
 ---------------------------------------------------------------------

 SCF Done:  E(RHF) =  -470.732926251     A.U. after   11 cycles
 E2 =    -0.1582416789D+01 EUMP2 =    -0.47231534304056D+03

 The electronic state is 1-A.
 Alpha  occ. eigenvalues --  -11.21625 -11.21610 -11.21594 -11.21570 -11.21418
 Alpha  occ. eigenvalues --  -11.21391 -11.21358 -11.21331 -11.21078 -11.21065
 Alpha  occ. eigenvalues --  -11.21055 -11.20947  -1.08445  -1.08410  -1.03558
 Alpha  occ. eigenvalues --   -1.03489  -0.96034  -0.95909  -0.87078  -0.86900
 Alpha  occ. eigenvalues --   -0.79652  -0.79521  -0.78258  -0.78223  -0.65088
 Alpha  occ. eigenvalues --   -0.65037  -0.61024  -0.60872  -0.59366  -0.59313
 Alpha  occ. eigenvalues --   -0.57638  -0.57535  -0.55397  -0.55141  -0.52782
 Alpha  occ. eigenvalues --   -0.52595  -0.52424  -0.52305  -0.50034  -0.49750
 Alpha  occ. eigenvalues --   -0.47940  -0.47856  -0.46688  -0.46537  -0.45800
 Alpha  occ. eigenvalues --   -0.45765  -0.45721  -0.45688  -0.43787  -0.43730
 Alpha virt. eigenvalues --    0.21694   0.23023   0.23617   0.24958   0.26488
 Alpha virt. eigenvalues --    0.26709   0.27292   0.27457   0.27677   0.28957
 Alpha virt. eigenvalues --    0.31033   0.31248   0.31709   0.31904   0.32019

 Mulliken charges:
               1
     1  C   -0.298123
     2  C   -0.300370
     3  C   -0.481046
     4  H    0.149244
     5  H    0.149536
     6  H    0.151288
     7  H    0.151939
     8  H    0.154316
     9  H    0.162420
    10  H    0.160131
    11  C   -0.298246
    12  C   -0.299642
    13  C   -0.475694
    14  H    0.149451
    15  H    0.149676
    16  H    0.151879
    17  H    0.151890
    18  H    0.155179
    19  H    0.155177
    20  H    0.160208
    21  C   -0.298426
    22  C   -0.300217
    23  C   -0.479461
    24  H    0.149804
    25  H    0.149758
    26  H    0.151827
    27  H    0.151483
    28  H    0.156208
    29  H    0.155315
    30  H    0.164457
    31  C   -0.298289
    32  C   -0.299670
    33  C   -0.475713
    34  H    0.149482
    35  H    0.149612
    36  H    0.151974
    37  H    0.151999
    38  H    0.155181
    39  H    0.155165
    40  H    0.160300
 Sum of Mulliken charges =  -0.00000

 Dipole moment (field-independent basis, Debye):
    X=             -0.0276    Y=              0.0096    Z=             -0.0001  Tot=              0.0292
 Quadrupole moment (field-independent basis, Debye-Ang):
   XX=            -85.3353   YY=            -85.8227   ZZ=            -83.6965
   XY=              0.1173   XZ=              1.0650   YZ=             -0.2153

 Normal termination of Gaussian 16 at Wed May  5 15:03:50 2021.
