 Gaussian 16, Revision A.03,
 Gaussian 16:  EM64L-G16RevA.03 25-Dec-2016

 -------------
 #p 6-31g* mp2
 -------------

 ------------------------------------------------------
 Input file generated by CHIRIPA (05-May-2021 14:55:25)
 ------------------------------------------------------
 Symbolic Z-matrix:
 Charge =  0 Multiplicity = 1

                         Standard orientation:
 ---------------------------------------------------------------------
 Center     Atomic      Atomic             Coordinates (Angstroms)
 Number     Number       Type             X           Y           Z
 ---------------------------------------------------------------------
      1          6           0        0.740403    0.384649    0.828682
      2          6           0        1.824648    0.879244    1.561015
      3          6           0        3.135238    0.567034    1.187617
      4          6           0        3.325960   -0.246124    0.071512
      5          6           0        2.266420   -0.754267   -0.678459
      6          6           0        0.964355   -0.429093   -0.286751
      7          1           0       -0.274384    0.632217    1.125858
      8          1           0        1.653721    1.511429    2.427716
      9          1           0        3.992907    0.936373    1.736626
     10          1           0        2.468391   -1.382116   -1.537779
     11          1           0        0.124233   -0.814622   -0.857370
     12          7           0        4.708911   -0.583509   -0.333480
     13          8           0        4.850274   -1.301881   -1.320695
     14          8           0        5.625319   -0.123190    0.343972
     15          6           0       -4.666240   -0.058091   -0.211527
     16          6           0       -4.764423   -1.438510    0.438692
     17          6           0       -6.172464   -2.029498    0.361557
     18          1           0       -5.377983    0.621622    0.276691
     19          1           0       -4.976424   -0.132850   -1.262998
     20          1           0       -4.452825   -1.361437    1.488255
     21          1           0       -4.052227   -2.114967   -0.051003
     22          1           0       -6.489294   -2.135230   -0.681055
     23          1           0       -6.892168   -1.377419    0.866949
     24          1           0       -6.219976   -3.016403    0.832322
     25          6           0       -3.264725    0.545818   -0.142417
     26          6           0       -3.166542    1.926239   -0.792636
     27          6           0       -1.758501    2.517225   -0.715500
     28          1           0       -2.954541    0.620579    0.909055
     29          1           0       -2.552982   -0.133894   -0.630634
     30          1           0       -3.878738    2.602695   -0.302941
     31          1           0       -3.478141    1.849164   -1.842199
     32          1           0       -1.038797    1.865146   -1.220892
     33          1           0       -1.441671    2.622958    0.327111
     34          1           0       -1.710989    3.504130   -1.186265
 ---------------------------------------------------------------------

 SCF Done:  E(RHF) =  -669.534294719     A.U. after   15 cycles
 E2 =    -0.2093155932D+01 EUMP2 =    -0.67162745065085D+03

 The electronic state is 1-A.
 Alpha  occ. eigenvalues --  -20.60686 -20.60681 -15.85742 -11.31075 -11.27677
 Alpha  occ. eigenvalues --  -11.27672 -11.27312 -11.26644 -11.26633 -11.22724
 Alpha  occ. eigenvalues --  -11.22634 -11.22445 -11.22335 -11.22118 -11.21734
 Alpha  occ. eigenvalues --   -1.59764  -1.39318  -1.19260  -1.09495  -1.08646
 Alpha  occ. eigenvalues --   -1.04670  -1.04485  -0.96953  -0.95486  -0.87961
 Alpha  occ. eigenvalues --   -0.86064  -0.82338  -0.80564  -0.79337  -0.77382
 Alpha  occ. eigenvalues --   -0.71960  -0.71088  -0.70360  -0.66128  -0.64907
 Alpha  occ. eigenvalues --   -0.64678  -0.62059  -0.61837  -0.60324  -0.58588
 Alpha  occ. eigenvalues --   -0.56258  -0.55164  -0.53583  -0.53488  -0.52870
 Alpha  occ. eigenvalues --   -0.52757  -0.50888  -0.48830  -0.48720  -0.48711
 Alpha  occ. eigenvalues --   -0.47589  -0.46814  -0.46757  -0.44764  -0.44731
 Alpha  occ. eigenvalues --   -0.37168  -0.36278
 Alpha virt. eigenvalues --    0.05159   0.11255   0.16623   0.19173   0.22428
 Alpha virt. eigenvalues --    0.23401   0.24058   0.25734   0.27104   0.28122
 Alpha virt. eigenvalues --    0.29360   0.29975   0.30530   0.31406   0.31505

 Mulliken charges:
               1
     1  C   -0.168399
     2  C   -0.221831
     3  C   -0.170175
     4  C    0.157753
     5  C   -0.171126
     6  C   -0.225519
     7  H    0.234711
     8  H    0.222733
     9  H    0.275211
    10  H    0.275209
    11  H    0.224559
    12  N    0.488119
    13  O   -0.460928
    14  O   -0.460832
    15  C   -0.298207
    16  C   -0.300353
    17  C   -0.476368
    18  H    0.153129
    19  H    0.152936
    20  H    0.151843
    21  H    0.151011
    22  H    0.156788
    23  H    0.156685
    24  H    0.162739
    25  C   -0.304172
    26  C   -0.299696
    27  C   -0.480755
    28  H    0.144944
    29  H    0.144427
    30  H    0.155736
    31  H    0.156221
    32  H    0.158655
    33  H    0.147775
    34  H    0.167177
 Sum of Mulliken charges =  -0.00000

 Dipole moment (field-independent basis, Debye):
    X=             -5.1557    Y=              1.2482    Z=              1.3731  Tot=              5.4794
 Quadrupole moment (field-independent basis, Debye-Ang):
   XX=           -127.0266   YY=            -94.3038   ZZ=            -91.1277
   XY=              5.6505   XZ=              5.9715   YZ=              2.3856

 Normal termination of Gaussian 16 at Thu May  6 12:45:49 2021.
