 Gaussian 16, Revision A.03,
 Gaussian 16:  EM64L-G16RevA.03 25-Dec-2016

 -------------
 #p 6-31g* mp2
 -------------

 ------------------------------------------------------
 Input file generated by CHIRIPA (05-May-2021 14:51:09)
 ------------------------------------------------------
 Symbolic Z-matrix:
 Charge =  0 Multiplicity = 1

                         Standard orientation:
 ---------------------------------------------------------------------
 Center     Atomic      Atomic             Coordinates (Angstroms)
 Number     Number       Type             X           Y           Z
 ---------------------------------------------------------------------
      1          6           0       -5.189343   -0.609829   -0.090514
      2          6           0       -6.419120    0.245244   -0.397897
      3          6           0       -7.601915   -0.580805   -0.904288
      4          1           0       -4.895170   -1.156846   -0.996704
      5          1           0       -5.456302   -1.367540    0.659153
      6          1           0       -6.149559    1.002002   -1.145741
      7          1           0       -6.710284    0.790437    0.509078
      8          1           0       -7.898847   -1.325651   -0.158877
      9          1           0       -7.334937   -1.112884   -1.823099
     10          1           0       -8.470224    0.050308   -1.117822
     11          6           0       -3.998611    0.201718    0.416711
     12          6           0       -2.768834   -0.653355    0.724094
     13          6           0       -1.586038    0.172694    1.230484
     14          1           0       -3.731652    0.959429   -0.332956
     15          1           0       -4.292783    0.748736    1.322900
     16          1           0       -2.477669   -1.198548   -0.182882
     17          1           0       -3.038394   -1.410112    1.471938
     18          1           0       -1.853016    0.704773    2.149296
     19          1           0       -1.289106    0.917540    0.485074
     20          1           0       -0.717729   -0.458418    1.444019
     21          6           0        4.188887    0.839257   -0.289007
     22          6           0        2.703979    0.687144    0.042499
     23          6           0        1.906823    1.966298   -0.214596
     24          1           0        4.608888    1.660827    0.307288
     25          1           0        4.294022    1.132365   -1.342776
     26          1           0        2.601734    0.393063    1.094963
     27          1           0        2.287509   -0.134285   -0.554513
     28          1           0        1.979121    2.260371   -1.266687
     29          1           0        2.295131    2.790715    0.392160
     30          1           0        0.847896    1.835227    0.029034
     31          6           0        4.999066   -0.431146   -0.037190
     32          6           0        6.483974   -0.279033   -0.368696
     33          6           0        7.281131   -1.558187   -0.111601
     34          1           0        4.893931   -0.724254    1.016580
     35          1           0        4.579065   -1.252717   -0.633484
     36          1           0        6.900445    0.542396    0.228316
     37          1           0        6.586219    0.015048   -1.421159
     38          1           0        6.892822   -2.382605   -0.718357
     39          1           0        7.208832   -1.852261    0.940490
     40          1           0        8.340057   -1.427116   -0.355230
 ---------------------------------------------------------------------

 SCF Done:  E(RHF) =  -470.733216789     A.U. after   11 cycles
 E2 =    -0.1582375405D+01 EUMP2 =    -0.47231559219403D+03

 The electronic state is 1-A.
 Alpha  occ. eigenvalues --  -11.21618 -11.21607 -11.21582 -11.21547 -11.21415
 Alpha  occ. eigenvalues --  -11.21373 -11.21356 -11.21312 -11.21092 -11.21075
 Alpha  occ. eigenvalues --  -11.21057 -11.20960  -1.08443  -1.08392  -1.03552
 Alpha  occ. eigenvalues --   -1.03478  -0.96022  -0.95910  -0.87052  -0.86918
 Alpha  occ. eigenvalues --   -0.79618  -0.79542  -0.78254  -0.78207  -0.65075
 Alpha  occ. eigenvalues --   -0.65024  -0.60971  -0.60882  -0.59410  -0.59271
 Alpha  occ. eigenvalues --   -0.57635  -0.57537  -0.55287  -0.55220  -0.52825
 Alpha  occ. eigenvalues --   -0.52608  -0.52434  -0.52235  -0.49912  -0.49876
 Alpha  occ. eigenvalues --   -0.48000  -0.47787  -0.46626  -0.46586  -0.45798
 Alpha  occ. eigenvalues --   -0.45747  -0.45716  -0.45675  -0.43801  -0.43711
 Alpha virt. eigenvalues --    0.22087   0.23000   0.23451   0.24887   0.26394
 Alpha virt. eigenvalues --    0.26652   0.26887   0.27249   0.27743   0.28990
 Alpha virt. eigenvalues --    0.29904   0.31021   0.31480   0.31748   0.32447

 Mulliken charges:
               1
     1  C   -0.298299
     2  C   -0.299675
     3  C   -0.475715
     4  H    0.149663
     5  H    0.149558
     6  H    0.151986
     7  H    0.151969
     8  H    0.155187
     9  H    0.155182
    10  H    0.160290
    11  C   -0.298584
    12  C   -0.299495
    13  C   -0.480653
    14  H    0.149734
    15  H    0.149715
    16  H    0.152063
    17  H    0.152014
    18  H    0.155493
    19  H    0.158414
    20  H    0.162054
    21  C   -0.298386
    22  C   -0.298768
    23  C   -0.482983
    24  H    0.149619
    25  H    0.149356
    26  H    0.151958
    27  H    0.151519
    28  H    0.154123
    29  H    0.154799
    30  H    0.168210
    31  C   -0.298214
    32  C   -0.299607
    33  C   -0.475682
    34  H    0.149432
    35  H    0.149482
    36  H    0.151931
    37  H    0.151869
    38  H    0.155112
    39  H    0.155148
    40  H    0.160186
 Sum of Mulliken charges =  -0.00000

 Dipole moment (field-independent basis, Debye):
    X=             -0.0351    Y=             -0.0058    Z=              0.0139  Tot=              0.0382
 Quadrupole moment (field-independent basis, Debye-Ang):
   XX=            -86.1514   YY=            -85.6539   ZZ=            -83.0652
   XY=              0.2413   XZ=             -0.5730   YZ=              0.1416

 Normal termination of Gaussian 16 at Wed May  5 16:38:39 2021.
