 Gaussian 16, Revision A.03,
 Gaussian 16:  EM64L-G16RevA.03 25-Dec-2016

 -------------
 #p 6-31g* mp2
 -------------

 ------------------------------------------------------
 Input file generated by CHIRIPA (05-May-2021 14:55:25)
 ------------------------------------------------------
 Symbolic Z-matrix:
 Charge =  0 Multiplicity = 1

                         Standard orientation:
 ---------------------------------------------------------------------
 Center     Atomic      Atomic             Coordinates (Angstroms)
 Number     Number       Type             X           Y           Z
 ---------------------------------------------------------------------
      1          6           0        4.615216    2.107053    0.373070
      2          6           0        3.585019    1.696322    1.225428
      3          6           0        2.852284    0.538655    0.947119
      4          6           0        3.178020   -0.187595   -0.197322
      5          6           0        4.198721    0.195746   -1.065947
      6          6           0        4.918245    1.356777   -0.767886
      7          1           0        5.179290    3.007663    0.596939
      8          1           0        3.347479    2.277029    2.112220
      9          1           0        2.049702    0.197844    1.589870
     10          1           0        4.412297   -0.403859   -1.942461
     11          1           0        5.717781    1.673363   -1.431633
     12          7           0        2.409300   -1.414946   -0.502411
     13          8           0        2.715873   -2.037274   -1.516983
     14          8           0        1.514759   -1.731375    0.278810
     15          6           0       -4.669175    0.601865    0.114975
     16          6           0       -5.829194    0.411955   -0.862918
     17          6           0       -6.698647    1.662319   -0.998693
     18          1           0       -5.069642    0.880400    1.099349
     19          1           0       -4.050135    1.445372   -0.220703
     20          1           0       -6.445081   -0.431820   -0.526252
     21          1           0       -5.425930    0.133653   -1.845029
     22          1           0       -6.103373    2.508424   -1.356962
     23          1           0       -7.128315    1.939738   -0.030692
     24          1           0       -7.521792    1.504435   -1.702516
     25          6           0       -3.790894   -0.639463    0.261447
     26          6           0       -2.630875   -0.449554    1.239340
     27          6           0       -1.761422   -1.699918    1.375115
     28          1           0       -4.409936   -1.482970    0.597125
     29          1           0       -3.390429   -0.917998   -0.722926
     30          1           0       -3.034139   -0.171251    2.221451
     31          1           0       -2.014989    0.394221    0.902674
     32          1           0       -1.331755   -1.977337    0.407114
     33          1           0       -2.356696   -2.546022    1.733385
     34          1           0       -0.938279   -1.542033    2.078938
 ---------------------------------------------------------------------

 SCF Done:  E(RHF) =  -669.535554086     A.U. after   15 cycles
 E2 =    -0.2091143537D+01 EUMP2 =    -0.67162669762329D+03

 The electronic state is 1-A.
 Alpha  occ. eigenvalues --  -20.60880 -20.60870 -15.85910 -11.31261 -11.27829
 Alpha  occ. eigenvalues --  -11.27825 -11.27570 -11.26841 -11.26831 -11.21219
 Alpha  occ. eigenvalues --  -11.20929 -11.20832 -11.20785 -11.20723 -11.19737
 Alpha  occ. eigenvalues --   -1.59947  -1.39502  -1.19433  -1.08833  -1.07856
 Alpha  occ. eigenvalues --   -1.04833  -1.02877  -0.95681  -0.95280  -0.86299
 Alpha  occ. eigenvalues --   -0.86229  -0.82503  -0.78963  -0.77670  -0.77539
 Alpha  occ. eigenvalues --   -0.72141  -0.71266  -0.70541  -0.65090  -0.64836
 Alpha  occ. eigenvalues --   -0.64490  -0.62181  -0.60267  -0.58710  -0.56914
 Alpha  occ. eigenvalues --   -0.55336  -0.54560  -0.53164  -0.52925  -0.51956
 Alpha  occ. eigenvalues --   -0.51717  -0.49270  -0.48894  -0.48837  -0.47258
 Alpha  occ. eigenvalues --   -0.46019  -0.45199  -0.45149  -0.44822  -0.43129
 Alpha  occ. eigenvalues --   -0.37414  -0.36436
 Alpha virt. eigenvalues --    0.04962   0.11217   0.16444   0.21148   0.23367
 Alpha virt. eigenvalues --    0.24588   0.26920   0.27231   0.27699   0.28109
 Alpha virt. eigenvalues --    0.29143   0.30745   0.31728   0.32147   0.32335

 Mulliken charges:
               1
     1  C   -0.170658
     2  C   -0.218664
     3  C   -0.171077
     4  C    0.157811
     5  C   -0.170793
     6  C   -0.218593
     7  H    0.225886
     8  H    0.223866
     9  H    0.276211
    10  H    0.275745
    11  H    0.223685
    12  N    0.491190
    13  O   -0.459982
    14  O   -0.461599
    15  C   -0.297425
    16  C   -0.299312
    17  C   -0.475298
    18  H    0.147700
    19  H    0.147265
    20  H    0.151817
    21  H    0.152359
    22  H    0.153965
    23  H    0.154188
    24  H    0.159386
    25  C   -0.297975
    26  C   -0.300307
    27  C   -0.473521
    28  H    0.148935
    29  H    0.151779
    30  H    0.145961
    31  H    0.146122
    32  H    0.174380
    33  H    0.148328
    34  H    0.158624
 Sum of Mulliken charges =  -0.00000

 Dipole moment (field-independent basis, Debye):
    X=              2.9433    Y=              4.2205    Z=              1.0005  Tot=              5.2418
 Quadrupole moment (field-independent basis, Debye-Ang):
   XX=            -77.5001   YY=            -97.4686   ZZ=            -91.7447
   XY=             14.1116   XZ=             -0.1183   YZ=             -0.3411

 Normal termination of Gaussian 16 at Thu May  6 16:03:22 2021.
