 Gaussian 16, Revision A.03,
 Gaussian 16:  EM64L-G16RevA.03 25-Dec-2016

 -------------
 #p 6-31g* mp2
 -------------

 ------------------------------------------------------
 Input file generated by CHIRIPA (05-May-2021 14:51:14)
 ------------------------------------------------------
 Symbolic Z-matrix:
 Charge =  0 Multiplicity = 1

                         Standard orientation:
 ---------------------------------------------------------------------
 Center     Atomic      Atomic             Coordinates (Angstroms)
 Number     Number       Type             X           Y           Z
 ---------------------------------------------------------------------
      1          6           0       -3.367350    0.064853    0.185114
      2          6           0       -2.911271    1.505738    0.417121
      3          6           0       -1.396584    1.626197    0.587440
      4          1           0       -3.041380   -0.556782    1.030252
      5          1           0       -2.864339   -0.332386   -0.707397
      6          1           0       -3.416044    1.900602    1.308133
      7          1           0       -3.238530    2.124054   -0.428576
      8          1           0       -0.878214    1.258018   -0.303816
      9          1           0       -1.056736    1.033297    1.442761
     10          1           0       -1.092428    2.664574    0.752130
     11          6           0       -4.879115   -0.071801    0.013010
     12          6           0       -5.335193   -1.512686   -0.218996
     13          6           0       -6.849880   -1.633145   -0.389315
     14          1           0       -5.382125    0.325438    0.905522
     15          1           0       -5.205084    0.549834   -0.832127
     16          1           0       -5.007934   -2.131002    0.626701
     17          1           0       -4.830420   -1.907550   -1.110008
     18          1           0       -7.189728   -1.040245   -1.244636
     19          1           0       -7.368250   -1.264966    0.501941
     20          1           0       -7.154037   -2.671522   -0.554005
     21          6           0        3.495075    0.409221    0.056566
     22          6           0        3.485342    1.788646   -0.603037
     23          6           0        2.222258    2.588365   -0.282319
     24          1           0        2.610140   -0.153215   -0.271306
     25          1           0        3.403025    0.530201    1.144815
     26          1           0        3.578776    1.665160   -1.689609
     27          1           0        4.370505    2.347793   -0.273707
     28          1           0        2.126754    2.740975    0.797584
     29          1           0        1.330526    2.054465   -0.626363
     30          1           0        2.236203    3.571087   -0.763904
     31          6           0        4.751389   -0.402272   -0.254690
     32          6           0        4.761122   -1.781698    0.404913
     33          6           0        6.024206   -2.581417    0.084194
     34          1           0        4.843440   -0.523253   -1.342939
     35          1           0        5.636325    0.160163    0.073181
     36          1           0        3.875960   -2.340844    0.075582
     37          1           0        4.667688   -1.658212    1.491484
     38          1           0        6.915938   -2.047517    0.428238
     39          1           0        6.119710   -2.734028   -0.995709
     40          1           0        6.010261   -3.564138    0.565779
 ---------------------------------------------------------------------

 SCF Done:  E(RHF) =  -470.732803527     A.U. after   11 cycles
 E2 =    -0.1582551880D+01 EUMP2 =    -0.47231535540694D+03

 The electronic state is 1-A.
 Alpha  occ. eigenvalues --  -11.21600 -11.21571 -11.21568 -11.21517 -11.21398
 Alpha  occ. eigenvalues --  -11.21355 -11.21339 -11.21293 -11.21070 -11.21048
 Alpha  occ. eigenvalues --  -11.21021 -11.20900  -1.08422  -1.08373  -1.03531
 Alpha  occ. eigenvalues --   -1.03452  -0.96013  -0.95870  -0.87073  -0.86847
 Alpha  occ. eigenvalues --   -0.79671  -0.79445  -0.78247  -0.78171  -0.65065
 Alpha  occ. eigenvalues --   -0.64997  -0.60996  -0.60802  -0.59338  -0.59284
 Alpha  occ. eigenvalues --   -0.57597  -0.57513  -0.55417  -0.55070  -0.52818
 Alpha  occ. eigenvalues --   -0.52599  -0.52426  -0.52159  -0.50086  -0.49682
 Alpha  occ. eigenvalues --   -0.47986  -0.47749  -0.46712  -0.46446  -0.45825
 Alpha  occ. eigenvalues --   -0.45720  -0.45681  -0.45584  -0.43762  -0.43710
 Alpha virt. eigenvalues --    0.22379   0.22999   0.23652   0.24720   0.26063
 Alpha virt. eigenvalues --    0.26772   0.26879   0.27528   0.27767   0.29183
 Alpha virt. eigenvalues --    0.29941   0.31237   0.31724   0.31916   0.32263

 Mulliken charges:
               1
     1  C   -0.298419
     2  C   -0.300317
     3  C   -0.476138
     4  H    0.149642
     5  H    0.149174
     6  H    0.151741
     7  H    0.151823
     8  H    0.154956
     9  H    0.155287
    10  H    0.162791
    11  C   -0.298216
    12  C   -0.299619
    13  C   -0.475697
    14  H    0.149569
    15  H    0.149622
    16  H    0.151934
    17  H    0.151805
    18  H    0.155169
    19  H    0.155202
    20  H    0.160223
    21  C   -0.297963
    22  C   -0.299897
    23  C   -0.480127
    24  H    0.149368
    25  H    0.149469
    26  H    0.151143
    27  H    0.151321
    28  H    0.154958
    29  H    0.162896
    30  H    0.158809
    31  C   -0.298207
    32  C   -0.299589
    33  C   -0.475664
    34  H    0.149302
    35  H    0.149570
    36  H    0.151878
    37  H    0.151847
    38  H    0.155131
    39  H    0.155101
    40  H    0.160124
 Sum of Mulliken charges =  -0.00000

 Dipole moment (field-independent basis, Debye):
    X=             -0.0299    Y=              0.0100    Z=              0.0131  Tot=              0.0341
 Quadrupole moment (field-independent basis, Debye-Ang):
   XX=            -86.7094   YY=            -85.2165   ZZ=            -83.1026
   XY=              0.4675   XZ=              0.2703   YZ=              0.0950

 Normal termination of Gaussian 16 at Wed May  5 21:38:01 2021.
