 Gaussian 16, Revision A.03,
 Gaussian 16:  EM64L-G16RevA.03 25-Dec-2016

 -------------
 #p 6-31g* mp2
 -------------

 ------------------------------------------------------
 Input file generated by CHIRIPA (05-May-2021 14:55:24)
 ------------------------------------------------------
 Symbolic Z-matrix:
 Charge =  0 Multiplicity = 1

                         Standard orientation:
 ---------------------------------------------------------------------
 Center     Atomic      Atomic             Coordinates (Angstroms)
 Number     Number       Type             X           Y           Z
 ---------------------------------------------------------------------
      1          6           0       -5.303086   -1.192558   -0.582268
      2          6           0       -4.012802   -1.681055   -0.812616
      3          6           0       -2.895474   -0.875267   -0.574220
      4          6           0       -3.106012    0.419882   -0.103528
      5          6           0       -4.378959    0.935327    0.135666
      6          6           0       -5.481731    0.111774   -0.109695
      7          1           0       -6.165399   -1.825414   -0.770165
      8          1           0       -3.871053   -2.693610   -1.179609
      9          1           0       -1.885466   -1.228083   -0.743995
     10          1           0       -4.488540    1.948969    0.501643
     11          1           0       -6.482617    0.493805    0.070092
     12          7           0       -1.930852    1.282337    0.152538
     13          8           0       -2.143117    2.419755    0.567099
     14          8           0       -0.819747    0.804581   -0.066168
     15          6           0        4.697675    0.216321    0.008480
     16          6           0        5.981458   -0.251691   -0.677705
     17          6           0        6.919696    0.903734   -1.027698
     18          1           0        4.177120    0.927417   -0.647499
     19          1           0        4.958722    0.767628    0.922434
     20          1           0        5.718023   -0.803143   -1.589362
     21          1           0        6.498921   -0.961903   -0.020098
     22          1           0        7.211287    1.450195   -0.124949
     23          1           0        6.425952    1.609857   -1.703130
     24          1           0        7.831060    0.546626   -1.517340
     25          6           0        3.749538   -0.927334    0.364591
     26          6           0        2.465755   -0.459322    1.050776
     27          6           0        1.527518   -1.614747    1.400770
     28          1           0        3.488491   -1.478641   -0.549363
     29          1           0        4.270093   -1.638431    1.020570
     30          1           0        1.948292    0.250890    0.393169
     31          1           0        2.729191    0.092130    1.962434
     32          1           0        2.021262   -2.320870    2.076201
     33          1           0        1.235925   -2.161207    0.498020
     34          1           0        0.616154   -1.257638    1.890411
 ---------------------------------------------------------------------

 SCF Done:  E(RHF) =  -669.536141369     A.U. after   15 cycles
 E2 =    -0.2091331193D+01 EUMP2 =    -0.67162747256193D+03

 The electronic state is 1-A.
 Alpha  occ. eigenvalues --  -20.60947 -20.60941 -15.85979 -11.31281 -11.27845
 Alpha  occ. eigenvalues --  -11.27835 -11.27581 -11.26850 -11.26838 -11.20978
 Alpha  occ. eigenvalues --  -11.20580 -11.20525 -11.20474 -11.20286 -11.20142
 Alpha  occ. eigenvalues --   -1.60007  -1.39563  -1.19450  -1.08858  -1.07562
 Alpha  occ. eigenvalues --   -1.04843  -1.02659  -0.95706  -0.95162  -0.86245
 Alpha  occ. eigenvalues --   -0.86195  -0.82539  -0.78738  -0.77597  -0.77332
 Alpha  occ. eigenvalues --   -0.72212  -0.71320  -0.70558  -0.65110  -0.64846
 Alpha  occ. eigenvalues --   -0.64189  -0.62190  -0.60048  -0.58528  -0.56737
 Alpha  occ. eigenvalues --   -0.55350  -0.54477  -0.53177  -0.52935  -0.51872
 Alpha  occ. eigenvalues --   -0.51592  -0.49186  -0.48951  -0.48932  -0.47052
 Alpha  occ. eigenvalues --   -0.45753  -0.44975  -0.44905  -0.44738  -0.42927
 Alpha  occ. eigenvalues --   -0.37430  -0.36443
 Alpha virt. eigenvalues --    0.04922   0.11206   0.16410   0.21134   0.23615
 Alpha virt. eigenvalues --    0.24695   0.26981   0.27477   0.27959   0.28427
 Alpha virt. eigenvalues --    0.29084   0.31007   0.31804   0.32631   0.32727

 Mulliken charges:
               1
     1  C   -0.170522
     2  C   -0.218661
     3  C   -0.171153
     4  C    0.157155
     5  C   -0.170529
     6  C   -0.218670
     7  H    0.225970
     8  H    0.223989
     9  H    0.277024
    10  H    0.275762
    11  H    0.223743
    12  N    0.493479
    13  O   -0.458921
    14  O   -0.464893
    15  C   -0.298126
    16  C   -0.298837
    17  C   -0.475276
    18  H    0.152812
    19  H    0.148968
    20  H    0.150076
    21  H    0.149954
    22  H    0.154788
    23  H    0.155511
    24  H    0.157767
    25  C   -0.297721
    26  C   -0.306049
    27  C   -0.471069
    28  H    0.145555
    29  H    0.144755
    30  H    0.178530
    31  H    0.148737
    32  H    0.147640
    33  H    0.145626
    34  H    0.162587
 Sum of Mulliken charges =  -0.00000

 Dipole moment (field-independent basis, Debye):
    X=             -4.4142    Y=             -2.8550    Z=             -0.9414  Tot=              5.3406
 Quadrupole moment (field-independent basis, Debye-Ang):
   XX=            -68.9207   YY=            -95.7388   ZZ=            -94.4347
   XY=              5.1465   XZ=              2.8946   YZ=              1.5850

 Normal termination of Gaussian 16 at Wed May  5 22:25:33 2021.
