 Gaussian 16, Revision A.03,
 Gaussian 16:  EM64L-G16RevA.03 25-Dec-2016

 -------------
 #p 6-31g* mp2
 -------------

 ------------------------------------------------------
 Input file generated by CHIRIPA (05-May-2021 14:57:22)
 ------------------------------------------------------
 Symbolic Z-matrix:
 Charge =  0 Multiplicity = 1

                         Standard orientation:
 ---------------------------------------------------------------------
 Center     Atomic      Atomic             Coordinates (Angstroms)
 Number     Number       Type             X           Y           Z
 ---------------------------------------------------------------------
      1          6           0        3.004390   -1.906691   -1.523148
      2          6           0        2.063636   -0.913225   -1.813885
      3          6           0        2.026954    0.269566   -1.069433
      4          6           0        2.949967    0.426447   -0.036610
      5          6           0        3.899297   -0.544876    0.277389
      6          6           0        3.917608   -1.719675   -0.480278
      7          1           0        3.025750   -2.822407   -2.106589
      8          1           0        1.353202   -1.055740   -2.623217
      9          1           0        1.309271    1.054992   -1.273044
     10          1           0        4.594676   -0.374111    1.090227
     11          1           0        4.649323   -2.489504   -0.252238
     12          7           0        2.920858    1.674385    0.758503
     13          8           0        3.744855    1.788368    1.663308
     14          8           0        2.074596    2.514906    0.461851
     15          6           0       -1.499098   -1.681357    1.621493
     16          6           0       -0.969525   -1.091469    0.469059
     17          6           0       -1.766839   -0.280351   -0.343915
     18          6           0       -3.095493   -0.079568    0.027102
     19          6           0       -3.652201   -0.653339    1.169097
     20          6           0       -2.836388   -1.460797    1.967226
     21          1           0       -0.872540   -2.310031    2.247265
     22          1           0        0.068688   -1.261004    0.198103
     23          1           0       -1.382522    0.188627   -1.241566
     24          1           0       -4.690769   -0.465856    1.413320
     25          1           0       -3.250351   -1.917622    2.861649
     26          7           0       -3.949366    0.777190   -0.825698
     27          8           0       -5.116850    0.938475   -0.476982
     28          8           0       -3.434978    1.271207   -1.826693
 ---------------------------------------------------------------------

 SCF Done:  E(RHF) =  -868.336205513     A.U. after   16 cycles
 E2 =    -0.2602685351D+01 EUMP2 =    -0.87093889086420D+03

 The electronic state is 1-A.
 Alpha  occ. eigenvalues --  -20.61426 -20.61407 -20.60808 -20.60798 -15.86483
 Alpha  occ. eigenvalues --  -15.85857 -11.32113 -11.31237 -11.28705 -11.28679
 Alpha  occ. eigenvalues --  -11.28452 -11.27846 -11.27754 -11.27747 -11.27711
 Alpha  occ. eigenvalues --  -11.27474 -11.26782 -11.26651  -1.60493  -1.59877
 Alpha  occ. eigenvalues --   -1.40037  -1.39433  -1.20336  -1.19377  -1.09642
 Alpha  occ. eigenvalues --   -1.08765  -1.05783  -1.04778  -0.96434  -0.95615
 Alpha  occ. eigenvalues --   -0.87105  -0.86186  -0.83267  -0.82449  -0.78279
 Alpha  occ. eigenvalues --   -0.77506  -0.72687  -0.72079  -0.71832  -0.71365
 Alpha  occ. eigenvalues --   -0.71195  -0.70508  -0.65943  -0.65698  -0.65034
 Alpha  occ. eigenvalues --   -0.64828  -0.63096  -0.62163  -0.56175  -0.55326
 Alpha  occ. eigenvalues --   -0.54212  -0.53797  -0.53092  -0.52666  -0.49470
 Alpha  occ. eigenvalues --   -0.49432  -0.48840  -0.48825  -0.45383  -0.44838
 Alpha  occ. eigenvalues --   -0.38333  -0.37370  -0.37320  -0.36351
 Alpha virt. eigenvalues --    0.04226   0.05018   0.10162   0.11320   0.15619
 Alpha virt. eigenvalues --    0.16553   0.19591   0.21894   0.24793   0.27237
 Alpha virt. eigenvalues --    0.27929   0.29704   0.30177   0.31014   0.31620

 Mulliken charges:
               1
     1  C   -0.171261
     2  C   -0.228259
     3  C   -0.185542
     4  C    0.162545
     5  C   -0.171310
     6  C   -0.219401
     7  H    0.230002
     8  H    0.229180
     9  H    0.281199
    10  H    0.278759
    11  H    0.226984
    12  N    0.488006
    13  O   -0.458631
    14  O   -0.455441
    15  C   -0.172086
    16  C   -0.223426
    17  C   -0.174677
    18  C    0.160651
    19  C   -0.170970
    20  C   -0.217337
    21  H    0.225313
    22  H    0.233764
    23  H    0.265171
    24  H    0.276016
    25  H    0.223697
    26  N    0.488538
    27  O   -0.459255
    28  O   -0.462228
 Sum of Mulliken charges =  -0.00000

 Dipole moment (field-independent basis, Debye):
    X=              3.3490    Y=             -7.3743    Z=              0.2725  Tot=              8.1037
 Quadrupole moment (field-independent basis, Debye-Ang):
   XX=           -116.5646   YY=           -108.5189   ZZ=           -101.7946
   XY=             -4.8280   XZ=            -18.1695   YZ=             -2.8711

 Normal termination of Gaussian 16 at Fri May  7 00:16:18 2021.
