 Gaussian 16, Revision A.03,
 Gaussian 16:  EM64L-G16RevA.03 25-Dec-2016

 -------------
 #p 6-31g* mp2
 -------------

 ------------------------------------------------------
 Input file generated by CHIRIPA (05-May-2021 14:51:08)
 ------------------------------------------------------
 Symbolic Z-matrix:
 Charge =  0 Multiplicity = 1

                         Standard orientation:
 ---------------------------------------------------------------------
 Center     Atomic      Atomic             Coordinates (Angstroms)
 Number     Number       Type             X           Y           Z
 ---------------------------------------------------------------------
      1          6           0        2.199801   -1.489065   -0.234314
      2          6           0        0.918189   -1.771071    0.550498
      3          6           0        0.140976   -2.968459    0.002779
      4          1           0        1.945308   -1.311807   -1.288239
      5          1           0        2.838643   -2.382835   -0.213077
      6          1           0        0.282567   -0.876568    0.528953
      7          1           0        1.175744   -1.947489    1.602714
      8          1           0        0.753766   -3.874956    0.039550
      9          1           0       -0.144486   -2.797950   -1.040312
     10          1           0       -0.771494   -3.152196    0.578539
     11          6           0        2.987767   -0.294905    0.301241
     12          6           0        4.269378   -0.012900   -0.483571
     13          6           0        5.046592    1.184488    0.064147
     14          1           0        2.348924    0.598864    0.280003
     15          1           0        3.242260   -0.472163    1.355166
     16          1           0        4.011824    0.163518   -1.535787
     17          1           0        4.905001   -0.907403   -0.462026
     18          1           0        5.332053    1.013979    1.107238
     19          1           0        4.433801    2.090985    0.027376
     20          1           0        5.959061    1.368225   -0.511613
     21          6           0       -1.921381    1.253889   -0.051677
     22          6           0       -2.047357    2.773469    0.062303
     23          6           0       -0.693699    3.483372    0.024338
     24          1           0       -1.287945    0.882533    0.765513
     25          1           0       -1.401994    1.005177   -0.987504
     26          1           0       -2.567579    3.019187    0.996973
     27          1           0       -2.680724    3.141229   -0.755141
     28          1           0       -0.171598    3.267386   -0.913405
     29          1           0       -0.057811    3.144651    0.848664
     30          1           0       -0.807136    4.568782    0.107266
     31          6           0       -3.266187    0.530082   -0.015250
     32          6           0       -3.140211   -0.989498   -0.129230
     33          6           0       -4.493869   -1.699402   -0.091264
     34          1           0       -3.785574    0.778794    0.920579
     35          1           0       -3.899623    0.901438   -0.832440
     36          1           0       -2.506844   -1.357258    0.688214
     37          1           0       -2.619989   -1.235217   -1.063900
     38          1           0       -5.129757   -1.360681   -0.915590
     39          1           0       -5.015970   -1.483416    0.846479
     40          1           0       -4.380432   -2.784811   -0.174193
 ---------------------------------------------------------------------

 SCF Done:  E(RHF) =  -470.732332436     A.U. after   11 cycles
 E2 =    -0.1584694512D+01 EUMP2 =    -0.47231702694892D+03

 The electronic state is 1-A.
 Alpha  occ. eigenvalues --  -11.21663 -11.21576 -11.21560 -11.21459 -11.21456
 Alpha  occ. eigenvalues --  -11.21389 -11.21342 -11.21282 -11.21145 -11.21074
 Alpha  occ. eigenvalues --  -11.21032 -11.20955  -1.08498  -1.08347  -1.03582
 Alpha  occ. eigenvalues --   -1.03445  -0.96027  -0.95911  -0.87060  -0.86910
 Alpha  occ. eigenvalues --   -0.79679  -0.79490  -0.78407  -0.78094  -0.65148
 Alpha  occ. eigenvalues --   -0.64967  -0.60979  -0.60871  -0.59493  -0.59193
 Alpha  occ. eigenvalues --   -0.57662  -0.57509  -0.55325  -0.55195  -0.52722
 Alpha  occ. eigenvalues --   -0.52600  -0.52497  -0.52308  -0.49970  -0.49859
 Alpha  occ. eigenvalues --   -0.48030  -0.47774  -0.46694  -0.46650  -0.46086
 Alpha  occ. eigenvalues --   -0.45774  -0.45684  -0.45137  -0.43828  -0.43699
 Alpha virt. eigenvalues --    0.21143   0.22592   0.23517   0.24381   0.25317
 Alpha virt. eigenvalues --    0.26267   0.27002   0.27602   0.27879   0.29886
 Alpha virt. eigenvalues --    0.30157   0.31417   0.31631   0.31962   0.32434

 Mulliken charges:
               1
     1  C   -0.297134
     2  C   -0.310897
     3  C   -0.475116
     4  H    0.148953
     5  H    0.149170
     6  H    0.163351
     7  H    0.150329
     8  H    0.153922
     9  H    0.154827
    10  H    0.161413
    11  C   -0.299297
    12  C   -0.299472
    13  C   -0.475818
    14  H    0.150397
    15  H    0.149201
    16  H    0.151725
    17  H    0.151808
    18  H    0.154974
    19  H    0.155558
    20  H    0.160056
    21  C   -0.303656
    22  C   -0.298765
    23  C   -0.476662
    24  H    0.154292
    25  H    0.149021
    26  H    0.152261
    27  H    0.152226
    28  H    0.154828
    29  H    0.155624
    30  H    0.160864
    31  C   -0.297847
    32  C   -0.303268
    33  C   -0.476233
    34  H    0.149345
    35  H    0.149577
    36  H    0.156443
    37  H    0.153302
    38  H    0.155126
    39  H    0.154954
    40  H    0.160617
 Sum of Mulliken charges =  -0.00000

 Dipole moment (field-independent basis, Debye):
    X=             -0.0572    Y=              0.0319    Z=              0.0038  Tot=              0.0657
 Quadrupole moment (field-independent basis, Debye-Ang):
   XX=            -85.8778   YY=            -85.6134   ZZ=            -83.4238
   XY=             -1.4234   XZ=              0.1983   YZ=             -0.6698

 Normal termination of Gaussian 16 at Wed May  5 22:53:55 2021.
