 Gaussian 16, Revision A.03,
 Gaussian 16:  EM64L-G16RevA.03 25-Dec-2016

 -------------
 #p 6-31g* mp2
 -------------

 ------------------------------------------------------
 Input file generated by CHIRIPA (05-May-2021 14:53:15)
 ------------------------------------------------------
 Symbolic Z-matrix:
 Charge =  0 Multiplicity = 1

                         Standard orientation:
 ---------------------------------------------------------------------
 Center     Atomic      Atomic             Coordinates (Angstroms)
 Number     Number       Type             X           Y           Z
 ---------------------------------------------------------------------
      1          6           0        3.059875    0.840080    0.467009
      2          6           0        1.949602    1.868021    0.246519
      3          6           0        2.012154    3.028123    1.240524
      4          1           0        2.991972    0.450616    1.492023
      5          1           0        4.034720    1.340717    0.386800
      6          1           0        0.977165    1.365324    0.325750
      7          1           0        2.020038    2.254942   -0.778150
      8          1           0        2.967991    3.555458    1.157494
      9          1           0        1.919192    2.660785    2.267666
     10          1           0        1.209454    3.751075    1.064816
     11          6           0        3.010649   -0.325722   -0.518999
     12          6           0        4.120922   -1.353663   -0.298509
     13          6           0        4.058370   -2.513765   -1.292513
     14          1           0        2.035803   -0.826359   -0.438789
     15          1           0        3.078552    0.063742   -1.544012
     16          1           0        4.050485   -1.740584    0.726161
     17          1           0        5.093359   -0.850966   -0.377739
     18          1           0        4.151331   -2.146427   -2.319656
     19          1           0        3.102532   -3.041100   -1.209484
     20          1           0        4.861070   -3.236717   -1.116806
     21          6           0       -2.195418   -2.186369    1.567236
     22          6           0       -1.577435   -0.978127    1.906009
     23          6           0       -1.668280    0.128495    1.056490
     24          6           0       -2.388302   -0.008975   -0.129243
     25          6           0       -3.015053   -1.199338   -0.494632
     26          6           0       -2.910993   -2.292931    0.370107
     27          1           0       -2.119715   -3.040958    2.233075
     28          1           0       -1.021056   -0.892474    2.835068
     29          1           0       -1.199599    1.075734    1.294172
     30          1           0       -3.562783   -1.254216   -1.427583
     31          1           0       -3.391948   -3.230025    0.104435
     32          7           0       -2.491470    1.155659   -1.036648
     33          8           0       -3.131632    1.008794   -2.075522
     34          8           0       -1.930218    2.193312   -0.691816
 ---------------------------------------------------------------------

 SCF Done:  E(RHF) =  -669.535453959     A.U. after   15 cycles
 E2 =    -0.2092420972D+01 EUMP2 =    -0.67162787493027D+03

 The electronic state is 1-A.
 Alpha  occ. eigenvalues --  -20.60842 -20.60832 -15.85882 -11.31266 -11.27828
 Alpha  occ. eigenvalues --  -11.27821 -11.27575 -11.26859 -11.26845 -11.21660
 Alpha  occ. eigenvalues --  -11.21395 -11.21361 -11.21307 -11.21146 -11.20902
 Alpha  occ. eigenvalues --   -1.59905  -1.39458  -1.19441  -1.08829  -1.08392
 Alpha  occ. eigenvalues --   -1.04847  -1.03475  -0.95936  -0.95661  -0.86953
 Alpha  occ. eigenvalues --   -0.86244  -0.82492  -0.79537  -0.78207  -0.77525
 Alpha  occ. eigenvalues --   -0.72102  -0.71222  -0.70553  -0.65098  -0.65091
 Alpha  occ. eigenvalues --   -0.64807  -0.62231  -0.60861  -0.59282  -0.57516
 Alpha  occ. eigenvalues --   -0.55367  -0.55225  -0.53177  -0.52938  -0.52605
 Alpha  occ. eigenvalues --   -0.52350  -0.49900  -0.48868  -0.48858  -0.47838
 Alpha  occ. eigenvalues --   -0.46582  -0.45748  -0.45681  -0.44803  -0.43722
 Alpha  occ. eigenvalues --   -0.37414  -0.36426
 Alpha virt. eigenvalues --    0.04958   0.11097   0.16474   0.20783   0.22942
 Alpha virt. eigenvalues --    0.23988   0.26473   0.27215   0.27626   0.27721
 Alpha virt. eigenvalues --    0.29009   0.30740   0.31426   0.31757   0.32118

 Mulliken charges:
               1
     1  C   -0.297619
     2  C   -0.302171
     3  C   -0.478881
     4  H    0.143389
     5  H    0.150153
     6  H    0.150499
     7  H    0.159457
     8  H    0.155790
     9  H    0.146687
    10  H    0.169900
    11  C   -0.298707
    12  C   -0.299119
    13  C   -0.475493
    14  H    0.148328
    15  H    0.152659
    16  H    0.148975
    17  H    0.152686
    18  H    0.156870
    19  H    0.153548
    20  H    0.159562
    21  C   -0.170848
    22  C   -0.220046
    23  C   -0.171960
    24  C    0.158702
    25  C   -0.170902
    26  C   -0.218227
    27  H    0.225947
    28  H    0.223955
    29  H    0.278851
    30  H    0.275920
    31  H    0.223848
    32  N    0.488625
    33  O   -0.459794
    34  O   -0.460585
 Sum of Mulliken charges =  -0.00000

 Dipole moment (field-independent basis, Debye):
    X=              0.2806    Y=             -4.0300    Z=              3.0814  Tot=              5.0808
 Quadrupole moment (field-independent basis, Debye-Ang):
   XX=            -95.3257   YY=            -93.9201   ZZ=            -94.1126
   XY=             12.2619   XZ=             -6.3518   YZ=              1.3072

 Normal termination of Gaussian 16 at Thu May  6 09:01:07 2021.
