 Gaussian 16, Revision A.03,
 Gaussian 16:  EM64L-G16RevA.03 25-Dec-2016

 -------------
 #p 6-31g* mp2
 -------------

 ------------------------------------------------------
 Input file generated by CHIRIPA (05-May-2021 14:55:25)
 ------------------------------------------------------
 Symbolic Z-matrix:
 Charge =  0 Multiplicity = 1

                         Standard orientation:
 ---------------------------------------------------------------------
 Center     Atomic      Atomic             Coordinates (Angstroms)
 Number     Number       Type             X           Y           Z
 ---------------------------------------------------------------------
      1          6           0       -0.483712   -0.965039    0.983142
      2          6           0       -1.280034   -0.124852    1.768303
      3          6           0       -2.536372    0.289237    1.315873
      4          6           0       -2.967029   -0.157924    0.067725
      5          6           0       -2.196863   -0.995370   -0.737766
      6          6           0       -0.943857   -1.396855   -0.265186
      7          1           0        0.490948   -1.281818    1.342427
      8          1           0       -0.925250    0.212068    2.738178
      9          1           0       -3.173355    0.939375    1.903232
     10          1           0       -2.577619   -1.314728   -1.700291
     11          1           0       -0.327571   -2.049388   -0.877100
     12          7           0       -4.295295    0.273783   -0.421908
     13          8           0       -4.651834   -0.134098   -1.525153
     14          8           0       -4.954699    1.011860    0.306833
     15          6           0        3.142738    0.908186   -0.444405
     16          6           0        3.699863    2.225042    0.097339
     17          6           0        2.939504    3.446237   -0.420665
     18          1           0        3.179161    0.926036   -1.542266
     19          1           0        2.082442    0.825429   -0.168145
     20          1           0        4.759153    2.304646   -0.178672
     21          1           0        3.662286    2.203975    1.194044
     22          1           0        1.884521    3.393801   -0.132810
     23          1           0        2.987620    3.495044   -1.513325
     24          1           0        3.354395    4.376783   -0.020903
     25          6           0        3.892437   -0.321756    0.064442
     26          6           0        3.335313   -1.638613   -0.477302
     27          6           0        4.095671   -2.859808    0.040703
     28          1           0        4.952733   -0.238999   -0.211817
     29          1           0        3.856014   -0.339607    1.162303
     30          1           0        3.372888   -1.617547   -1.574007
     31          1           0        2.276021   -1.718218   -0.201291
     32          1           0        4.047556   -2.908615    1.133361
     33          1           0        5.150655   -2.807372   -0.247154
     34          1           0        3.680780   -3.790354   -0.359060
 ---------------------------------------------------------------------

 SCF Done:  E(RHF) =  -669.535241115     A.U. after   15 cycles
 E2 =    -0.2092489501D+01 EUMP2 =    -0.67162773061562D+03

 The electronic state is 1-A.
 Alpha  occ. eigenvalues --  -20.60781 -20.60776 -15.85835 -11.31219 -11.27782
 Alpha  occ. eigenvalues --  -11.27773 -11.27519 -11.26813 -11.26789 -11.22753
 Alpha  occ. eigenvalues --  -11.22300 -11.22192 -11.22068 -11.22050 -11.21505
 Alpha  occ. eigenvalues --   -1.59856  -1.39409  -1.19391  -1.09277  -1.08784
 Alpha  occ. eigenvalues --   -1.04792  -1.04332  -0.96744  -0.95620  -0.87760
 Alpha  occ. eigenvalues --   -0.86193  -0.82448  -0.80434  -0.79052  -0.77486
 Alpha  occ. eigenvalues --   -0.72053  -0.71179  -0.70541  -0.65937  -0.65041
 Alpha  occ. eigenvalues --   -0.64784  -0.62154  -0.61722  -0.60132  -0.58354
 Alpha  occ. eigenvalues --   -0.56029  -0.55309  -0.53445  -0.53174  -0.53100
 Alpha  occ. eigenvalues --   -0.52882  -0.50691  -0.48817  -0.48808  -0.48712
 Alpha  occ. eigenvalues --   -0.47490  -0.46577  -0.46497  -0.44810  -0.44575
 Alpha  occ. eigenvalues --   -0.37347  -0.36390
 Alpha virt. eigenvalues --    0.05008   0.11220   0.16398   0.19325   0.22663
 Alpha virt. eigenvalues --    0.23700   0.25511   0.25863   0.27065   0.27781
 Alpha virt. eigenvalues --    0.29244   0.30085   0.30945   0.31289   0.32194

 Mulliken charges:
               1
     1  C   -0.172619
     2  C   -0.219743
     3  C   -0.170937
     4  C    0.158643
     5  C   -0.170977
     6  C   -0.219725
     7  H    0.229134
     8  H    0.223619
     9  H    0.275724
    10  H    0.275861
    11  H    0.225675
    12  N    0.488037
    13  O   -0.460206
    14  O   -0.460289
    15  C   -0.302532
    16  C   -0.299765
    17  C   -0.476317
    18  H    0.152053
    19  H    0.150369
    20  H    0.153490
    21  H    0.150171
    22  H    0.156546
    23  H    0.156986
    24  H    0.161915
    25  C   -0.298781
    26  C   -0.305087
    27  C   -0.475848
    28  H    0.154155
    29  H    0.146615
    30  H    0.156522
    31  H    0.141642
    32  H    0.154280
    33  H    0.160329
    34  H    0.161063
 Sum of Mulliken charges =  -0.00000

 Dipole moment (field-independent basis, Debye):
    X=              4.7998    Y=             -1.4674    Z=              1.6583  Tot=              5.2859
 Quadrupole moment (field-independent basis, Debye-Ang):
   XX=           -122.2898   YY=            -94.2199   ZZ=            -90.6038
   XY=              3.8549   XZ=             -6.3617   YZ=              2.4365

 Normal termination of Gaussian 16 at Thu May  6 12:42:47 2021.
