 Gaussian 16, Revision A.03,
 Gaussian 16:  EM64L-G16RevA.03 25-Dec-2016

 -------------
 #p 6-31g* mp2
 -------------

 ------------------------------------------------------
 Input file generated by CHIRIPA (05-May-2021 14:55:22)
 ------------------------------------------------------
 Symbolic Z-matrix:
 Charge =  0 Multiplicity = 1

                         Standard orientation:
 ---------------------------------------------------------------------
 Center     Atomic      Atomic             Coordinates (Angstroms)
 Number     Number       Type             X           Y           Z
 ---------------------------------------------------------------------
      1          6           0        2.944390    1.711183    1.725555
      2          6           0        1.780174    1.613433    0.956420
      3          6           0        1.632219    0.586201    0.019695
      4          6           0        2.673035   -0.330182   -0.122548
      5          6           0        3.845066   -0.259451    0.628871
      6          6           0        3.971309    0.776078    1.559618
      7          1           0        3.050892    2.512384    2.450903
      8          1           0        0.981021    2.338234    1.083154
      9          1           0        0.741594    0.487002   -0.588882
     10          1           0        4.624481   -0.996865    0.480039
     11          1           0        4.876573    0.849526    2.155561
     12          7           0        2.527894   -1.422058   -1.111052
     13          8           0        3.459393   -2.216817   -1.217375
     14          8           0        1.485381   -1.462437   -1.760802
     15          6           0       -3.402660    0.949221   -0.141377
     16          6           0       -2.538805    1.363455   -1.333076
     17          6           0       -2.449536    2.880738   -1.499453
     18          1           0       -4.411575    1.365890   -0.265567
     19          1           0       -2.990568    1.395790    0.774128
     20          1           0       -2.951604    0.915108   -2.245873
     21          1           0       -1.531884    0.945591   -1.206129
     22          1           0       -2.017030    3.341528   -0.605467
     23          1           0       -3.444816    3.310871   -1.651118
     24          1           0       -1.827279    3.154639   -2.357145
     25          6           0       -3.501546   -0.564636    0.038030
     26          6           0       -4.365402   -0.978872    1.229730
     27          6           0       -4.454671   -2.496154    1.396107
     28          1           0       -3.913639   -1.011206   -0.877475
     29          1           0       -2.492632   -0.981307    0.162221
     30          1           0       -5.372323   -0.561008    1.102783
     31          1           0       -3.952603   -0.530524    2.142526
     32          1           0       -3.459390   -2.926288    1.547771
     33          1           0       -4.887177   -2.956945    0.502121
     34          1           0       -5.076927   -2.770055    2.253798
 ---------------------------------------------------------------------

 SCF Done:  E(RHF) =  -669.535467670     A.U. after   15 cycles
 E2 =    -0.2091484838D+01 EUMP2 =    -0.67162695250809D+03

 The electronic state is 1-A.
 Alpha  occ. eigenvalues --  -20.60777 -20.60772 -15.85828 -11.31197 -11.27768
 Alpha  occ. eigenvalues --  -11.27759 -11.27515 -11.26789 -11.26778 -11.22007
 Alpha  occ. eigenvalues --  -11.21677 -11.21656 -11.21543 -11.21433 -11.21016
 Alpha  occ. eigenvalues --   -1.59852  -1.39405  -1.19373  -1.08768  -1.08641
 Alpha  occ. eigenvalues --   -1.04779  -1.03746  -0.96183  -0.95602  -0.87198
 Alpha  occ. eigenvalues --   -0.86177  -0.82433  -0.79816  -0.78417  -0.77479
 Alpha  occ. eigenvalues --   -0.72048  -0.71175  -0.70493  -0.65313  -0.65023
 Alpha  occ. eigenvalues --   -0.64775  -0.62168  -0.61120  -0.59554  -0.57779
 Alpha  occ. eigenvalues --   -0.55486  -0.55276  -0.53106  -0.52915  -0.52856
 Alpha  occ. eigenvalues --   -0.52590  -0.50129  -0.48808  -0.48803  -0.48113
 Alpha  occ. eigenvalues --   -0.46864  -0.45952  -0.45878  -0.44809  -0.43984
 Alpha  occ. eigenvalues --   -0.37356  -0.36381
 Alpha virt. eigenvalues --    0.05052   0.11265   0.16546   0.19130   0.23003
 Alpha virt. eigenvalues --    0.23916   0.25063   0.26262   0.27619   0.28218
 Alpha virt. eigenvalues --    0.29270   0.30248   0.31454   0.31639   0.32447

 Mulliken charges:
               1
     1  C   -0.170599
     2  C   -0.223272
     3  C   -0.182879
     4  C    0.158941
     5  C   -0.169823
     6  C   -0.219055
     7  H    0.225723
     8  H    0.223885
     9  H    0.291470
    10  H    0.275716
    11  H    0.223549
    12  N    0.486339
    13  O   -0.460254
    14  O   -0.460363
    15  C   -0.297857
    16  C   -0.306299
    17  C   -0.475860
    18  H    0.151377
    19  H    0.144028
    20  H    0.159780
    21  H    0.150135
    22  H    0.147279
    23  H    0.158692
    24  H    0.163114
    25  C   -0.299216
    26  C   -0.299741
    27  C   -0.475990
    28  H    0.153306
    29  H    0.152599
    30  H    0.151617
    31  H    0.149688
    32  H    0.157357
    33  H    0.156941
    34  H    0.159673
 Sum of Mulliken charges =  -0.00000

 Dipole moment (field-independent basis, Debye):
    X=              0.4113    Y=              3.7732    Z=              3.4037  Tot=              5.0981
 Quadrupole moment (field-independent basis, Debye-Ang):
   XX=            -86.9008   YY=            -98.5358   ZZ=            -95.5856
   XY=              8.3961   XZ=             11.6444   YZ=             -1.8328

 Normal termination of Gaussian 16 at Thu May  6 19:11:41 2021.
