 Gaussian 16, Revision A.03,
 Gaussian 16:  EM64L-G16RevA.03 25-Dec-2016

 -------------
 #p 6-31g* mp2
 -------------

 ------------------------------------------------------
 Input file generated by CHIRIPA (05-May-2021 14:55:23)
 ------------------------------------------------------
 Symbolic Z-matrix:
 Charge =  0 Multiplicity = 1

                         Standard orientation:
 ---------------------------------------------------------------------
 Center     Atomic      Atomic             Coordinates (Angstroms)
 Number     Number       Type             X           Y           Z
 ---------------------------------------------------------------------
      1          6           0        4.078083    1.670716   -0.786674
      2          6           0        4.284113    0.312814   -1.051581
      3          6           0        3.429940   -0.653447   -0.511881
      4          6           0        2.374966   -0.224534    0.292080
      5          6           0        2.143545    1.120839    0.574403
      6          6           0        3.010339    2.069691    0.024044
      7          1           0        4.746527    2.414569   -1.210066
      8          1           0        5.112518    0.000061   -1.680846
      9          1           0        3.566369   -1.711340   -0.700737
     10          1           0        1.309128    1.402002    1.205366
     11          1           0        2.847915    3.123558    0.231475
     12          7           0        1.464011   -1.238256    0.869079
     13          8           0        0.541856   -0.834544    1.574262
     14          8           0        1.689409   -2.417329    0.605223
     15          6           0       -3.318189    0.673210    0.213084
     16          6           0       -3.558954    1.987614   -0.530124
     17          6           0       -3.729180    3.178051    0.414162
     18          1           0       -4.159238    0.485243    0.894442
     19          1           0       -2.422929    0.774401    0.842104
     20          1           0       -4.452700    1.883519   -1.158613
     21          1           0       -2.717325    2.172377   -1.209933
     22          1           0       -2.835349    3.310277    1.032372
     23          1           0       -4.580584    3.019778    1.083984
     24          1           0       -3.900196    4.107337   -0.138143
     25          6           0       -3.146074   -0.526112   -0.717363
     26          6           0       -2.905309   -1.840516    0.025845
     27          6           0       -2.735083   -3.030953   -0.918441
     28          1           0       -4.041334   -0.627304   -1.346383
     29          1           0       -2.305025   -0.338145   -1.398721
     30          1           0       -3.746938   -2.025279    0.705653
     31          1           0       -2.011564   -1.736421    0.654333
     32          1           0       -1.883678   -2.872680   -1.588263
     33          1           0       -3.628914   -3.163179   -1.536651
     34          1           0       -2.564067   -3.960240   -0.366136
 ---------------------------------------------------------------------

 SCF Done:  E(RHF) =  -669.536602577     A.U. after   15 cycles
 E2 =    -0.2091681992D+01 EUMP2 =    -0.67162828456980D+03

 The electronic state is 1-A.
 Alpha  occ. eigenvalues --  -20.61081 -20.61071 -15.86088 -11.31370 -11.27927
 Alpha  occ. eigenvalues --  -11.27920 -11.27653 -11.26921 -11.26911 -11.21173
 Alpha  occ. eigenvalues --  -11.20816 -11.20629 -11.20496 -11.20208 -11.19933
 Alpha  occ. eigenvalues --   -1.60124  -1.39681  -1.19531  -1.08943  -1.07620
 Alpha  occ. eigenvalues --   -1.04920  -1.02718  -0.95791  -0.95211  -0.86323
 Alpha  occ. eigenvalues --   -0.86238  -0.82627  -0.78813  -0.77689  -0.77357
 Alpha  occ. eigenvalues --   -0.72306  -0.71434  -0.70639  -0.65188  -0.64922
 Alpha  occ. eigenvalues --   -0.64251  -0.62268  -0.60114  -0.58619  -0.56786
 Alpha  occ. eigenvalues --   -0.55425  -0.54515  -0.53254  -0.53011  -0.51925
 Alpha  occ. eigenvalues --   -0.51633  -0.49246  -0.49065  -0.49043  -0.47117
 Alpha  occ. eigenvalues --   -0.45847  -0.45282  -0.44939  -0.44506  -0.42969
 Alpha  occ. eigenvalues --   -0.37505  -0.36519
 Alpha virt. eigenvalues --    0.04794   0.11134   0.16278   0.21139   0.23438
 Alpha virt. eigenvalues --    0.25088   0.26735   0.27408   0.27888   0.28593
 Alpha virt. eigenvalues --    0.28974   0.31024   0.32079   0.32358   0.32585

 Mulliken charges:
               1
     1  C   -0.170403
     2  C   -0.218565
     3  C   -0.170691
     4  C    0.158246
     5  C   -0.170884
     6  C   -0.218515
     7  H    0.226372
     8  H    0.224152
     9  H    0.276087
    10  H    0.275649
    11  H    0.224285
    12  N    0.488559
    13  O   -0.460544
    14  O   -0.457690
    15  C   -0.300643
    16  C   -0.298839
    17  C   -0.474273
    18  H    0.148707
    19  H    0.156831
    20  H    0.150999
    21  H    0.147595
    22  H    0.151261
    23  H    0.156197
    24  H    0.157205
    25  C   -0.295501
    26  C   -0.313189
    27  C   -0.473113
    28  H    0.144889
    29  H    0.144194
    30  H    0.146850
    31  H    0.181325
    32  H    0.152774
    33  H    0.148053
    34  H    0.162619
 Sum of Mulliken charges =  -0.00000

 Dipole moment (field-independent basis, Debye):
    X=              3.5155    Y=              3.4772    Z=             -1.8879  Tot=              5.2928
 Quadrupole moment (field-independent basis, Debye-Ang):
   XX=            -78.2161   YY=            -95.1928   ZZ=            -96.1261
   XY=              6.1232   XZ=             -5.8525   YZ=              2.5895

 Normal termination of Gaussian 16 at Thu May  6 19:16:48 2021.
