 Gaussian 16, Revision A.03,
 Gaussian 16:  EM64L-G16RevA.03 25-Dec-2016

 -------------
 #p 6-31g* mp2
 -------------

 ------------------------------------------------------
 Input file generated by CHIRIPA (05-May-2021 14:53:15)
 ------------------------------------------------------
 Symbolic Z-matrix:
 Charge =  0 Multiplicity = 1

                         Standard orientation:
 ---------------------------------------------------------------------
 Center     Atomic      Atomic             Coordinates (Angstroms)
 Number     Number       Type             X           Y           Z
 ---------------------------------------------------------------------
      1          6           0       -3.420756    0.437113   -0.100156
      2          6           0       -3.799454   -0.615079    0.942660
      3          6           0       -5.105796   -1.335671    0.607978
      4          1           0       -4.234527    1.170369   -0.184167
      5          1           0       -3.332653   -0.046040   -1.083108
      6          1           0       -3.885462   -0.130330    1.923597
      7          1           0       -2.984604   -1.345808    1.024336
      8          1           0       -5.028260   -1.844972   -0.358046
      9          1           0       -5.934237   -0.622589    0.546324
     10          1           0       -5.357541   -2.083431    1.366489
     11          6           0       -2.117105    1.166083    0.220507
     12          6           0       -1.738406    2.218276   -0.822309
     13          6           0       -0.432064    2.938867   -0.487627
     14          1           0       -2.205208    1.649236    1.203459
     15          1           0       -1.303333    0.432828    0.304518
     16          1           0       -2.553256    2.949004   -0.903985
     17          1           0       -1.652398    1.733527   -1.803246
     18          1           0        0.396376    2.225785   -0.425973
     19          1           0       -0.509601    3.448169    0.478397
     20          1           0       -0.180320    3.686627   -1.246138
     21          6           0        3.481411    1.172373    1.133357
     22          6           0        3.099235    0.017450    1.823730
     23          6           0        2.368685   -0.985639    1.179791
     24          6           0        2.035790   -0.800133   -0.161126
     25          6           0        2.401933    0.339191   -0.876088
     26          6           0        3.132157    1.329281   -0.211977
     27          1           0        4.048794    1.946548    1.641419
     28          1           0        3.369077   -0.107104    2.868582
     29          1           0        2.059909   -1.889761    1.690320
     30          1           0        2.118249    0.434920   -1.917134
     31          1           0        3.427607    2.225159   -0.750639
     32          7           0        1.262562   -1.855178   -0.853512
     33          8           0        0.981684   -1.667741   -2.035296
     34          8           0        0.952025   -2.849580   -0.201311
 ---------------------------------------------------------------------

 SCF Done:  E(RHF) =  -669.534798568     A.U. after   15 cycles
 E2 =    -0.2093545540D+01 EUMP2 =    -0.67162834410795D+03

 The electronic state is 1-A.
 Alpha  occ. eigenvalues --  -20.60890 -20.60885 -15.85947 -11.31312 -11.27864
 Alpha  occ. eigenvalues --  -11.27851 -11.27590 -11.26868 -11.26852 -11.21433
 Alpha  occ. eigenvalues --  -11.21161 -11.21152 -11.21000 -11.20973 -11.20618
 Alpha  occ. eigenvalues --   -1.59968  -1.39520  -1.19487  -1.08869  -1.08128
 Alpha  occ. eigenvalues --   -1.04890  -1.03250  -0.95748  -0.95681  -0.86747
 Alpha  occ. eigenvalues --   -0.86270  -0.82536  -0.79329  -0.77933  -0.77584
 Alpha  occ. eigenvalues --   -0.72158  -0.71299  -0.70571  -0.65129  -0.64866
 Alpha  occ. eigenvalues --   -0.64753  -0.62223  -0.60664  -0.59106  -0.57343
 Alpha  occ. eigenvalues --   -0.55363  -0.55102  -0.53269  -0.52956  -0.52427
 Alpha  occ. eigenvalues --   -0.52080  -0.49642  -0.48919  -0.48914  -0.47631
 Alpha  occ. eigenvalues --   -0.46339  -0.45476  -0.45375  -0.44921  -0.43509
 Alpha  occ. eigenvalues --   -0.37449  -0.36368
 Alpha virt. eigenvalues --    0.04925   0.11125   0.16398   0.21242   0.23035
 Alpha virt. eigenvalues --    0.24561   0.26719   0.27118   0.27709   0.28201
 Alpha virt. eigenvalues --    0.28616   0.30827   0.31728   0.31864   0.32234

 Mulliken charges:
               1
     1  C   -0.299120
     2  C   -0.300912
     3  C   -0.475796
     4  H    0.147520
     5  H    0.155511
     6  H    0.148297
     7  H    0.157874
     8  H    0.158501
     9  H    0.152814
    10  H    0.159632
    11  C   -0.296904
    12  C   -0.299684
    13  C   -0.485268
    14  H    0.146781
    15  H    0.147698
    16  H    0.151096
    17  H    0.155897
    18  H    0.161991
    19  H    0.152612
    20  H    0.154919
    21  C   -0.169950
    22  C   -0.217936
    23  C   -0.171421
    24  C    0.161640
    25  C   -0.176704
    26  C   -0.215757
    27  H    0.226479
    28  H    0.224099
    29  H    0.276127
    30  H    0.277066
    31  H    0.225672
    32  N    0.488007
    33  O   -0.460544
    34  O   -0.460235
 Sum of Mulliken charges =  -0.00000

 Dipole moment (field-independent basis, Debye):
    X=              2.8392    Y=              3.5778    Z=              2.4229  Tot=              5.1703
 Quadrupole moment (field-independent basis, Debye-Ang):
   XX=            -84.7889   YY=           -100.0661   ZZ=            -91.9253
   XY=              4.9888   XZ=              4.4580   YZ=             -4.8119

 Normal termination of Gaussian 16 at Thu May  6 01:05:32 2021.
