 Gaussian 16, Revision A.03,
 Gaussian 16:  EM64L-G16RevA.03 25-Dec-2016

 -------------
 #p 6-31g* mp2
 -------------

 ------------------------------------------------------
 Input file generated by CHIRIPA (05-May-2021 14:55:21)
 ------------------------------------------------------
 Symbolic Z-matrix:
 Charge =  0 Multiplicity = 1

                         Standard orientation:
 ---------------------------------------------------------------------
 Center     Atomic      Atomic             Coordinates (Angstroms)
 Number     Number       Type             X           Y           Z
 ---------------------------------------------------------------------
      1          6           0       -3.473764   -1.796504   -0.984910
      2          6           0       -2.574355   -2.207786    0.004247
      3          6           0       -1.828813   -1.267351    0.721392
      4          6           0       -2.008515    0.082246    0.422084
      5          6           0       -2.896748    0.523362   -0.557584
      6          6           0       -3.631811   -0.434644   -1.262180
      7          1           0       -4.048849   -2.533881   -1.537132
      8          1           0       -2.449557   -3.264753    0.221710
      9          1           0       -1.125575   -1.558094    1.492328
     10          1           0       -2.999482    1.584073   -0.751892
     11          1           0       -4.329576   -0.112337   -2.029831
     12          7           0       -1.224790    1.087143    1.174651
     13          8           0       -1.401404    2.270168    0.891990
     14          8           0       -0.448732    0.672729    2.032924
     15          6           0        2.335124    0.594312   -0.811383
     16          6           0        2.353097    2.027800   -0.279618
     17          6           0        1.546269    2.991476   -1.150337
     18          1           0        2.731957    0.584996   -1.835777
     19          1           0        1.294426    0.247690   -0.876167
     20          1           0        3.393533    2.371128   -0.214549
     21          1           0        1.956352    2.033676    0.743698
     22          1           0        0.499421    2.675875   -1.206074
     23          1           0        1.944768    3.015244   -2.169765
     24          1           0        1.572643    4.010511   -0.751923
     25          6           0        3.137344   -0.380877    0.048370
     26          6           0        3.119371   -1.814364   -0.483395
     27          6           0        3.926199   -2.778041    0.387323
     28          1           0        4.178041   -0.034255    0.113154
     29          1           0        2.740510   -0.371561    1.072763
     30          1           0        3.516116   -1.820242   -1.506711
     31          1           0        2.078935   -2.157694   -0.548464
     32          1           0        3.527700   -2.801809    1.406752
     33          1           0        4.973047   -2.462440    0.443060
     34          1           0        3.899825   -3.797076   -0.011091
 ---------------------------------------------------------------------

 SCF Done:  E(RHF) =  -669.536728251     A.U. after   15 cycles
 E2 =    -0.2093605436D+01 EUMP2 =    -0.67163033368691D+03

 The electronic state is 1-A.
 Alpha  occ. eigenvalues --  -20.61120 -20.61112 -15.86105 -11.31388 -11.27937
 Alpha  occ. eigenvalues --  -11.27927 -11.27653 -11.26924 -11.26914 -11.21256
 Alpha  occ. eigenvalues --  -11.20820 -11.20713 -11.20648 -11.20391 -11.19892
 Alpha  occ. eigenvalues --   -1.60152  -1.39711  -1.19541  -1.08954  -1.07721
 Alpha  occ. eigenvalues --   -1.04924  -1.02793  -0.95805  -0.95254  -0.86329
 Alpha  occ. eigenvalues --   -0.86286  -0.82638  -0.78888  -0.77704  -0.77488
 Alpha  occ. eigenvalues --   -0.72328  -0.71497  -0.70643  -0.65195  -0.64924
 Alpha  occ. eigenvalues --   -0.64323  -0.62271  -0.60162  -0.58680  -0.56851
 Alpha  occ. eigenvalues --   -0.55429  -0.54561  -0.53252  -0.53014  -0.51963
 Alpha  occ. eigenvalues --   -0.51694  -0.49263  -0.49102  -0.49092  -0.47197
 Alpha  occ. eigenvalues --   -0.45973  -0.45200  -0.45051  -0.44664  -0.43051
 Alpha  occ. eigenvalues --   -0.37502  -0.36518
 Alpha virt. eigenvalues --    0.04760   0.11094   0.16211   0.21131   0.23228
 Alpha virt. eigenvalues --    0.24832   0.26766   0.27215   0.28112   0.28437
 Alpha virt. eigenvalues --    0.28700   0.30841   0.31640   0.32370   0.32603

 Mulliken charges:
               1
     1  C   -0.170183
     2  C   -0.218378
     3  C   -0.171335
     4  C    0.158472
     5  C   -0.171377
     6  C   -0.218326
     7  H    0.226510
     8  H    0.224414
     9  H    0.276028
    10  H    0.276425
    11  H    0.224385
    12  N    0.489257
    13  O   -0.456461
    14  O   -0.459891
    15  C   -0.294806
    16  C   -0.309044
    17  C   -0.473258
    18  H    0.145253
    19  H    0.139680
    20  H    0.146769
    21  H    0.174315
    22  H    0.157694
    23  H    0.145009
    24  H    0.161814
    25  C   -0.301055
    26  C   -0.298057
    27  C   -0.475439
    28  H    0.148228
    29  H    0.160000
    30  H    0.150235
    31  H    0.145463
    32  H    0.155122
    33  H    0.156045
    34  H    0.156491
 Sum of Mulliken charges =  -0.00000

 Dipole moment (field-independent basis, Debye):
    X=             -3.0008    Y=             -3.4534    Z=             -2.4302  Tot=              5.1804
 Quadrupole moment (field-independent basis, Debye-Ang):
   XX=            -83.0183   YY=            -93.7023   ZZ=            -96.3641
   XY=              5.9633   XZ=              5.4367   YZ=             -3.2279

 Normal termination of Gaussian 16 at Wed May  5 19:00:05 2021.
