 Gaussian 16, Revision A.03,
 Gaussian 16:  EM64L-G16RevA.03 25-Dec-2016

 -------------
 #p 6-31g* mp2
 -------------

 ------------------------------------------------------
 Input file generated by CHIRIPA (05-May-2021 14:53:18)
 ------------------------------------------------------
 Symbolic Z-matrix:
 Charge =  0 Multiplicity = 1

                         Standard orientation:
 ---------------------------------------------------------------------
 Center     Atomic      Atomic             Coordinates (Angstroms)
 Number     Number       Type             X           Y           Z
 ---------------------------------------------------------------------
      1          6           0        4.186074   -0.316533   -0.187616
      2          6           0        5.703855   -0.297891   -0.371949
      3          6           0        6.336679   -1.679685   -0.204701
      4          1           0        3.949046   -0.711673    0.809694
      5          1           0        3.744131   -1.013489   -0.913105
      6          1           0        6.142677    0.399864    0.352750
      7          1           0        5.937303    0.097429   -1.368864
      8          1           0        5.926374   -2.382504   -0.937023
      9          1           0        6.132914   -2.078351    0.794373
     10          1           0        7.422070   -1.643281   -0.340574
     11          6           0        3.538948    1.057512   -0.351797
     12          6           0        2.021167    1.038869   -0.167464
     13          6           0        1.388343    2.420664   -0.334713
     14          1           0        3.980890    1.754467    0.373692
     15          1           0        3.775976    1.452651   -1.349107
     16          1           0        1.787718    0.643549    0.829451
     17          1           0        1.582345    0.341114   -0.892163
     18          1           0        1.592107    2.819329   -1.333786
     19          1           0        1.798648    3.123483    0.397610
     20          1           0        0.302952    2.384260   -0.198840
     21          6           0       -0.877392   -0.354849    1.545328
     22          6           0       -1.587783    0.843538    1.419901
     23          6           0       -2.774789    0.891473    0.682834
     24          6           0       -3.224493   -0.283122    0.081682
     25          6           0       -2.539241   -1.492400    0.188285
     26          6           0       -1.354546   -1.516945    0.930205
     27          1           0        0.043805   -0.383001    2.119785
     28          1           0       -1.219596    1.747588    1.896531
     29          1           0       -3.344630    1.805727    0.569529
     30          1           0       -2.931313   -2.377259   -0.298256
     31          1           0       -0.804931   -2.449044    1.025916
     32          7           0       -4.479899   -0.244757   -0.701186
     33          8           0       -4.854945   -1.293374   -1.221166
     34          8           0       -5.065069    0.833206   -0.779995
 ---------------------------------------------------------------------

 SCF Done:  E(RHF) =  -669.534196538     A.U. after   15 cycles
 E2 =    -0.2093394639D+01 EUMP2 =    -0.67162759117680D+03

 The electronic state is 1-A.
 Alpha  occ. eigenvalues --  -20.60770 -20.60764 -15.85825 -11.31194 -11.27785
 Alpha  occ. eigenvalues --  -11.27778 -11.27506 -11.26779 -11.26769 -11.22331
 Alpha  occ. eigenvalues --  -11.22124 -11.22034 -11.21973 -11.21674 -11.21545
 Alpha  occ. eigenvalues --   -1.59846  -1.39399  -1.19386  -1.09070  -1.08766
 Alpha  occ. eigenvalues --   -1.04797  -1.04131  -0.96575  -0.95606  -0.87594
 Alpha  occ. eigenvalues --   -0.86182  -0.82452  -0.80210  -0.78882  -0.77484
 Alpha  occ. eigenvalues --   -0.72044  -0.71170  -0.70514  -0.65699  -0.65034
 Alpha  occ. eigenvalues --   -0.64805  -0.62156  -0.61531  -0.59962  -0.58213
 Alpha  occ. eigenvalues --   -0.55864  -0.55322  -0.53455  -0.53091  -0.52931
 Alpha  occ. eigenvalues --   -0.52701  -0.50511  -0.48812  -0.48797  -0.48500
 Alpha  occ. eigenvalues --   -0.47241  -0.46417  -0.46332  -0.44805  -0.44392
 Alpha  occ. eigenvalues --   -0.37289  -0.36367
 Alpha virt. eigenvalues --    0.05036   0.11193   0.16433   0.20153   0.22612
 Alpha virt. eigenvalues --    0.24045   0.25279   0.26383   0.26767   0.28174
 Alpha virt. eigenvalues --    0.28736   0.30342   0.31085   0.31740   0.32149

 Mulliken charges:
               1
     1  C   -0.297917
     2  C   -0.299949
     3  C   -0.475998
     4  H    0.144678
     5  H    0.150289
     6  H    0.152494
     7  H    0.153975
     8  H    0.155761
     9  H    0.154139
    10  H    0.162170
    11  C   -0.298476
    12  C   -0.296829
    13  C   -0.481989
    14  H    0.149484
    15  H    0.152862
    16  H    0.138360
    17  H    0.156652
    18  H    0.159975
    19  H    0.152548
    20  H    0.162446
    21  C   -0.165301
    22  C   -0.218737
    23  C   -0.172331
    24  C    0.158498
    25  C   -0.170724
    26  C   -0.220432
    27  H    0.226520
    28  H    0.225242
    29  H    0.275916
    30  H    0.275684
    31  H    0.223778
    32  N    0.488133
    33  O   -0.460501
    34  O   -0.460420
 Sum of Mulliken charges =  -0.00000

 Dipole moment (field-independent basis, Debye):
    X=              4.4792    Y=             -0.1519    Z=              2.6849  Tot=              5.2244
 Quadrupole moment (field-independent basis, Debye-Ang):
   XX=           -124.1252   YY=            -90.8331   ZZ=            -93.8017
   XY=             -0.8096   XZ=             -8.9191   YZ=              0.5225

 Normal termination of Gaussian 16 at Wed May  5 23:41:42 2021.
