 Gaussian 16, Revision A.03,
 Gaussian 16:  EM64L-G16RevA.03 25-Dec-2016

 -------------
 #p 6-31g* mp2
 -------------

 ------------------------------------------------------
 Input file generated by CHIRIPA (05-May-2021 14:51:08)
 ------------------------------------------------------
 Symbolic Z-matrix:
 Charge =  0 Multiplicity = 1

                         Standard orientation:
 ---------------------------------------------------------------------
 Center     Atomic      Atomic             Coordinates (Angstroms)
 Number     Number       Type             X           Y           Z
 ---------------------------------------------------------------------
      1          6           0        3.200310   -0.006588   -0.279583
      2          6           0        2.955266   -1.236375   -1.154547
      3          6           0        4.054662   -2.289767   -1.014945
      4          1           0        4.170238    0.436366   -0.544113
      5          1           0        3.276456   -0.321522    0.770376
      6          1           0        2.878226   -0.919046   -2.202394
      7          1           0        1.985721   -1.676342   -0.888035
      8          1           0        4.128413   -2.634602    0.021516
      9          1           0        5.025989   -1.873003   -1.300310
     10          1           0        3.859476   -3.160231   -1.649021
     11          6           0        2.109772    1.055444   -0.408192
     12          6           0        2.354816    2.285232    0.466772
     13          6           0        1.255420    3.338623    0.327170
     14          1           0        2.033626    1.370379   -1.458150
     15          1           0        1.139843    0.612491   -0.143661
     16          1           0        3.324361    2.725198    0.200260
     17          1           0        2.431856    1.967902    1.514619
     18          1           0        0.284093    2.921859    0.612536
     19          1           0        1.181669    3.683458   -0.709291
     20          1           0        1.450606    4.209088    0.961246
     21          6           0       -3.337061   -0.199528    0.231102
     22          6           0       -3.784546   -0.220833   -1.230845
     23          6           0       -5.150799    0.432778   -1.440460
     24          1           0       -4.089019   -0.713210    0.845622
     25          1           0       -3.304425    0.841181    0.582179
     26          1           0       -3.814994   -1.261098   -1.579468
     27          1           0       -3.031342    0.292792   -1.841981
     28          1           0       -5.130576    1.479224   -1.119300
     29          1           0       -5.918682   -0.083495   -0.855296
     30          1           0       -5.451216    0.406543   -2.492564
     31          6           0       -1.973020   -0.849328    0.456673
     32          6           0       -1.525536   -0.828023    1.918620
     33          6           0       -0.159283   -1.481635    2.128236
     34          1           0       -2.005657   -1.890037    0.105596
     35          1           0       -1.221063   -0.335646   -0.157846
     36          1           0       -2.278740   -1.341648    2.529756
     37          1           0       -1.495088    0.212242    2.267243
     38          1           0        0.608600   -0.965360    1.543071
     39          1           0       -0.179505   -2.528080    1.807075
     40          1           0        0.141134   -1.455398    3.180339
 ---------------------------------------------------------------------

 SCF Done:  E(RHF) =  -470.732909364     A.U. after   11 cycles
 E2 =    -0.1584383856D+01 EUMP2 =    -0.47231729321989D+03

 The electronic state is 1-A.
 Alpha  occ. eigenvalues --  -11.21671 -11.21643 -11.21611 -11.21579 -11.21445
 Alpha  occ. eigenvalues --  -11.21428 -11.21383 -11.21366 -11.21130 -11.21129
 Alpha  occ. eigenvalues --  -11.21075 -11.21046  -1.08506  -1.08431  -1.03574
 Alpha  occ. eigenvalues --   -1.03544  -0.96042  -0.95983  -0.87042  -0.87014
 Alpha  occ. eigenvalues --   -0.79646  -0.79603  -0.78384  -0.78182  -0.65390
 Alpha  occ. eigenvalues --   -0.64880  -0.61017  -0.60885  -0.59392  -0.59365
 Alpha  occ. eigenvalues --   -0.57635  -0.57605  -0.55469  -0.55144  -0.52715
 Alpha  occ. eigenvalues --   -0.52689  -0.52443  -0.52427  -0.49967  -0.49946
 Alpha  occ. eigenvalues --   -0.47984  -0.47930  -0.46816  -0.46598  -0.46186
 Alpha  occ. eigenvalues --   -0.45777  -0.45762  -0.45193  -0.43824  -0.43801
 Alpha virt. eigenvalues --    0.19525   0.22537   0.24115   0.24525   0.25725
 Alpha virt. eigenvalues --    0.26462   0.26768   0.27792   0.28449   0.29916
 Alpha virt. eigenvalues --    0.30921   0.31597   0.31677   0.31895   0.32192

 Mulliken charges:
               1
     1  C   -0.299550
     2  C   -0.301685
     3  C   -0.475718
     4  H    0.150321
     5  H    0.150605
     6  H    0.151719
     7  H    0.154199
     8  H    0.155693
     9  H    0.154955
    10  H    0.160208
    11  C   -0.309017
    12  C   -0.299541
    13  C   -0.475918
    14  H    0.150105
    15  H    0.157865
    16  H    0.152466
    17  H    0.152355
    18  H    0.154324
    19  H    0.155319
    20  H    0.160649
    21  C   -0.297887
    22  C   -0.299849
    23  C   -0.475773
    24  H    0.149837
    25  H    0.149502
    26  H    0.151952
    27  H    0.152514
    28  H    0.155350
    29  H    0.155130
    30  H    0.160351
    31  C   -0.305127
    32  C   -0.299499
    33  C   -0.484295
    34  H    0.149792
    35  H    0.155030
    36  H    0.152610
    37  H    0.151630
    38  H    0.163326
    39  H    0.155545
    40  H    0.160508
 Sum of Mulliken charges =  -0.00000

 Dipole moment (field-independent basis, Debye):
    X=             -0.0005    Y=             -0.0043    Z=             -0.0041  Tot=              0.0060
 Quadrupole moment (field-independent basis, Debye-Ang):
   XX=            -85.7163   YY=            -84.6762   ZZ=            -84.2880
   XY=              1.7034   XZ=             -0.7384   YZ=             -0.3492

 Normal termination of Gaussian 16 at Thu May  6 05:16:35 2021.
