 Gaussian 16, Revision A.03,
 Gaussian 16:  EM64L-G16RevA.03 25-Dec-2016

 -------------
 #p 6-31g* mp2
 -------------

 ------------------------------------------------------
 Input file generated by CHIRIPA (05-May-2021 14:51:11)
 ------------------------------------------------------
 Symbolic Z-matrix:
 Charge =  0 Multiplicity = 1

                         Standard orientation:
 ---------------------------------------------------------------------
 Center     Atomic      Atomic             Coordinates (Angstroms)
 Number     Number       Type             X           Y           Z
 ---------------------------------------------------------------------
      1          6           0       -4.156438   -0.640987    0.007905
      2          6           0       -5.043001    0.495851   -0.501594
      3          6           0       -6.470269    0.040777   -0.807548
      4          1           0       -4.134076   -1.444037   -0.741465
      5          1           0       -4.607275   -1.070684    0.913169
      6          1           0       -4.589911    0.924185   -1.404842
      7          1           0       -5.063101    1.296371    0.248993
      8          1           0       -6.945173   -0.367752    0.090323
      9          1           0       -6.469294   -0.742053   -1.572909
     10          1           0       -7.086704    0.869176   -1.170347
     11          6           0       -2.726581   -0.201689    0.318150
     12          6           0       -1.840018   -1.338527    0.827650
     13          6           0       -0.412750   -0.883453    1.133603
     14          1           0       -2.275744    0.228008   -0.587113
     15          1           0       -2.748943    0.601361    1.067520
     16          1           0       -1.819918   -2.139047    0.077063
     17          1           0       -2.293108   -1.766861    1.730897
     18          1           0       -0.413725   -0.100623    1.898964
     19          1           0        0.062154   -0.474924    0.235733
     20          1           0        0.203685   -1.711852    1.496402
     21          6           0        3.599688   -0.283571    0.084995
     22          6           0        4.481841   -1.080894   -0.876290
     23          6           0        4.789557   -2.489062   -0.366223
     24          1           0        4.097274   -0.220462    1.062425
     25          1           0        2.659871   -0.829265    0.247345
     26          1           0        5.419139   -0.533188   -1.037862
     27          1           0        3.982184   -1.141948   -1.851600
     28          1           0        3.864894   -3.057316   -0.222403
     29          1           0        5.310013   -2.445097    0.595959
     30          1           0        5.421397   -3.041380   -1.068778
     31          6           0        3.283331    1.126247   -0.411050
     32          6           0        2.401179    1.923570    0.550234
     33          6           0        2.093462    3.331737    0.040168
     34          1           0        4.223148    1.671940   -0.573401
     35          1           0        2.785745    1.063139   -1.388480
     36          1           0        2.900836    1.984625    1.525546
     37          1           0        1.463880    1.375864    0.711807
     38          1           0        1.573006    3.287773   -0.922015
     39          1           0        3.018126    3.899992   -0.103652
     40          1           0        1.461622    3.884055    0.742722
 ---------------------------------------------------------------------

 SCF Done:  E(RHF) =  -470.732455355     A.U. after   11 cycles
 E2 =    -0.1583580464D+01 EUMP2 =    -0.47231603581936D+03

 The electronic state is 1-A.
 Alpha  occ. eigenvalues --  -11.21678 -11.21637 -11.21534 -11.21465 -11.21407
 Alpha  occ. eigenvalues --  -11.21402 -11.21296 -11.21228 -11.21177 -11.21099
 Alpha  occ. eigenvalues --  -11.21028 -11.20979  -1.08495  -1.08330  -1.03604
 Alpha  occ. eigenvalues --   -1.03434  -0.96060  -0.95894  -0.87088  -0.86909
 Alpha  occ. eigenvalues --   -0.79718  -0.79477  -0.78332  -0.78095  -0.65156
 Alpha  occ. eigenvalues --   -0.64957  -0.61002  -0.60858  -0.59427  -0.59262
 Alpha  occ. eigenvalues --   -0.57671  -0.57493  -0.55387  -0.55150  -0.52778
 Alpha  occ. eigenvalues --   -0.52632  -0.52486  -0.52293  -0.50010  -0.49841
 Alpha  occ. eigenvalues --   -0.48162  -0.47719  -0.46727  -0.46506  -0.45966
 Alpha  occ. eigenvalues --   -0.45775  -0.45669  -0.45285  -0.43827  -0.43683
 Alpha virt. eigenvalues --    0.21562   0.23014   0.24202   0.24509   0.25736
 Alpha virt. eigenvalues --    0.26525   0.27164   0.27502   0.27841   0.29620
 Alpha virt. eigenvalues --    0.30854   0.31191   0.31841   0.31870   0.32225

 Mulliken charges:
               1
     1  C   -0.298304
     2  C   -0.299687
     3  C   -0.475750
     4  H    0.149718
     5  H    0.149718
     6  H    0.151983
     7  H    0.152088
     8  H    0.155251
     9  H    0.155212
    10  H    0.160414
    11  C   -0.298595
    12  C   -0.300119
    13  C   -0.480008
    14  H    0.149331
    15  H    0.149885
    16  H    0.152004
    17  H    0.152309
    18  H    0.157282
    19  H    0.158064
    20  H    0.161535
    21  C   -0.304658
    22  C   -0.299184
    23  C   -0.475561
    24  H    0.149121
    25  H    0.156955
    26  H    0.151677
    27  H    0.151248
    28  H    0.154796
    29  H    0.155090
    30  H    0.159961
    31  C   -0.297587
    32  C   -0.308967
    33  C   -0.474921
    34  H    0.149135
    35  H    0.147922
    36  H    0.150869
    37  H    0.163337
    38  H    0.154214
    39  H    0.154638
    40  H    0.159585
 Sum of Mulliken charges =  -0.00000

 Dipole moment (field-independent basis, Debye):
    X=             -0.0809    Y=             -0.0386    Z=              0.0375  Tot=              0.0972
 Quadrupole moment (field-independent basis, Debye-Ang):
   XX=            -85.4799   YY=            -85.9039   ZZ=            -83.7357
   XY=              0.2949   XZ=             -0.1808   YZ=              0.5711

 Normal termination of Gaussian 16 at Wed May  5 16:46:29 2021.
