 Gaussian 16, Revision A.03,
 Gaussian 16:  EM64L-G16RevA.03 25-Dec-2016

 -------------
 #p 6-31g* mp2
 -------------

 ------------------------------------------------------
 Input file generated by CHIRIPA (05-May-2021 14:57:27)
 ------------------------------------------------------
 Symbolic Z-matrix:
 Charge =  0 Multiplicity = 1

                         Standard orientation:
 ---------------------------------------------------------------------
 Center     Atomic      Atomic             Coordinates (Angstroms)
 Number     Number       Type             X           Y           Z
 ---------------------------------------------------------------------
      1          6           0       -4.691350    1.810154   -0.514544
      2          6           0       -3.310396    1.832775   -0.735846
      3          6           0       -2.536867    0.689647   -0.513447
      4          6           0       -3.179924   -0.464116   -0.067804
      5          6           0       -4.553840   -0.518142    0.161816
      6          6           0       -5.307578    0.636836   -0.067208
      7          1           0       -5.284559    2.702766   -0.689882
      8          1           0       -2.829134    2.742579   -1.083248
      9          1           0       -1.466047    0.679375   -0.676715
     10          1           0       -5.005232   -1.439934    0.508171
     11          1           0       -6.379864    0.616356    0.105503
     12          7           0       -2.371499   -1.680567    0.171147
     13          8           0       -2.961971   -2.684492    0.563720
     14          8           0       -1.162692   -1.607061   -0.038662
     15          6           0        2.283558    2.462237    0.794184
     16          6           0        3.484222    2.445361    0.076799
     17          6           0        4.063777    1.233023   -0.309077
     18          6           0        3.412701    0.051077    0.040769
     19          6           0        2.215620    0.035062    0.754934
     20          6           0        1.654199    1.259154    1.130370
     21          1           0        1.840389    3.408576    1.089888
     22          1           0        3.975213    3.378145   -0.185665
     23          1           0        4.992560    1.190992   -0.864969
     24          1           0        1.749594   -0.911072    1.002053
     25          1           0        0.721670    1.269224    1.687448
     26          7           0        4.016651   -1.238593   -0.362215
     27          8           0        3.423278   -2.266136   -0.041743
     28          8           0        5.071963   -1.197473   -0.990914
 ---------------------------------------------------------------------

 SCF Done:  E(RHF) =  -868.338145765     A.U. after   16 cycles
 E2 =    -0.2599752253D+01 EUMP2 =    -0.87093789801812D+03

 The electronic state is 1-A.
 Alpha  occ. eigenvalues --  -20.61262 -20.61216 -20.60196 -20.60145 -15.86291
 Alpha  occ. eigenvalues --  -15.85231 -11.31662 -11.30716 -11.28240 -11.28203
 Alpha  occ. eigenvalues --  -11.27962 -11.27411 -11.27264 -11.27238 -11.27216
 Alpha  occ. eigenvalues --  -11.27210 -11.26457 -11.26392  -1.60307  -1.59250
 Alpha  occ. eigenvalues --   -1.39864  -1.38795  -1.19833  -1.18955  -1.09224
 Alpha  occ. eigenvalues --   -1.08350  -1.05236  -1.04363  -0.96056  -0.95139
 Alpha  occ. eigenvalues --   -0.86632  -0.85766  -0.82890  -0.81957  -0.77943
 Alpha  occ. eigenvalues --   -0.76949  -0.72505  -0.71635  -0.71447  -0.70931
 Alpha  occ. eigenvalues --   -0.70579  -0.70071  -0.65484  -0.65235  -0.64606
 Alpha  occ. eigenvalues --   -0.64378  -0.62581  -0.61663  -0.55726  -0.54932
 Alpha  occ. eigenvalues --   -0.53569  -0.53330  -0.52712  -0.52443  -0.49256
 Alpha  occ. eigenvalues --   -0.49248  -0.48233  -0.48181  -0.45267  -0.44172
 Alpha  occ. eigenvalues --   -0.37812  -0.37013  -0.36844  -0.35970
 Alpha virt. eigenvalues --    0.04565   0.05558   0.10776   0.11642   0.16060
 Alpha virt. eigenvalues --    0.16911   0.20841   0.21835   0.26609   0.27333
 Alpha virt. eigenvalues --    0.28258   0.28762   0.30555   0.31173   0.32264

 Mulliken charges:
               1
     1  C   -0.170606
     2  C   -0.219186
     3  C   -0.176389
     4  C    0.158220
     5  C   -0.170392
     6  C   -0.218369
     7  H    0.226627
     8  H    0.222719
     9  H    0.275945
    10  H    0.277308
    11  H    0.225184
    12  N    0.489439
    13  O   -0.455523
    14  O   -0.464953
    15  C   -0.173122
    16  C   -0.220001
    17  C   -0.170668
    18  C    0.156194
    19  C   -0.167901
    20  C   -0.226883
    21  H    0.220800
    22  H    0.220717
    23  H    0.274638
    24  H    0.293682
    25  H    0.222204
    26  N    0.487527
    27  O   -0.452800
    28  O   -0.464410
 Sum of Mulliken charges =  -0.00000

 Dipole moment (field-independent basis, Debye):
    X=             -5.1936    Y=              8.5234    Z=              0.5983  Tot=              9.9990
 Quadrupole moment (field-independent basis, Debye-Ang):
   XX=            -95.2018   YY=           -107.0084   ZZ=           -104.7921
   XY=              7.0531   XZ=              4.5999   YZ=             -1.8663

 Normal termination of Gaussian 16 at Thu May  6 21:24:50 2021.
