 Gaussian 16, Revision A.03,
 Gaussian 16:  EM64L-G16RevA.03 25-Dec-2016

 -------------
 #p 6-31g* mp2
 -------------

 ------------------------------------------------------
 Input file generated by CHIRIPA (05-May-2021 14:51:13)
 ------------------------------------------------------
 Symbolic Z-matrix:
 Charge =  0 Multiplicity = 1

                         Standard orientation:
 ---------------------------------------------------------------------
 Center     Atomic      Atomic             Coordinates (Angstroms)
 Number     Number       Type             X           Y           Z
 ---------------------------------------------------------------------
      1          6           0        4.045870   -0.266365   -0.121951
      2          6           0        5.349992   -0.398527   -0.909215
      3          6           0        5.991123   -1.778938   -0.763581
      4          1           0        4.243386   -0.470370    0.939328
      5          1           0        3.340495   -1.037045   -0.462381
      6          1           0        6.052203    0.373055   -0.568367
      7          1           0        5.149385   -0.193995   -1.968714
      8          1           0        5.311672   -2.559016   -1.121946
      9          1           0        6.219619   -1.988743    0.286358
     10          1           0        6.922106   -1.851444   -1.334435
     11          6           0        3.392981    1.108069   -0.257584
     12          6           0        2.088859    1.240231    0.529680
     13          6           0        1.447728    2.620642    0.384046
     14          1           0        4.098357    1.878749    0.082846
     15          1           0        3.195465    1.312074   -1.318863
     16          1           0        2.289467    1.035699    1.589180
     17          1           0        1.386648    0.468649    0.188832
     18          1           0        1.219232    2.830447   -0.665893
     19          1           0        2.127180    3.400720    0.742411
     20          1           0        0.516745    2.693148    0.954900
     21          6           0       -4.393284   -0.079891    0.075345
     22          6           0       -5.004941   -0.389045   -1.291507
     23          6           0       -6.352850    0.300250   -1.505531
     24          1           0       -5.094353   -0.389988    0.862293
     25          1           0       -4.270405    1.007303    0.176866
     26          1           0       -5.125348   -1.475427   -1.390969
     27          1           0       -4.302252   -0.078351   -2.075289
     28          1           0       -6.245420    1.387359   -1.433051
     29          1           0       -7.073192   -0.017654   -0.744844
     30          1           0       -6.772109    0.065584   -2.488899
     31          6           0       -3.045568   -0.761813    0.304189
     32          6           0       -2.433911   -0.452659    1.671042
     33          6           0       -1.086002   -1.141954    1.885066
     34          1           0       -3.168446   -1.849007    0.202669
     35          1           0       -2.344498   -0.451716   -0.482759
     36          1           0       -3.136599   -0.763353    2.454824
     37          1           0       -2.313504    0.633723    1.770504
     38          1           0       -0.365660   -0.824049    1.124379
     39          1           0       -1.193432   -2.229063    1.812586
     40          1           0       -0.666743   -0.907287    2.868435
 ---------------------------------------------------------------------

 SCF Done:  E(RHF) =  -470.733213486     A.U. after   11 cycles
 E2 =    -0.1582642720D+01 EUMP2 =    -0.47231585620591D+03

 The electronic state is 1-A.
 Alpha  occ. eigenvalues --  -11.21611 -11.21601 -11.21600 -11.21585 -11.21409
 Alpha  occ. eigenvalues --  -11.21402 -11.21349 -11.21343 -11.21108 -11.21069
 Alpha  occ. eigenvalues --  -11.21065 -11.21001  -1.08443  -1.08418  -1.03557
 Alpha  occ. eigenvalues --   -1.03500  -0.96000  -0.95953  -0.87019  -0.86968
 Alpha  occ. eigenvalues --   -0.79668  -0.79522  -0.78276  -0.78211  -0.65114
 Alpha  occ. eigenvalues --   -0.65017  -0.61047  -0.60833  -0.59358  -0.59328
 Alpha  occ. eigenvalues --   -0.57622  -0.57558  -0.55319  -0.55207  -0.52692
 Alpha  occ. eigenvalues --   -0.52649  -0.52437  -0.52372  -0.50026  -0.49852
 Alpha  occ. eigenvalues --   -0.48021  -0.47813  -0.46770  -0.46487  -0.45862
 Alpha  occ. eigenvalues --   -0.45754  -0.45728  -0.45538  -0.43795  -0.43768
 Alpha virt. eigenvalues --    0.21161   0.23111   0.23585   0.25129   0.25705
 Alpha virt. eigenvalues --    0.26678   0.26939   0.27547   0.28123   0.28895
 Alpha virt. eigenvalues --    0.30384   0.30850   0.31488   0.31941   0.32319

 Mulliken charges:
               1
     1  C   -0.298337
     2  C   -0.299653
     3  C   -0.475717
     4  H    0.149936
     5  H    0.149508
     6  H    0.151916
     7  H    0.151859
     8  H    0.155281
     9  H    0.155255
    10  H    0.160215
    11  C   -0.297711
    12  C   -0.304255
    13  C   -0.476163
    14  H    0.149556
    15  H    0.149360
    16  H    0.152816
    17  H    0.156011
    18  H    0.154814
    19  H    0.155564
    20  H    0.160308
    21  C   -0.298300
    22  C   -0.299643
    23  C   -0.475712
    24  H    0.149688
    25  H    0.149619
    26  H    0.151880
    27  H    0.151857
    28  H    0.155239
    29  H    0.155188
    30  H    0.160218
    31  C   -0.298195
    32  C   -0.299552
    33  C   -0.481324
    34  H    0.149515
    35  H    0.149048
    36  H    0.151852
    37  H    0.151598
    38  H    0.161735
    39  H    0.154660
    40  H    0.160066
 Sum of Mulliken charges =  -0.00000

 Dipole moment (field-independent basis, Debye):
    X=              0.0215    Y=              0.0012    Z=              0.0045  Tot=              0.0220
 Quadrupole moment (field-independent basis, Debye-Ang):
   XX=            -85.6023   YY=            -85.1220   ZZ=            -84.0670
   XY=              1.5381   XZ=             -0.0156   YZ=              0.1008

 Normal termination of Gaussian 16 at Wed May  5 18:22:10 2021.
