 Gaussian 16, Revision A.03,
 Gaussian 16:  EM64L-G16RevA.03 25-Dec-2016

 -------------
 #p 6-31g* mp2
 -------------

 ------------------------------------------------------
 Input file generated by CHIRIPA (05-May-2021 14:55:23)
 ------------------------------------------------------
 Symbolic Z-matrix:
 Charge =  0 Multiplicity = 1

                         Standard orientation:
 ---------------------------------------------------------------------
 Center     Atomic      Atomic             Coordinates (Angstroms)
 Number     Number       Type             X           Y           Z
 ---------------------------------------------------------------------
      1          6           0        1.541887    2.645451    0.716810
      2          6           0        1.604471    2.391456   -0.657268
      3          6           0        2.120912    1.182541   -1.133043
      4          6           0        2.567918    0.245774   -0.202483
      5          6           0        2.518781    0.469386    1.172607
      6          6           0        1.998436    1.685298    1.625760
      7          1           0        1.139187    3.587283    1.077617
      8          1           0        1.250636    3.135287   -1.365478
      9          1           0        2.181025    0.959921   -2.191460
     10          1           0        2.879166   -0.291454    1.854269
     11          1           0        1.951054    1.879830    2.693448
     12          7           0        3.116717   -1.037754   -0.694190
     13          8           0        3.504059   -1.846708    0.146165
     14          8           0        3.149133   -1.210524   -1.910634
     15          6           0       -2.475858   -0.857596   -0.005409
     16          6           0       -1.755574   -1.438516    1.211846
     17          6           0       -0.365817   -1.979133    0.874055
     18          1           0       -2.560673   -1.633768   -0.778265
     19          1           0       -1.863259   -0.053398   -0.435970
     20          1           0       -2.369992   -2.240450    1.640806
     21          1           0       -1.672634   -0.660925    1.981969
     22          1           0        0.267970   -1.184831    0.466628
     23          1           0       -0.433352   -2.773329    0.123527
     24          1           0        0.131182   -2.389605    1.758571
     25          6           0       -3.866465   -0.313131    0.316304
     26          6           0       -4.586748    0.267789   -0.900950
     27          6           0       -5.976505    0.808407   -0.563160
     28          1           0       -4.479063   -1.117328    0.746867
     29          1           0       -3.781648    0.463042    1.089161
     30          1           0       -4.669688   -0.509801   -1.671072
     31          1           0       -3.972330    1.069723   -1.329911
     32          1           0       -5.908971    1.602603    0.187368
     33          1           0       -6.610291    0.014103   -0.155732
     34          1           0       -6.473503    1.218878   -1.447674
 ---------------------------------------------------------------------

 SCF Done:  E(RHF) =  -669.534443450     A.U. after   15 cycles
 E2 =    -0.2093488230D+01 EUMP2 =    -0.67162793167968D+03

 The electronic state is 1-A.
 Alpha  occ. eigenvalues --  -20.60789 -20.60768 -15.85822 -11.31199 -11.27824
 Alpha  occ. eigenvalues --  -11.27790 -11.27578 -11.26845 -11.26827 -11.21741
 Alpha  occ. eigenvalues --  -11.21551 -11.21483 -11.21371 -11.21228 -11.20778
 Alpha  occ. eigenvalues --   -1.59847  -1.39400  -1.19434  -1.08814  -1.08472
 Alpha  occ. eigenvalues --   -1.04832  -1.03544  -0.95986  -0.95632  -0.87007
 Alpha  occ. eigenvalues --   -0.86220  -0.82463  -0.79623  -0.78290  -0.77500
 Alpha  occ. eigenvalues --   -0.72048  -0.71185  -0.70525  -0.65117  -0.65068
 Alpha  occ. eigenvalues --   -0.64826  -0.62171  -0.60970  -0.59355  -0.57608
 Alpha  occ. eigenvalues --   -0.55414  -0.55299  -0.53236  -0.52918  -0.52652
 Alpha  occ. eigenvalues --   -0.52330  -0.49890  -0.48812  -0.48800  -0.47922
 Alpha  occ. eigenvalues --   -0.46659  -0.45822  -0.45754  -0.44783  -0.43790
 Alpha  occ. eigenvalues --   -0.37346  -0.36416
 Alpha virt. eigenvalues --    0.05014   0.11206   0.16490   0.21331   0.22793
 Alpha virt. eigenvalues --    0.24270   0.26559   0.27119   0.27433   0.27821
 Alpha virt. eigenvalues --    0.28386   0.30797   0.31321   0.31723   0.31805

 Mulliken charges:
               1
     1  C   -0.171367
     2  C   -0.218351
     3  C   -0.172221
     4  C    0.154464
     5  C   -0.170659
     6  C   -0.216486
     7  H    0.225881
     8  H    0.223798
     9  H    0.276213
    10  H    0.276002
    11  H    0.223811
    12  N    0.492621
    13  O   -0.459638
    14  O   -0.460687
    15  C   -0.298542
    16  C   -0.298595
    17  C   -0.480138
    18  H    0.152010
    19  H    0.147789
    20  H    0.152161
    21  H    0.146831
    22  H    0.156315
    23  H    0.160616
    24  H    0.160693
    25  C   -0.297852
    26  C   -0.299201
    27  C   -0.475548
    28  H    0.150410
    29  H    0.146909
    30  H    0.153538
    31  H    0.149240
    32  H    0.153665
    33  H    0.156142
    34  H    0.160173
 Sum of Mulliken charges =  -0.00000

 Dipole moment (field-independent basis, Debye):
    X=             -1.8531    Y=              4.4723    Z=              1.7129  Tot=              5.1351
 Quadrupole moment (field-independent basis, Debye-Ang):
   XX=           -106.3929   YY=            -91.8749   ZZ=            -91.0968
   XY=             11.8129   XZ=              6.0619   YZ=             -1.8469

 Normal termination of Gaussian 16 at Thu May  6 07:51:06 2021.
