 Gaussian 16, Revision A.03,
 Gaussian 16:  EM64L-G16RevA.03 25-Dec-2016

 -------------
 #p 6-31g* mp2
 -------------

 ------------------------------------------------------
 Input file generated by CHIRIPA (05-May-2021 14:51:14)
 ------------------------------------------------------
 Symbolic Z-matrix:
 Charge =  0 Multiplicity = 1

                         Standard orientation:
 ---------------------------------------------------------------------
 Center     Atomic      Atomic             Coordinates (Angstroms)
 Number     Number       Type             X           Y           Z
 ---------------------------------------------------------------------
      1          6           0        2.611613    0.845956    0.027911
      2          6           0        2.974791    2.305782   -0.245942
      3          6           0        2.001058    3.289162    0.404136
      4          1           0        1.594062    0.652947   -0.338535
      5          1           0        2.589894    0.678254    1.113636
      6          1           0        2.997173    2.470338   -1.330855
      7          1           0        3.991668    2.495288    0.121026
      8          1           0        1.984771    3.153897    1.490433
      9          1           0        0.984626    3.128805    0.030302
     10          1           0        2.279456    4.326886    0.195610
     11          6           0        3.575791   -0.149137   -0.615422
     12          6           0        3.212612   -1.608963   -0.341569
     13          6           0        4.186345   -2.592343   -0.991647
     14          1           0        3.597510    0.018565   -1.701147
     15          1           0        4.593342    0.043872   -0.248976
     16          1           0        2.195736   -1.798469   -0.708536
     17          1           0        3.190230   -1.773519    0.743344
     18          1           0        5.202777   -2.431986   -0.617813
     19          1           0        4.202632   -2.457078   -2.077943
     20          1           0        3.907947   -3.630067   -0.783120
     21          6           0       -2.386930   -0.174855    0.525672
     22          6           0       -1.780924   -1.222590    1.460012
     23          6           0       -0.366761   -0.861260    1.915399
     24          1           0       -1.736844   -0.055570   -0.351884
     25          1           0       -2.402707    0.797376    1.037444
     26          1           0       -1.767567   -2.192844    0.947133
     27          1           0       -2.432627   -1.339535    2.335353
     28          1           0       -0.366575    0.093949    2.450352
     29          1           0        0.302264   -0.764208    1.054244
     30          1           0        0.047319   -1.623766    2.582469
     31          6           0       -3.800474   -0.521964    0.061839
     32          6           0       -4.406479    0.525771   -0.872502
     33          6           0       -5.820642    0.164440   -1.327888
     34          1           0       -3.784696   -1.494195   -0.449933
     35          1           0       -4.450560   -0.641249    0.939395
     36          1           0       -3.754777    0.642716   -1.747843
     37          1           0       -4.419837    1.496025   -0.359622
     38          1           0       -6.489667    0.067389   -0.466733
     39          1           0       -5.820828   -0.790768   -1.862843
     40          1           0       -6.234722    0.926947   -1.994958
 ---------------------------------------------------------------------

 SCF Done:  E(RHF) =  -470.732557729     A.U. after   11 cycles
 E2 =    -0.1583683797D+01 EUMP2 =    -0.47231624152608D+03

 The electronic state is 1-A.
 Alpha  occ. eigenvalues --  -11.21616 -11.21601 -11.21582 -11.21533 -11.21394
 Alpha  occ. eigenvalues --  -11.21394 -11.21335 -11.21322 -11.21084 -11.21070
 Alpha  occ. eigenvalues --  -11.21046 -11.20874  -1.08449  -1.08391  -1.03526
 Alpha  occ. eigenvalues --   -1.03485  -0.96001  -0.95910  -0.87007  -0.86939
 Alpha  occ. eigenvalues --   -0.79611  -0.79568  -0.78352  -0.78104  -0.65107
 Alpha  occ. eigenvalues --   -0.64998  -0.60923  -0.60890  -0.59362  -0.59287
 Alpha  occ. eigenvalues --   -0.57706  -0.57450  -0.55290  -0.55200  -0.52715
 Alpha  occ. eigenvalues --   -0.52612  -0.52506  -0.52240  -0.49939  -0.49877
 Alpha  occ. eigenvalues --   -0.48017  -0.47832  -0.46708  -0.46622  -0.45981
 Alpha  occ. eigenvalues --   -0.45748  -0.45663  -0.45230  -0.43778  -0.43744
 Alpha virt. eigenvalues --    0.21398   0.23204   0.23995   0.24101   0.25601
 Alpha virt. eigenvalues --    0.26013   0.27068   0.27776   0.28041   0.29776
 Alpha virt. eigenvalues --    0.30610   0.31323   0.31791   0.31915   0.32103

 Mulliken charges:
               1
     1  C   -0.302075
     2  C   -0.299065
     3  C   -0.475799
     4  H    0.150957
     5  H    0.153066
     6  H    0.151541
     7  H    0.151784
     8  H    0.155168
     9  H    0.155671
    10  H    0.160040
    11  C   -0.298051
    12  C   -0.301250
    13  C   -0.475651
    14  H    0.149078
    15  H    0.149681
    16  H    0.151558
    17  H    0.153672
    18  H    0.155346
    19  H    0.155047
    20  H    0.160333
    21  C   -0.298392
    22  C   -0.299862
    23  C   -0.483251
    24  H    0.148184
    25  H    0.149795
    26  H    0.151260
    27  H    0.151386
    28  H    0.153990
    29  H    0.167185
    30  H    0.158675
    31  C   -0.298180
    32  C   -0.299623
    33  C   -0.475688
    34  H    0.149415
    35  H    0.149873
    36  H    0.151573
    37  H    0.152003
    38  H    0.155248
    39  H    0.155142
    40  H    0.160215
 Sum of Mulliken charges =  -0.00000

 Dipole moment (field-independent basis, Debye):
    X=              0.0437    Y=              0.0088    Z=              0.0023  Tot=              0.0447
 Quadrupole moment (field-independent basis, Debye-Ang):
   XX=            -85.7245   YY=            -85.3110   ZZ=            -83.8254
   XY=              0.1525   XZ=              0.0776   YZ=              0.0727

 Normal termination of Gaussian 16 at Thu May  6 02:26:07 2021.
