 Gaussian 16, Revision A.03,
 Gaussian 16:  EM64L-G16RevA.03 25-Dec-2016

 -------------
 #p 6-31g* mp2
 -------------

 ------------------------------------------------------
 Input file generated by CHIRIPA (05-May-2021 14:57:23)
 ------------------------------------------------------
 Symbolic Z-matrix:
 Charge =  0 Multiplicity = 1

                         Standard orientation:
 ---------------------------------------------------------------------
 Center     Atomic      Atomic             Coordinates (Angstroms)
 Number     Number       Type             X           Y           Z
 ---------------------------------------------------------------------
      1          6           0       -2.087594   -0.825365    0.328011
      2          6           0       -2.404790    0.499972    0.643273
      3          6           0       -3.705265    0.980739    0.463897
      4          6           0       -4.668151    0.104817   -0.035003
      5          6           0       -4.383193   -1.220900   -0.358365
      6          6           0       -3.076066   -1.680064   -0.170922
      7          1           0       -1.074770   -1.190445    0.470488
      8          1           0       -1.639160    1.165997    1.030917
      9          1           0       -3.978243    2.002137    0.699792
     10          1           0       -5.167804   -1.861082   -0.743034
     11          1           0       -2.832601   -2.709824   -0.416614
     12          7           0       -6.048427    0.602348   -0.229170
     13          8           0       -6.878668   -0.189387   -0.670184
     14          8           0       -6.273910    1.774626    0.063331
     15          6           0        6.524432    1.330813   -0.434631
     16          6           0        5.309828    1.977223   -0.182813
     17          6           0        4.148937    1.237323    0.060964
     18          6           0        4.239214   -0.153681    0.045310
     19          6           0        5.434523   -0.826850   -0.202422
     20          6           0        6.582800   -0.066697   -0.443616
     21          1           0        7.421341    1.913452   -0.623000
     22          1           0        5.261527    3.062421   -0.175215
     23          1           0        3.195545    1.712046    0.258701
     24          1           0        5.451363   -1.909962   -0.203464
     25          1           0        7.524706   -0.571402   -0.638888
     26          7           0        3.016907   -0.947700    0.302019
     27          8           0        3.122873   -2.172052    0.282713
     28          8           0        1.976042   -0.330667    0.517673
 ---------------------------------------------------------------------

 SCF Done:  E(RHF) =  -868.340887034     A.U. after   16 cycles
 E2 =    -0.2598026294D+01 EUMP2 =    -0.87093891332809D+03

 The electronic state is 1-A.
 Alpha  occ. eigenvalues --  -20.61932 -20.61916 -20.60052 -20.60047 -15.86939
 Alpha  occ. eigenvalues --  -15.85100 -11.31984 -11.30239 -11.28525 -11.28497
 Alpha  occ. eigenvalues --  -11.28184 -11.27452 -11.27437 -11.26815 -11.26811
 Alpha  occ. eigenvalues --  -11.26228 -11.25681 -11.25654  -1.60977  -1.59134
 Alpha  occ. eigenvalues --   -1.40541  -1.38694  -1.20122  -1.18376  -1.09576
 Alpha  occ. eigenvalues --   -1.07756  -1.05477  -1.03763  -0.96467  -0.94635
 Alpha  occ. eigenvalues --   -0.86889  -0.85135  -0.83314  -0.81498  -0.78395
 Alpha  occ. eigenvalues --   -0.76625  -0.73187  -0.72266  -0.71321  -0.71224
 Alpha  occ. eigenvalues --   -0.70457  -0.69324  -0.65779  -0.65474  -0.64000
 Alpha  occ. eigenvalues --   -0.63734  -0.62830  -0.61130  -0.55985  -0.54053
 Alpha  occ. eigenvalues --   -0.53820  -0.53562  -0.52093  -0.51830  -0.49943
 Alpha  occ. eigenvalues --   -0.49897  -0.48091  -0.48054  -0.46011  -0.44152
 Alpha  occ. eigenvalues --   -0.38077  -0.37064  -0.36264  -0.35400
 Alpha virt. eigenvalues --    0.04123   0.05925   0.10596   0.12280   0.15687
 Alpha virt. eigenvalues --    0.17502   0.20756   0.22637   0.26695   0.27583
 Alpha virt. eigenvalues --    0.28320   0.29645   0.30415   0.31840   0.32442

 Mulliken charges:
               1
     1  C   -0.177709
     2  C   -0.221298
     3  C   -0.172636
     4  C    0.156733
     5  C   -0.171950
     6  C   -0.220789
     7  H    0.251410
     8  H    0.224572
     9  H    0.271342
    10  H    0.272277
    11  H    0.223061
    12  N    0.488366
    13  O   -0.463039
    14  O   -0.463641
    15  C   -0.169566
    16  C   -0.218357
    17  C   -0.170089
    18  C    0.157838
    19  C   -0.170149
    20  C   -0.218475
    21  H    0.228423
    22  H    0.225692
    23  H    0.273617
    24  H    0.276563
    25  H    0.225938
    26  N    0.490784
    27  O   -0.457462
    28  O   -0.471457
 Sum of Mulliken charges =  -0.00000

 Dipole moment (field-independent basis, Debye):
    X=              9.8796    Y=              0.9742    Z=             -0.2193  Tot=              9.9300
 Quadrupole moment (field-independent basis, Debye-Ang):
   XX=           -113.2154   YY=            -98.5560   ZZ=           -106.0267
   XY=             19.3339   XZ=             -7.1272   YZ=              2.6016

 Normal termination of Gaussian 16 at Fri May  7 01:50:58 2021.
