 Gaussian 16, Revision A.03,
 Gaussian 16:  EM64L-G16RevA.03 25-Dec-2016

 -------------
 #p 6-31g* mp2
 -------------

 ------------------------------------------------------
 Input file generated by CHIRIPA (05-May-2021 14:51:07)
 ------------------------------------------------------
 Symbolic Z-matrix:
 Charge =  0 Multiplicity = 1

                         Standard orientation:
 ---------------------------------------------------------------------
 Center     Atomic      Atomic             Coordinates (Angstroms)
 Number     Number       Type             X           Y           Z
 ---------------------------------------------------------------------
      1          6           0       -1.951871    1.365079    0.439872
      2          6           0       -1.664961    2.740304   -0.163805
      3          6           0       -0.729603    3.583204    0.703617
      4          1           0       -2.392364    1.494470    1.437954
      5          1           0       -1.002805    0.830386    0.583998
      6          1           0       -2.614397    3.271703   -0.308033
      7          1           0       -1.225276    2.607627   -1.160645
      8          1           0        0.231958    3.077171    0.837522
      9          1           0       -1.165055    3.745020    1.694978
     10          1           0       -0.537974    4.562176    0.253335
     11          6           0       -2.885486    0.510689   -0.415762
     12          6           0       -3.172396   -0.864535    0.187915
     13          6           0       -4.107753   -1.707436   -0.679507
     14          1           0       -3.834551    1.045383   -0.559888
     15          1           0       -2.444993    0.381299   -1.413844
     16          1           0       -3.612080   -0.731858    1.184755
     17          1           0       -2.222960   -1.395935    0.332143
     18          1           0       -3.672301   -1.869251   -1.670868
     19          1           0       -5.069314   -1.201402   -0.813412
     20          1           0       -4.299383   -2.686407   -0.229225
     21          6           0        2.213358   -1.564956    0.372725
     22          6           0        0.915190   -2.191501   -0.137359
     23          6           0        0.517566   -3.445152    0.642417
     24          1           0        3.020366   -2.307887    0.311573
     25          1           0        2.098462   -1.315119    1.436575
     26          1           0        1.032028   -2.438816   -1.200279
     27          1           0        0.111221   -1.446934   -0.075164
     28          1           0        0.373694   -3.210290    1.702012
     29          1           0        1.299733   -4.207808    0.570504
     30          1           0       -0.413161   -3.876726    0.261168
     31          6           0        2.623999   -0.310812   -0.396835
     32          6           0        3.922166    0.315732    0.113249
     33          6           0        4.319790    1.569383   -0.666527
     34          1           0        2.738895   -0.560651   -1.460684
     35          1           0        1.816991    0.432117   -0.335683
     36          1           0        4.726136   -0.428835    0.051055
     37          1           0        3.805328    0.563047    1.176170
     38          1           0        3.537624    2.332039   -0.594615
     39          1           0        4.463662    1.334521   -1.726122
     40          1           0        5.250517    2.000957   -0.285278
 ---------------------------------------------------------------------

 SCF Done:  E(RHF) =  -470.733088420     A.U. after   11 cycles
 E2 =    -0.1584282669D+01 EUMP2 =    -0.47231737108866D+03

 The electronic state is 1-A.
 Alpha  occ. eigenvalues --  -11.21648 -11.21644 -11.21643 -11.21576 -11.21468
 Alpha  occ. eigenvalues --  -11.21444 -11.21406 -11.21374 -11.21131 -11.21119
 Alpha  occ. eigenvalues --  -11.21100 -11.21067  -1.08513  -1.08439  -1.03602
 Alpha  occ. eigenvalues --   -1.03534  -0.96032  -0.96003  -0.87042  -0.87023
 Alpha  occ. eigenvalues --   -0.79681  -0.79590  -0.78396  -0.78191  -0.65380
 Alpha  occ. eigenvalues --   -0.64867  -0.61156  -0.60804  -0.59438  -0.59321
 Alpha  occ. eigenvalues --   -0.57668  -0.57584  -0.55343  -0.55271  -0.52726
 Alpha  occ. eigenvalues --   -0.52690  -0.52450  -0.52430  -0.49986  -0.49934
 Alpha  occ. eigenvalues --   -0.48035  -0.47888  -0.46882  -0.46559  -0.46215
 Alpha  occ. eigenvalues --   -0.45805  -0.45782  -0.45174  -0.43834  -0.43808
 Alpha virt. eigenvalues --    0.19143   0.21748   0.23718   0.24830   0.25824
 Alpha virt. eigenvalues --    0.26435   0.26978   0.27351   0.27988   0.29931
 Alpha virt. eigenvalues --    0.31390   0.31541   0.31684   0.31748   0.32143

 Mulliken charges:
               1
     1  C   -0.304438
     2  C   -0.299418
     3  C   -0.476644
     4  H    0.149972
     5  H    0.153310
     6  H    0.152354
     7  H    0.152429
     8  H    0.154748
     9  H    0.155495
    10  H    0.160749
    11  C   -0.297868
    12  C   -0.307703
    13  C   -0.475426
    14  H    0.149818
    15  H    0.150068
    16  H    0.151807
    17  H    0.160095
    18  H    0.155246
    19  H    0.155165
    20  H    0.160131
    21  C   -0.297221
    22  C   -0.310155
    23  C   -0.476123
    24  H    0.150072
    25  H    0.149701
    26  H    0.152102
    27  H    0.160196
    28  H    0.155625
    29  H    0.155621
    30  H    0.160953
    31  C   -0.301415
    32  C   -0.299643
    33  C   -0.476058
    34  H    0.149828
    35  H    0.150949
    36  H    0.152253
    37  H    0.152166
    38  H    0.155467
    39  H    0.155224
    40  H    0.160570
 Sum of Mulliken charges =  -0.00000

 Dipole moment (field-independent basis, Debye):
    X=              0.0077    Y=             -0.0098    Z=             -0.0001  Tot=              0.0125
 Quadrupole moment (field-independent basis, Debye-Ang):
   XX=            -84.4205   YY=            -85.6100   ZZ=            -84.5811
   XY=             -1.5383   XZ=             -0.9072   YZ=              0.6150

 Normal termination of Gaussian 16 at Thu May  6 08:26:03 2021.
