 Gaussian 16, Revision A.03,
 Gaussian 16:  EM64L-G16RevA.03 25-Dec-2016

 -------------
 #p 6-31g* mp2
 -------------

 ------------------------------------------------------
 Input file generated by CHIRIPA (05-May-2021 14:57:24)
 ------------------------------------------------------
 Symbolic Z-matrix:
 Charge =  0 Multiplicity = 1

                         Standard orientation:
 ---------------------------------------------------------------------
 Center     Atomic      Atomic             Coordinates (Angstroms)
 Number     Number       Type             X           Y           Z
 ---------------------------------------------------------------------
      1          6           0        5.798046    0.095121    0.700368
      2          6           0        5.005356    1.196853    0.362214
      3          6           0        3.686053    1.018097   -0.064441
      4          6           0        3.189412   -0.282164   -0.141638
      5          6           0        3.954192   -1.399986    0.188323
      6          6           0        5.270864   -1.197504    0.612498
      7          1           0        6.821890    0.243199    1.030841
      8          1           0        5.412127    2.201868    0.429498
      9          1           0        3.050322    1.853251   -0.332362
     10          1           0        3.520826   -2.389763    0.111164
     11          1           0        5.884166   -2.054987    0.874470
     12          7           0        1.794118   -0.483964   -0.592006
     13          8           0        1.380112   -1.639687   -0.651500
     14          8           0        1.140913    0.517409   -0.876983
     15          6           0       -2.028491    2.323871   -0.287386
     16          6           0       -2.686897    2.122223    0.930137
     17          6           0       -3.460265    0.976221    1.137813
     18          6           0       -3.553839    0.048305    0.101712
     19          6           0       -2.909821    0.220753   -1.122540
     20          6           0       -2.141853    1.374168   -1.308038
     21          1           0       -1.429818    3.216992   -0.440099
     22          1           0       -2.600650    2.858082    1.724565
     23          1           0       -3.980544    0.794999    2.070491
     24          1           0       -3.014677   -0.530621   -1.895754
     25          1           0       -1.631633    1.528139   -2.254617
     26          7           0       -4.369711   -1.168840    0.309831
     27          8           0       -4.436209   -1.971280   -0.618773
     28          8           0       -4.927243   -1.297351    1.397617
 ---------------------------------------------------------------------

 SCF Done:  E(RHF) =  -868.338256793     A.U. after   16 cycles
 E2 =    -0.2599796380D+01 EUMP2 =    -0.87093805317370D+03

 The electronic state is 1-A.
 Alpha  occ. eigenvalues --  -20.61334 -20.61288 -20.59680 -20.59658 -15.86354
 Alpha  occ. eigenvalues --  -15.84716 -11.31629 -11.29868 -11.28224 -11.28151
 Alpha  occ. eigenvalues --  -11.27898 -11.27195 -11.27148 -11.26464 -11.26304
 Alpha  occ. eigenvalues --  -11.26121 -11.25508 -11.25288  -1.60378  -1.58749
 Alpha  occ. eigenvalues --   -1.39939  -1.38309  -1.19790  -1.18004  -1.09199
 Alpha  occ. eigenvalues --   -1.07452  -1.05181  -1.03379  -0.96053  -0.94330
 Alpha  occ. eigenvalues --   -0.86582  -0.84804  -0.82891  -0.81174  -0.77953
 Alpha  occ. eigenvalues --   -0.76244  -0.72592  -0.71690  -0.70949  -0.70896
 Alpha  occ. eigenvalues --   -0.70061  -0.69164  -0.65447  -0.65181  -0.63677
 Alpha  occ. eigenvalues --   -0.63412  -0.62533  -0.60755  -0.55678  -0.53942
 Alpha  occ. eigenvalues --   -0.53512  -0.53273  -0.51728  -0.51505  -0.49333
 Alpha  occ. eigenvalues --   -0.49296  -0.47709  -0.47684  -0.45361  -0.43763
 Alpha  occ. eigenvalues --   -0.37760  -0.36780  -0.35947  -0.34897
 Alpha virt. eigenvalues --    0.04577   0.06289   0.10877   0.12731   0.16092
 Alpha virt. eigenvalues --    0.17852   0.21021   0.22640   0.26926   0.27878
 Alpha virt. eigenvalues --    0.28589   0.29465   0.30612   0.32039   0.32233

 Mulliken charges:
               1
     1  C   -0.170392
     2  C   -0.218322
     3  C   -0.170894
     4  C    0.158494
     5  C   -0.170293
     6  C   -0.218383
     7  H    0.226985
     8  H    0.223436
     9  H    0.271191
    10  H    0.277792
    11  H    0.225442
    12  N    0.490203
    13  O   -0.455374
    14  O   -0.468494
    15  C   -0.167303
    16  C   -0.220005
    17  C   -0.173740
    18  C    0.158017
    19  C   -0.168536
    20  C   -0.195289
    21  H    0.219033
    22  H    0.216167
    23  H    0.270165
    24  H    0.274223
    25  H    0.224359
    26  N    0.488390
    27  O   -0.461266
    28  O   -0.465608
 Sum of Mulliken charges =  -0.00000

 Dipole moment (field-independent basis, Debye):
    X=              8.2056    Y=              4.8577    Z=              0.6683  Tot=              9.5590
 Quadrupole moment (field-independent basis, Debye-Ang):
   XX=            -95.6975   YY=           -100.3117   ZZ=           -102.1611
   XY=            -15.3641   XZ=              7.0032   YZ=              0.7210

 Normal termination of Gaussian 16 at Fri May  7 08:01:17 2021.
