 Gaussian 16, Revision A.03,
 Gaussian 16:  EM64L-G16RevA.03 25-Dec-2016

 -------------
 #p 6-31g* mp2
 -------------

 ------------------------------------------------------
 Input file generated by CHIRIPA (05-May-2021 14:53:18)
 ------------------------------------------------------
 Symbolic Z-matrix:
 Charge =  0 Multiplicity = 1

                         Standard orientation:
 ---------------------------------------------------------------------
 Center     Atomic      Atomic             Coordinates (Angstroms)
 Number     Number       Type             X           Y           Z
 ---------------------------------------------------------------------
      1          6           0       -3.439884   -0.438376    0.201672
      2          6           0       -4.530439   -1.509610    0.168017
      3          6           0       -3.994159   -2.908895    0.471659
      4          1           0       -2.657151   -0.698101   -0.524149
      5          1           0       -2.962256   -0.442251    1.191244
      6          1           0       -5.006801   -1.502778   -0.820745
      7          1           0       -5.310761   -1.247205    0.893866
      8          1           0       -3.536317   -2.938667    1.465689
      9          1           0       -3.230630   -3.195692   -0.258664
     10          1           0       -4.790488   -3.659134    0.442316
     11          6           0       -3.960487    0.965811   -0.099921
     12          6           0       -2.869931    2.037045   -0.066265
     13          6           0       -3.406211    3.436330   -0.369907
     14          1           0       -4.438114    0.969686   -1.089493
     15          1           0       -4.743220    1.225536    0.625901
     16          1           0       -2.089609    1.774640   -0.792115
     17          1           0       -2.393569    2.030213    0.922496
     18          1           0       -4.169740    3.723127    0.360416
     19          1           0       -3.864053    3.466102   -1.363937
     20          1           0       -2.609882    4.186569   -0.340565
     21          6           0        0.615266   -1.231772   -0.408336
     22          6           0        0.724169    0.100903    0.002322
     23          6           0        1.979816    0.679637    0.209607
     24          6           0        3.110757   -0.106865   -0.004113
     25          6           0        3.034988   -1.437322   -0.413297
     26          6           0        1.768989   -1.995284   -0.614471
     27          1           0       -0.364172   -1.673279   -0.566986
     28          1           0       -0.170113    0.696243    0.163181
     29          1           0        2.093009    1.708984    0.527493
     30          1           0        3.944522   -2.005647   -0.565521
     31          1           0        1.687441   -3.030505   -0.933397
     32          7           0        4.445534    0.494821    0.212096
     33          8           0        5.426638   -0.219312    0.016944
     34          8           0        4.485352    1.669161    0.572619
 ---------------------------------------------------------------------

 SCF Done:  E(RHF) =  -669.535212384     A.U. after   15 cycles
 E2 =    -0.2092766634D+01 EUMP2 =    -0.67162797901766D+03

 The electronic state is 1-A.
 Alpha  occ. eigenvalues --  -20.60665 -20.60660 -15.85716 -11.31049 -11.27619
 Alpha  occ. eigenvalues --  -11.27595 -11.27304 -11.26625 -11.26510 -11.22821
 Alpha  occ. eigenvalues --  -11.22726 -11.22646 -11.22486 -11.22128 -11.21952
 Alpha  occ. eigenvalues --   -1.59742  -1.39296  -1.19210  -1.09612  -1.08606
 Alpha  occ. eigenvalues --   -1.04641  -1.04586  -0.97046  -0.95453  -0.88061
 Alpha  occ. eigenvalues --   -0.86011  -0.82293  -0.80713  -0.79504  -0.77329
 Alpha  occ. eigenvalues --   -0.71935  -0.71064  -0.70330  -0.66232  -0.64855
 Alpha  occ. eigenvalues --   -0.64605  -0.62049  -0.61932  -0.60413  -0.58679
 Alpha  occ. eigenvalues --   -0.56332  -0.55118  -0.53723  -0.53469  -0.52942
 Alpha  occ. eigenvalues --   -0.52698  -0.50977  -0.49008  -0.48694  -0.48667
 Alpha  occ. eigenvalues --   -0.47729  -0.46935  -0.46888  -0.44888  -0.44709
 Alpha  occ. eigenvalues --   -0.37186  -0.36211
 Alpha virt. eigenvalues --    0.05185   0.11375   0.16671   0.19395   0.22350
 Alpha virt. eigenvalues --    0.22559   0.25026   0.25259   0.26605   0.27965
 Alpha virt. eigenvalues --    0.29500   0.30101   0.30944   0.31548   0.31677

 Mulliken charges:
               1
     1  C   -0.306128
     2  C   -0.300043
     3  C   -0.477227
     4  H    0.143157
     5  H    0.151544
     6  H    0.155046
     7  H    0.156759
     8  H    0.157572
     9  H    0.149236
    10  H    0.165659
    11  C   -0.297010
    12  C   -0.309875
    13  C   -0.475013
    14  H    0.153471
    15  H    0.154818
    16  H    0.150284
    17  H    0.151369
    18  H    0.158760
    19  H    0.158500
    20  H    0.163365
    21  C   -0.178072
    22  C   -0.229317
    23  C   -0.173728
    24  C    0.158673
    25  C   -0.171310
    26  C   -0.218839
    27  H    0.230654
    28  H    0.238350
    29  H    0.275261
    30  H    0.274925
    31  H    0.222885
    32  N    0.488045
    33  O   -0.460931
    34  O   -0.460842
 Sum of Mulliken charges =  -0.00000

 Dipole moment (field-independent basis, Debye):
    X=             -5.1012    Y=             -2.0339    Z=             -0.7259  Tot=              5.5395
 Quadrupole moment (field-independent basis, Debye-Ang):
   XX=           -122.2664   YY=            -91.3159   ZZ=            -94.2687
   XY=             -8.2327   XZ=             -3.3267   YZ=              1.6226

 Normal termination of Gaussian 16 at Thu May  6 15:39:56 2021.
