 Gaussian 16, Revision A.03,
 Gaussian 16:  EM64L-G16RevA.03 25-Dec-2016

 -------------
 #p 6-31g* mp2
 -------------

 ------------------------------------------------------
 Input file generated by CHIRIPA (05-May-2021 14:53:16)
 ------------------------------------------------------
 Symbolic Z-matrix:
 Charge =  0 Multiplicity = 1

                         Standard orientation:
 ---------------------------------------------------------------------
 Center     Atomic      Atomic             Coordinates (Angstroms)
 Number     Number       Type             X           Y           Z
 ---------------------------------------------------------------------
      1          6           0        3.342284    0.098365    0.100976
      2          6           0        4.160187   -0.631482   -0.965017
      3          6           0        5.020505   -1.754127   -0.384229
      4          1           0        4.023291    0.510610    0.858094
      5          1           0        2.699653   -0.626233    0.619993
      6          1           0        4.800070    0.094509   -1.482804
      7          1           0        3.477167   -1.041874   -1.719787
      8          1           0        4.394250   -2.500026    0.115812
      9          1           0        5.724670   -1.357187    0.354141
     10          1           0        5.596779   -2.262465   -1.163562
     11          6           0        2.477090    1.223428   -0.464180
     12          6           0        1.659186    1.953275    0.601813
     13          6           0        0.798869    3.075920    0.021025
     14          1           0        3.119720    1.948026   -0.983198
     15          1           0        1.796082    0.811182   -1.221298
     16          1           0        2.342207    2.363666    1.356583
     17          1           0        1.019303    1.227284    1.119600
     18          1           0        0.094703    2.678980   -0.717345
     19          1           0        1.425124    3.821819   -0.479016
     20          1           0        0.222595    3.584258    0.800358
     21          6           0       -0.479117   -1.064922    1.828962
     22          6           0       -1.679909   -0.482881    2.248302
     23          6           0       -2.680947   -0.174652    1.322308
     24          6           0       -2.446637   -0.463289   -0.021224
     25          6           0       -1.260922   -1.042849   -0.470087
     26          6           0       -0.273817   -1.342559    0.473494
     27          1           0        0.293100   -1.301053    2.555128
     28          1           0       -1.842101   -0.266154    3.300333
     29          1           0       -3.619969    0.276246    1.619537
     30          1           0       -1.128248   -1.247180   -1.525580
     31          1           0        0.657748   -1.794548    0.144956
     32          7           0       -3.499015   -0.141490   -1.010844
     33          8           0       -3.268099   -0.405670   -2.188775
     34          8           0       -4.534859    0.368822   -0.589836
 ---------------------------------------------------------------------

 SCF Done:  E(RHF) =  -669.534037466     A.U. after   15 cycles
 E2 =    -0.2095142895D+01 EUMP2 =    -0.67162918036109D+03

 The electronic state is 1-A.
 Alpha  occ. eigenvalues --  -20.60849 -20.60844 -15.85904 -11.31315 -11.27880
 Alpha  occ. eigenvalues --  -11.27876 -11.27605 -11.26900 -11.26870 -11.22316
 Alpha  occ. eigenvalues --  -11.22158 -11.21865 -11.21777 -11.21774 -11.21215
 Alpha  occ. eigenvalues --   -1.59924  -1.39476  -1.19496  -1.09054  -1.08846
 Alpha  occ. eigenvalues --   -1.04897  -1.04008  -0.96478  -0.95709  -0.87485
 Alpha  occ. eigenvalues --   -0.86300  -0.82534  -0.80104  -0.78821  -0.77574
 Alpha  occ. eigenvalues --   -0.72122  -0.71248  -0.70594  -0.65856  -0.65139
 Alpha  occ. eigenvalues --   -0.64773  -0.62228  -0.61443  -0.59857  -0.58082
 Alpha  occ. eigenvalues --   -0.55796  -0.55378  -0.53299  -0.53096  -0.53002
 Alpha  occ. eigenvalues --   -0.52844  -0.50415  -0.48887  -0.48874  -0.48398
 Alpha  occ. eigenvalues --   -0.47160  -0.46332  -0.46284  -0.44873  -0.44290
 Alpha  occ. eigenvalues --   -0.37354  -0.36470
 Alpha virt. eigenvalues --    0.04919   0.11052   0.16312   0.19359   0.23035
 Alpha virt. eigenvalues --    0.23639   0.25613   0.26041   0.27314   0.28403
 Alpha virt. eigenvalues --    0.29823   0.30128   0.31151   0.31547   0.31710

 Mulliken charges:
               1
     1  C   -0.299551
     2  C   -0.300747
     3  C   -0.475024
     4  H    0.152531
     5  H    0.136315
     6  H    0.156727
     7  H    0.149569
     8  H    0.149695
     9  H    0.157235
    10  H    0.163580
    11  C   -0.297550
    12  C   -0.307509
    13  C   -0.475324
    14  H    0.152675
    15  H    0.147894
    16  H    0.148860
    17  H    0.159419
    18  H    0.157980
    19  H    0.155510
    20  H    0.159891
    21  C   -0.175603
    22  C   -0.216999
    23  C   -0.170548
    24  C    0.159167
    25  C   -0.172505
    26  C   -0.215622
    27  H    0.227528
    28  H    0.224458
    29  H    0.276298
    30  H    0.276044
    31  H    0.227601
    32  N    0.487969
    33  O   -0.460123
    34  O   -0.459842
 Sum of Mulliken charges =  -0.00000

 Dipole moment (field-independent basis, Debye):
    X=              3.6624    Y=             -1.1048    Z=              3.4765  Tot=              5.1691
 Quadrupole moment (field-independent basis, Debye-Ang):
   XX=           -111.1995   YY=            -94.1237   ZZ=            -92.4756
   XY=              1.0046   XZ=            -11.4560   YZ=              0.1127

 Normal termination of Gaussian 16 at Wed May  5 15:41:18 2021.
