 Gaussian 16, Revision A.03,
 Gaussian 16:  EM64L-G16RevA.03 25-Dec-2016

 -------------
 #p 6-31g* mp2
 -------------

 ------------------------------------------------------
 Input file generated by CHIRIPA (05-May-2021 14:57:26)
 ------------------------------------------------------
 Symbolic Z-matrix:
 Charge =  0 Multiplicity = 1

                         Standard orientation:
 ---------------------------------------------------------------------
 Center     Atomic      Atomic             Coordinates (Angstroms)
 Number     Number       Type             X           Y           Z
 ---------------------------------------------------------------------
      1          6           0       -3.917393   -2.271578   -0.682459
      2          6           0       -2.885303   -1.695315   -1.430277
      3          6           0       -2.482005   -0.378930   -1.187315
      4          6           0       -3.135527    0.335518   -0.184437
      5          6           0       -4.167124   -0.210712    0.577620
      6          6           0       -4.553888   -1.528747    0.317340
      7          1           0       -4.224262   -3.294818   -0.877924
      8          1           0       -2.389202   -2.269835   -2.207358
      9          1           0       -1.685908    0.091826   -1.751262
     10          1           0       -4.642789    0.386999    1.345671
     11          1           0       -5.355728   -1.973698    0.899676
     12          7           0       -2.717325    1.729989    0.081943
     13          8           0       -3.309012    2.338311    0.971037
     14          8           0       -1.805771    2.188249   -0.603406
     15          6           0        5.433134    0.020285   -0.947681
     16          6           0        4.351870    0.775149   -1.414123
     17          6           0        3.112402    0.713173   -0.770364
     18          6           0        2.988990   -0.117870    0.342033
     19          6           0        4.047460   -0.882109    0.830779
     20          6           0        5.277752   -0.804480    0.171309
     21          1           0        6.392419    0.074510   -1.453872
     22          1           0        4.469637    1.416534   -2.282917
     23          1           0        2.258715    1.286845   -1.110274
     24          1           0        3.899462   -1.512401    1.699254
     25          1           0        6.115736   -1.391840    0.535775
     26          7           0        1.681678   -0.191768    1.031869
     27          8           0        1.598787   -0.931579    2.009849
     28          8           0        0.764651    0.491523    0.581520
 ---------------------------------------------------------------------

 SCF Done:  E(RHF) =  -868.337889143     A.U. after   16 cycles
 E2 =    -0.2600192296D+01 EUMP2 =    -0.87093808143890D+03

 The electronic state is 1-A.
 Alpha  occ. eigenvalues --  -20.60581 -20.60539 -20.59624 -20.59565 -15.85596
 Alpha  occ. eigenvalues --  -15.84647 -11.31020 -11.30094 -11.27620 -11.27552
 Alpha  occ. eigenvalues --  -11.27367 -11.26726 -11.26706 -11.26644 -11.26608
 Alpha  occ. eigenvalues --  -11.26544 -11.25796 -11.25786  -1.59640  -1.58636
 Alpha  occ. eigenvalues --   -1.39186  -1.38197  -1.19204  -1.18298  -1.08595
 Alpha  occ. eigenvalues --   -1.07687  -1.04610  -1.03747  -0.95416  -0.94511
 Alpha  occ. eigenvalues --   -0.86006  -0.85143  -0.82240  -0.81366  -0.77276
 Alpha  occ. eigenvalues --   -0.76373  -0.71849  -0.70968  -0.70897  -0.70311
 Alpha  occ. eigenvalues --   -0.69866  -0.69464  -0.64851  -0.64612  -0.63983
 Alpha  occ. eigenvalues --   -0.63794  -0.61946  -0.61112  -0.55119  -0.54292
 Alpha  occ. eigenvalues --   -0.52948  -0.52698  -0.52034  -0.51876  -0.48608
 Alpha  occ. eigenvalues --   -0.48571  -0.47658  -0.47624  -0.44578  -0.43567
 Alpha  occ. eigenvalues --   -0.37202  -0.36280  -0.36220  -0.35334
 Alpha virt. eigenvalues --    0.05233   0.06218   0.11431   0.12317   0.16720
 Alpha virt. eigenvalues --    0.17648   0.21541   0.22274   0.27417   0.28006
 Alpha virt. eigenvalues --    0.28448   0.29244   0.31012   0.31730   0.32623

 Mulliken charges:
               1
     1  C   -0.170697
     2  C   -0.219600
     3  C   -0.160491
     4  C    0.165128
     5  C   -0.169905
     6  C   -0.218591
     7  H    0.221338
     8  H    0.217882
     9  H    0.272683
    10  H    0.273657
    11  H    0.219875
    12  N    0.492148
    13  O   -0.465028
    14  O   -0.458368
    15  C   -0.171069
    16  C   -0.219055
    17  C   -0.173217
    18  C    0.157184
    19  C   -0.171477
    20  C   -0.218864
    21  H    0.224950
    22  H    0.223939
    23  H    0.282056
    24  H    0.274719
    25  H    0.222522
    26  N    0.488555
    27  O   -0.463213
    28  O   -0.457061
 Sum of Mulliken charges =  -0.00000

 Dipole moment (field-independent basis, Debye):
    X=              3.2723    Y=             -4.4730    Z=             -3.3352  Tot=              6.4684
 Quadrupole moment (field-independent basis, Debye-Ang):
   XX=            -67.0464   YY=           -107.5554   ZZ=           -102.4678
   XY=             13.5070   XZ=             -4.3250   YZ=             -1.3435

 Normal termination of Gaussian 16 at Fri May  7 02:01:42 2021.
