 Gaussian 16, Revision A.03,
 Gaussian 16:  EM64L-G16RevA.03 25-Dec-2016

 -------------
 #p 6-31g* mp2
 -------------

 ------------------------------------------------------
 Input file generated by CHIRIPA (05-May-2021 14:57:22)
 ------------------------------------------------------
 Symbolic Z-matrix:
 Charge =  0 Multiplicity = 1

                         Standard orientation:
 ---------------------------------------------------------------------
 Center     Atomic      Atomic             Coordinates (Angstroms)
 Number     Number       Type             X           Y           Z
 ---------------------------------------------------------------------
      1          6           0       -2.312303    1.968339   -0.041474
      2          6           0       -1.775352    0.683187   -0.170277
      3          6           0       -2.611979   -0.436621   -0.195402
      4          6           0       -3.987043   -0.233770   -0.088913
      5          6           0       -4.552276    1.033925    0.040515
      6          6           0       -3.696611    2.139304    0.063326
      7          1           0       -1.654996    2.832629   -0.022855
      8          1           0       -0.700664    0.547406   -0.251857
      9          1           0       -2.222986   -1.442778   -0.294146
     10          1           0       -5.627629    1.137591    0.119818
     11          1           0       -4.116412    3.136192    0.163457
     12          7           0       -4.882820   -1.411624   -0.114287
     13          8           0       -6.090834   -1.206159   -0.018764
     14          8           0       -4.359956   -2.517987   -0.229218
     15          6           0        5.341508   -1.970677   -0.176466
     16          6           0        4.392700   -1.934528    0.850656
     17          6           0        3.555137   -0.825807    1.004841
     18          6           0        3.694191    0.233996    0.109983
     19          6           0        4.629815    0.227716   -0.923390
     20          6           0        5.456833   -0.891343   -1.058655
     21          1           0        5.988051   -2.835973   -0.288892
     22          1           0        4.300903   -2.771314    1.537247
     23          1           0        2.812048   -0.771583    1.791159
     24          1           0        4.697784    1.077034   -1.592312
     25          1           0        6.192792   -0.916666   -1.857259
     26          7           0        2.813082    1.413221    0.263197
     27          8           0        2.955460    2.334102   -0.538266
     28          8           0        1.996774    1.394288    1.181849
 ---------------------------------------------------------------------

 SCF Done:  E(RHF) =  -868.340090573     A.U. after   16 cycles
 E2 =    -0.2598223616D+01 EUMP2 =    -0.87093831418841D+03

 The electronic state is 1-A.
 Alpha  occ. eigenvalues --  -20.61838 -20.61818 -20.60256 -20.60249 -15.86844
 Alpha  occ. eigenvalues --  -15.85301 -11.31916 -11.30470 -11.28446 -11.28438
 Alpha  occ. eigenvalues --  -11.28115 -11.27382 -11.27372 -11.27027 -11.26998
 Alpha  occ. eigenvalues --  -11.26570 -11.25969 -11.25839  -1.60905  -1.59335
 Alpha  occ. eigenvalues --   -1.40459  -1.38895  -1.20059  -1.18600  -1.09507
 Alpha  occ. eigenvalues --   -1.07999  -1.05410  -1.03977  -0.96388  -0.94878
 Alpha  occ. eigenvalues --   -0.86822  -0.85358  -0.83224  -0.81728  -0.78312
 Alpha  occ. eigenvalues --   -0.76828  -0.73062  -0.72217  -0.71523  -0.71150
 Alpha  occ. eigenvalues --   -0.70656  -0.69639  -0.65707  -0.65401  -0.64234
 Alpha  occ. eigenvalues --   -0.63938  -0.62758  -0.61332  -0.55911  -0.54375
 Alpha  occ. eigenvalues --   -0.53762  -0.53491  -0.52314  -0.52047  -0.49846
 Alpha  occ. eigenvalues --   -0.49807  -0.48292  -0.48259  -0.45908  -0.44346
 Alpha  occ. eigenvalues --   -0.38019  -0.37002  -0.36520  -0.35590
 Alpha virt. eigenvalues --    0.04170   0.05699   0.10654   0.12083   0.15719
 Alpha virt. eigenvalues --    0.17271   0.20846   0.22328   0.26785   0.27548
 Alpha virt. eigenvalues --    0.28166   0.29247   0.30451   0.31671   0.32196

 Mulliken charges:
               1
     1  C   -0.171103
     2  C   -0.218041
     3  C   -0.173560
     4  C    0.157883
     5  C   -0.172422
     6  C   -0.219447
     7  H    0.235702
     8  H    0.230086
     9  H    0.270796
    10  H    0.272866
    11  H    0.221820
    12  N    0.488298
    13  O   -0.462316
    14  O   -0.463699
    15  C   -0.169569
    16  C   -0.218284
    17  C   -0.172290
    18  C    0.156186
    19  C   -0.170645
    20  C   -0.218407
    21  H    0.228729
    22  H    0.226636
    23  H    0.275958
    24  H    0.276289
    25  H    0.225946
    26  N    0.486402
    27  O   -0.458517
    28  O   -0.465298
 Sum of Mulliken charges =  -0.00000

 Dipole moment (field-independent basis, Debye):
    X=              6.7597    Y=              0.0627    Z=             -0.4564  Tot=              6.7754
 Quadrupole moment (field-independent basis, Debye-Ang):
   XX=           -103.7206   YY=           -106.5832   ZZ=           -102.9448
   XY=            -34.6764   XZ=             -4.9954   YZ=             -2.6957

 Normal termination of Gaussian 16 at Fri May  7 07:54:22 2021.
