 Gaussian 16, Revision A.03,
 Gaussian 16:  EM64L-G16RevA.03 25-Dec-2016

 -------------
 #p 6-31g* mp2
 -------------

 ------------------------------------------------------
 Input file generated by CHIRIPA (05-May-2021 14:53:15)
 ------------------------------------------------------
 Symbolic Z-matrix:
 Charge =  0 Multiplicity = 1

                         Standard orientation:
 ---------------------------------------------------------------------
 Center     Atomic      Atomic             Coordinates (Angstroms)
 Number     Number       Type             X           Y           Z
 ---------------------------------------------------------------------
      1          6           0       -3.647916   -0.674291    0.234596
      2          6           0       -2.868612   -1.567402   -0.731337
      3          6           0       -2.706902   -2.997291   -0.214559
      4          1           0       -3.133925   -0.658891    1.205431
      5          1           0       -4.638592   -1.115143    0.412377
      6          1           0       -1.880215   -1.124274   -0.908324
      7          1           0       -3.384415   -1.580524   -1.700043
      8          1           0       -3.685167   -3.462310   -0.055322
      9          1           0       -2.172420   -3.003468    0.740895
     10          1           0       -2.146899   -3.618411   -0.920581
     11          6           0       -3.817859    0.758251   -0.268068
     12          6           0       -4.597162    1.651361    0.697864
     13          6           0       -4.758873    3.081251    0.181086
     14          1           0       -2.827183    1.199102   -0.445850
     15          1           0       -4.331850    0.742851   -1.238904
     16          1           0       -4.081360    1.664484    1.666570
     17          1           0       -5.585560    1.208234    0.874851
     18          1           0       -5.293355    3.087427   -0.774367
     19          1           0       -3.780608    3.546270    0.021850
     20          1           0       -5.318876    3.702370    0.887109
     21          6           0        0.892902   -1.532527    0.163140
     22          6           0        1.125176   -0.784200   -0.995555
     23          6           0        2.243059    0.050071   -1.089773
     24          6           0        3.111935    0.112191   -0.001433
     25          6           0        2.907783   -0.621001    1.166489
     26          6           0        1.783378   -1.448688    1.238569
     27          1           0        0.021971   -2.178052    0.227732
     28          1           0        0.435316   -0.847330   -1.832307
     29          1           0        2.446938    0.640329   -1.974899
     30          1           0        3.613331   -0.537204    1.984168
     31          1           0        1.605513   -2.028704    2.139673
     32          7           0        4.298840    0.991912   -0.089458
     33          8           0        5.049241    1.029023    0.883248
     34          8           0        4.456262    1.627666   -1.129493
 ---------------------------------------------------------------------

 SCF Done:  E(RHF) =  -669.534506183     A.U. after   15 cycles
 E2 =    -0.2092970991D+01 EUMP2 =    -0.67162747717467D+03

 The electronic state is 1-A.
 Alpha  occ. eigenvalues --  -20.60746 -20.60741 -15.85801 -11.31160 -11.27737
 Alpha  occ. eigenvalues --  -11.27733 -11.27384 -11.26728 -11.26715 -11.22827
 Alpha  occ. eigenvalues --  -11.22475 -11.22300 -11.22140 -11.22058 -11.21475
 Alpha  occ. eigenvalues --   -1.59823  -1.39376  -1.19333  -1.09310  -1.08719
 Alpha  occ. eigenvalues --   -1.04741  -1.04430  -0.96877  -0.95556  -0.87884
 Alpha  occ. eigenvalues --   -0.86141  -0.82396  -0.80524  -0.79045  -0.77447
 Alpha  occ. eigenvalues --   -0.72019  -0.71146  -0.70521  -0.65973  -0.64978
 Alpha  occ. eigenvalues --   -0.64738  -0.62139  -0.61774  -0.60273  -0.58445
 Alpha  occ. eigenvalues --   -0.56347  -0.54964  -0.53570  -0.53286  -0.53062
 Alpha  occ. eigenvalues --   -0.52829  -0.50813  -0.48828  -0.48774  -0.48755
 Alpha  occ. eigenvalues --   -0.47562  -0.46589  -0.46472  -0.44783  -0.44638
 Alpha  occ. eigenvalues --   -0.37285  -0.36344
 Alpha virt. eigenvalues --    0.05078   0.11192   0.16535   0.19741   0.22690
 Alpha virt. eigenvalues --    0.23930   0.25040   0.25891   0.26808   0.28008
 Alpha virt. eigenvalues --    0.29624   0.30086   0.30809   0.31543   0.31968

 Mulliken charges:
               1
     1  C   -0.297091
     2  C   -0.308954
     3  C   -0.485149
     4  H    0.149775
     5  H    0.152754
     6  H    0.148247
     7  H    0.157357
     8  H    0.166260
     9  H    0.149063
    10  H    0.160916
    11  C   -0.299601
    12  C   -0.300332
    13  C   -0.476414
    14  H    0.150888
    15  H    0.150684
    16  H    0.153082
    17  H    0.152701
    18  H    0.155684
    19  H    0.156855
    20  H    0.162261
    21  C   -0.176788
    22  C   -0.224715
    23  C   -0.170990
    24  C    0.157860
    25  C   -0.170514
    26  C   -0.222345
    27  H    0.241618
    28  H    0.225440
    29  H    0.275572
    30  H    0.275462
    31  H    0.223422
    32  N    0.488028
    33  O   -0.460517
    34  O   -0.460516
 Sum of Mulliken charges =  -0.00000

 Dipole moment (field-independent basis, Debye):
    X=             -4.4159    Y=             -3.0595    Z=              0.3200  Tot=              5.3818
 Quadrupole moment (field-independent basis, Debye-Ang):
   XX=           -119.5585   YY=            -96.6434   ZZ=            -90.4654
   XY=            -10.1158   XZ=              2.7892   YZ=             -1.0376

 Normal termination of Gaussian 16 at Thu May  6 05:53:06 2021.
