 Gaussian 16, Revision A.03,
 Gaussian 16:  EM64L-G16RevA.03 25-Dec-2016

 -------------
 #p 6-31g* mp2
 -------------

 ------------------------------------------------------
 Input file generated by CHIRIPA (05-May-2021 14:55:23)
 ------------------------------------------------------
 Symbolic Z-matrix:
 Charge =  0 Multiplicity = 1

                         Standard orientation:
 ---------------------------------------------------------------------
 Center     Atomic      Atomic             Coordinates (Angstroms)
 Number     Number       Type             X           Y           Z
 ---------------------------------------------------------------------
      1          6           0       -2.723484   -2.356399    0.365259
      2          6           0       -1.922553   -1.376044    0.960183
      3          6           0       -2.252955   -0.022573    0.843999
      4          6           0       -3.396483    0.316501    0.122430
      5          6           0       -4.214578   -0.636922   -0.481719
      6          6           0       -3.864928   -1.984365   -0.352528
      7          1           0       -2.459343   -3.405467    0.460565
      8          1           0       -1.035511   -1.662049    1.518219
      9          1           0       -1.650643    0.756969    1.294501
     10          1           0       -5.092705   -0.321030   -1.031739
     11          1           0       -4.488801   -2.743564   -0.815609
     12          7           0       -3.756453    1.746169   -0.007454
     13          8           0       -4.769069    2.018900   -0.648441
     14          8           0       -3.019167    2.566941    0.534190
     15          6           0        4.939257   -0.142960    0.184747
     16          6           0        5.977508    0.853273   -0.332495
     17          6           0        7.308013    0.762244    0.415344
     18          1           0        4.772245    0.034259    1.256029
     19          1           0        5.342179   -1.161333    0.095486
     20          1           0        5.572204    1.869362   -0.243569
     21          1           0        6.141926    0.673787   -1.402713
     22          1           0        7.737790   -0.239802    0.316371
     23          1           0        7.164830    0.962566    1.482101
     24          1           0        8.035580    1.483076    0.029458
     25          6           0        3.603861   -0.064078   -0.552966
     26          6           0        2.565610   -1.060311   -0.035726
     27          6           0        1.235103   -0.969282   -0.783564
     28          1           0        3.200938    0.954294   -0.463706
     29          1           0        3.770873   -0.241297   -1.624249
     30          1           0        2.401191   -0.880826    1.034493
     31          1           0        2.970914   -2.076401   -0.124651
     32          1           0        1.378288   -1.169604   -1.850320
     33          1           0        0.805328    0.032765   -0.684590
     34          1           0        0.507537   -1.690114   -0.397678
 ---------------------------------------------------------------------

 SCF Done:  E(RHF) =  -669.534306162     A.U. after   15 cycles
 E2 =    -0.2092283614D+01 EUMP2 =    -0.67162658977563D+03

 The electronic state is 1-A.
 Alpha  occ. eigenvalues --  -20.60768 -20.60763 -15.85821 -11.31190 -11.27733
 Alpha  occ. eigenvalues --  -11.27729 -11.27483 -11.26772 -11.26750 -11.22102
 Alpha  occ. eigenvalues --  -11.21782 -11.21710 -11.21625 -11.21495 -11.21223
 Alpha  occ. eigenvalues --   -1.59843  -1.39396  -1.19357  -1.08770  -1.08734
 Alpha  occ. eigenvalues --   -1.04768  -1.03857  -0.96301  -0.95588  -0.87326
 Alpha  occ. eigenvalues --   -0.86159  -0.82421  -0.79928  -0.78544  -0.77469
 Alpha  occ. eigenvalues --   -0.72040  -0.71165  -0.70462  -0.65381  -0.65009
 Alpha  occ. eigenvalues --   -0.64806  -0.62153  -0.61246  -0.59690  -0.57919
 Alpha  occ. eigenvalues --   -0.55588  -0.55258  -0.53457  -0.52943  -0.52751
 Alpha  occ. eigenvalues --   -0.52489  -0.50223  -0.48799  -0.48794  -0.48236
 Alpha  occ. eigenvalues --   -0.46964  -0.46088  -0.46002  -0.44801  -0.44117
 Alpha  occ. eigenvalues --   -0.37317  -0.36276
 Alpha virt. eigenvalues --    0.05053   0.11174   0.16534   0.20512   0.22748
 Alpha virt. eigenvalues --    0.24022   0.26189   0.26740   0.27129   0.27999
 Alpha virt. eigenvalues --    0.29042   0.30116   0.31097   0.31538   0.31833

 Mulliken charges:
               1
     1  C   -0.172470
     2  C   -0.214605
     3  C   -0.170368
     4  C    0.158365
     5  C   -0.171324
     6  C   -0.217729
     7  H    0.225497
     8  H    0.224950
     9  H    0.275037
    10  H    0.275500
    11  H    0.223452
    12  N    0.488092
    13  O   -0.460260
    14  O   -0.460665
    15  C   -0.298415
    16  C   -0.300110
    17  C   -0.475887
    18  H    0.149266
    19  H    0.149065
    20  H    0.153527
    21  H    0.152486
    22  H    0.154866
    23  H    0.155322
    24  H    0.161351
    25  C   -0.298689
    26  C   -0.300658
    27  C   -0.477969
    28  H    0.152213
    29  H    0.151223
    30  H    0.146640
    31  H    0.151461
    32  H    0.157951
    33  H    0.157599
    34  H    0.155288
 Sum of Mulliken charges =  -0.00000

 Dipole moment (field-independent basis, Debye):
    X=              1.3033    Y=             -5.0034    Z=              0.4099  Tot=              5.1866
 Quadrupole moment (field-independent basis, Debye-Ang):
   XX=           -101.1119   YY=            -97.8417   ZZ=            -93.5286
   XY=             18.7355   XZ=              0.3376   YZ=              0.7751

 Normal termination of Gaussian 16 at Thu May  6 19:14:22 2021.
