 Gaussian 16, Revision A.03,
 Gaussian 16:  EM64L-G16RevA.03 25-Dec-2016

 -------------
 #p 6-31g* mp2
 -------------

 ------------------------------------------------------
 Input file generated by CHIRIPA (05-May-2021 14:55:20)
 ------------------------------------------------------
 Symbolic Z-matrix:
 Charge =  0 Multiplicity = 1

                         Standard orientation:
 ---------------------------------------------------------------------
 Center     Atomic      Atomic             Coordinates (Angstroms)
 Number     Number       Type             X           Y           Z
 ---------------------------------------------------------------------
      1          6           0       -1.159851   -0.591854    2.578373
      2          6           0       -1.422944    0.686796    2.076021
      3          6           0       -1.881362    0.854480    0.765951
      4          6           0       -2.066516   -0.283512   -0.017619
      5          6           0       -1.813246   -1.570605    0.454119
      6          6           0       -1.355496   -1.714494    1.767248
      7          1           0       -0.804000   -0.712873    3.597255
      8          1           0       -1.271907    1.560455    2.703678
      9          1           0       -2.092855    1.832772    0.351663
     10          1           0       -1.973332   -2.422529   -0.195509
     11          1           0       -1.151994   -2.708726    2.154721
     12          7           0       -2.551468   -0.118588   -1.406151
     13          8           0       -2.706548   -1.137186   -2.076258
     14          8           0       -2.767312    1.026156   -1.798083
     15          6           0        2.526740   -0.289041   -0.604401
     16          6           0        3.552758   -1.266709   -0.030436
     17          6           0        3.508326   -2.636198   -0.708905
     18          1           0        1.521289   -0.719229   -0.499742
     19          1           0        2.705719   -0.171322   -1.682132
     20          1           0        3.372762   -1.381485    1.046153
     21          1           0        4.555866   -0.834061   -0.136300
     22          1           0        3.709804   -2.541771   -1.780862
     23          1           0        2.519979   -3.092305   -0.591690
     24          1           0        4.249890   -3.319375   -0.283214
     25          6           0        2.558930    1.084417    0.063657
     26          6           0        1.532911    2.062085   -0.510307
     27          6           0        1.577344    3.431574    0.168162
     28          1           0        2.379950    0.966698    1.141389
     29          1           0        3.564380    1.514604   -0.041001
     30          1           0        0.529804    1.629437   -0.404444
     31          1           0        1.712906    2.176860   -1.586896
     32          1           0        2.565689    3.887680    0.050947
     33          1           0        1.375865    3.337146    1.240119
     34          1           0        0.835779    4.114750   -0.257529
 ---------------------------------------------------------------------

 SCF Done:  E(RHF) =  -669.535232366     A.U. after   15 cycles
 E2 =    -0.2094122320D+01 EUMP2 =    -0.67162935468563D+03

 The electronic state is 1-A.
 Alpha  occ. eigenvalues --  -20.60855 -20.60848 -15.85909 -11.31326 -11.27916
 Alpha  occ. eigenvalues --  -11.27886 -11.27651 -11.26927 -11.26912 -11.21740
 Alpha  occ. eigenvalues --  -11.21556 -11.21464 -11.21383 -11.21286 -11.21210
 Alpha  occ. eigenvalues --   -1.59927  -1.39479  -1.19519  -1.08890  -1.08502
 Alpha  occ. eigenvalues --   -1.04929  -1.03637  -0.96104  -0.95718  -0.87120
 Alpha  occ. eigenvalues --   -0.86313  -0.82544  -0.79696  -0.78312  -0.77583
 Alpha  occ. eigenvalues --   -0.72125  -0.71254  -0.70611  -0.65175  -0.65145
 Alpha  occ. eigenvalues --   -0.64905  -0.62275  -0.61055  -0.59465  -0.57705
 Alpha  occ. eigenvalues --   -0.55441  -0.55373  -0.53288  -0.53000  -0.52791
 Alpha  occ. eigenvalues --   -0.52526  -0.50056  -0.48889  -0.48877  -0.48021
 Alpha  occ. eigenvalues --   -0.46749  -0.45839  -0.45760  -0.44858  -0.43878
 Alpha  occ. eigenvalues --   -0.37464  -0.36450
 Alpha virt. eigenvalues --    0.04934   0.11036   0.16391   0.20853   0.22808
 Alpha virt. eigenvalues --    0.23929   0.26350   0.26808   0.27118   0.27968
 Alpha virt. eigenvalues --    0.28809   0.29995   0.31411   0.31710   0.31851

 Mulliken charges:
               1
     1  C   -0.171168
     2  C   -0.216407
     3  C   -0.175889
     4  C    0.162551
     5  C   -0.172057
     6  C   -0.218273
     7  H    0.226442
     8  H    0.224949
     9  H    0.277496
    10  H    0.276504
    11  H    0.224359
    12  N    0.488453
    13  O   -0.459925
    14  O   -0.460140
    15  C   -0.300444
    16  C   -0.299039
    17  C   -0.475111
    18  H    0.150965
    19  H    0.152515
    20  H    0.147770
    21  H    0.152374
    22  H    0.158069
    23  H    0.152703
    24  H    0.159249
    25  C   -0.296380
    26  C   -0.305274
    27  C   -0.476836
    28  H    0.144440
    29  H    0.149276
    30  H    0.156584
    31  H    0.156448
    32  H    0.157222
    33  H    0.146845
    34  H    0.161726
 Sum of Mulliken charges =  -0.00000

 Dipole moment (field-independent basis, Debye):
    X=              1.6083    Y=             -0.6106    Z=              4.8286  Tot=              5.1259
 Quadrupole moment (field-independent basis, Debye-Ang):
   XX=           -102.2371   YY=            -90.6323   ZZ=            -95.0440
   XY=              0.8819   XZ=            -10.9440   YZ=             -1.4504

 Normal termination of Gaussian 16 at Wed May  5 23:48:38 2021.
