 Gaussian 16, Revision A.03,
 Gaussian 16:  EM64L-G16RevA.03 25-Dec-2016

 -------------
 #p 6-31g* mp2
 -------------

 ------------------------------------------------------
 Input file generated by CHIRIPA (05-May-2021 14:51:13)
 ------------------------------------------------------
 Symbolic Z-matrix:
 Charge =  0 Multiplicity = 1

                         Standard orientation:
 ---------------------------------------------------------------------
 Center     Atomic      Atomic             Coordinates (Angstroms)
 Number     Number       Type             X           Y           Z
 ---------------------------------------------------------------------
      1          6           0       -3.141543    0.904195   -0.540454
      2          6           0       -3.097320    1.907323    0.612700
      3          6           0       -3.300327    3.350155    0.149215
      4          1           0       -2.369004    1.166628   -1.276156
      5          1           0       -4.107531    0.991970   -1.056746
      6          1           0       -2.132246    1.816720    1.127519
      7          1           0       -3.869927    1.642359    1.345835
      8          1           0       -4.270216    3.462860   -0.345974
      9          1           0       -2.522662    3.638212   -0.565531
     10          1           0       -3.265025    4.050497    0.989534
     11          6           0       -2.940160   -0.542505   -0.092982
     12          6           0       -2.984383   -1.545633   -1.246135
     13          6           0       -2.781377   -2.988465   -0.782651
     14          1           0       -1.974172   -0.630280    0.423310
     15          1           0       -3.712699   -0.804938    0.642721
     16          1           0       -2.211776   -1.280669   -1.979271
     17          1           0       -3.949457   -1.455031   -1.760955
     18          1           0       -3.559041   -3.276522   -0.067904
     19          1           0       -1.811487   -3.101170   -0.287461
     20          1           0       -2.816678   -3.688807   -1.622969
     21          6           0        3.382921    0.037958   -0.330233
     22          6           0        4.816017    0.528890   -0.122369
     23          6           0        5.487054    0.963121   -1.425806
     24          1           0        3.388861   -0.801691   -1.038681
     25          1           0        2.792998    0.837956   -0.798623
     26          1           0        5.402712   -0.271314    0.346755
     27          1           0        4.806685    1.367345    0.585815
     28          1           0        4.926383    1.778148   -1.894827
     29          1           0        5.525796    0.130178   -2.135246
     30          1           0        6.510663    1.310384   -1.254077
     31          6           0        2.698782   -0.399648    0.963669
     32          6           0        1.265687   -0.890580    0.755805
     33          6           0        0.594650   -1.324811    2.059241
     34          1           0        3.288704   -1.199645    1.432058
     35          1           0        2.692842    0.440001    1.672117
     36          1           0        1.275017   -1.729035    0.047621
     37          1           0        0.678990   -0.090376    0.286681
     38          1           0        0.555907   -0.491867    2.768682
     39          1           0        1.155320   -2.139837    2.528263
     40          1           0       -0.428961   -1.672074    1.887512
 ---------------------------------------------------------------------

 SCF Done:  E(RHF) =  -470.733054308     A.U. after   11 cycles
 E2 =    -0.1583620450D+01 EUMP2 =    -0.47231667475805D+03

 The electronic state is 1-A.
 Alpha  occ. eigenvalues --  -11.21700 -11.21641 -11.21605 -11.21574 -11.21468
 Alpha  occ. eigenvalues --  -11.21406 -11.21378 -11.21296 -11.21115 -11.21103
 Alpha  occ. eigenvalues --  -11.21080 -11.21067  -1.08503  -1.08407  -1.03603
 Alpha  occ. eigenvalues --   -1.03514  -0.96047  -0.95965  -0.87058  -0.86984
 Alpha  occ. eigenvalues --   -0.79655  -0.79583  -0.78328  -0.78216  -0.65190
 Alpha  occ. eigenvalues --   -0.65011  -0.60992  -0.60944  -0.59482  -0.59269
 Alpha  occ. eigenvalues --   -0.57688  -0.57551  -0.55377  -0.55198  -0.52768
 Alpha  occ. eigenvalues --   -0.52660  -0.52501  -0.52357  -0.49972  -0.49912
 Alpha  occ. eigenvalues --   -0.48005  -0.47869  -0.46697  -0.46603  -0.45877
 Alpha  occ. eigenvalues --   -0.45807  -0.45746  -0.45574  -0.43828  -0.43768
 Alpha virt. eigenvalues --    0.20058   0.23046   0.23251   0.24658   0.26150
 Alpha virt. eigenvalues --    0.26594   0.26915   0.27551   0.27905   0.29725
 Alpha virt. eigenvalues --    0.30206   0.31268   0.31534   0.31812   0.32074

 Mulliken charges:
               1
     1  C   -0.297705
     2  C   -0.300078
     3  C   -0.475657
     4  H    0.149210
     5  H    0.149533
     6  H    0.151712
     7  H    0.152159
     8  H    0.155343
     9  H    0.154900
    10  H    0.160186
    11  C   -0.309385
    12  C   -0.298828
    13  C   -0.478387
    14  H    0.162134
    15  H    0.149011
    16  H    0.152095
    17  H    0.151741
    18  H    0.155108
    19  H    0.157017
    20  H    0.160351
    21  C   -0.298376
    22  C   -0.299730
    23  C   -0.475753
    24  H    0.149797
    25  H    0.149341
    26  H    0.152088
    27  H    0.152053
    28  H    0.155197
    29  H    0.155257
    30  H    0.160431
    31  C   -0.298122
    32  C   -0.302465
    33  C   -0.481710
    34  H    0.150027
    35  H    0.149939
    36  H    0.152432
    37  H    0.152381
    38  H    0.155491
    39  H    0.156065
    40  H    0.165198
 Sum of Mulliken charges =  -0.00000

 Dipole moment (field-independent basis, Debye):
    X=              0.0281    Y=             -0.0086    Z=              0.0140  Tot=              0.0325
 Quadrupole moment (field-independent basis, Debye-Ang):
   XX=            -84.0397   YY=            -85.1945   ZZ=            -85.5150
   XY=             -0.3151   XZ=              0.3021   YZ=              0.6077

 Normal termination of Gaussian 16 at Wed May  5 18:21:55 2021.
