 Gaussian 16, Revision A.03,
 Gaussian 16:  EM64L-G16RevA.03 25-Dec-2016

 -------------
 #p 6-31g* mp2
 -------------

 ------------------------------------------------------
 Input file generated by CHIRIPA (05-May-2021 14:55:22)
 ------------------------------------------------------
 Symbolic Z-matrix:
 Charge =  0 Multiplicity = 1

                         Standard orientation:
 ---------------------------------------------------------------------
 Center     Atomic      Atomic             Coordinates (Angstroms)
 Number     Number       Type             X           Y           Z
 ---------------------------------------------------------------------
      1          6           0       -0.690628   -1.650852    0.184432
      2          6           0       -1.055732   -0.802583    1.234984
      3          6           0       -2.241041   -0.063923    1.171959
      4          6           0       -3.041160   -0.198284    0.038360
      5          6           0       -2.704664   -1.035044   -1.024605
      6          6           0       -1.514807   -1.764175   -0.940028
      7          1           0        0.231915   -2.220960    0.241762
      8          1           0       -0.417609   -0.712591    2.109481
      9          1           0       -2.547751    0.600183    1.970901
     10          1           0       -3.361273   -1.103844   -1.883413
     11          1           0       -1.233784   -2.422176   -1.757405
     12          7           0       -4.298401    0.578659   -0.039771
     13          8           0       -4.986003    0.442633   -1.049393
     14          8           0       -4.572419    1.308940    0.910093
     15          6           0        3.171455    1.016845    0.062981
     16          6           0        3.744408    2.336882   -0.453943
     17          6           0        2.820670    3.526200   -0.189327
     18          1           0        2.196088    0.837681   -0.409780
     19          1           0        2.984391    1.103996    1.142243
     20          1           0        3.931631    2.246805   -1.531649
     21          1           0        4.718613    2.512829    0.019960
     22          1           0        2.642851    3.644439    0.884452
     23          1           0        1.851398    3.376904   -0.675973
     24          1           0        3.249702    4.459572   -0.566961
     25          6           0        4.083459   -0.181430   -0.194147
     26          6           0        3.510507   -1.501467    0.322778
     27          6           0        4.434245   -2.690786    0.058162
     28          1           0        4.270524   -0.268582   -1.273408
     29          1           0        5.058827   -0.002266    0.278615
     30          1           0        2.536302   -1.677414   -0.151125
     31          1           0        3.323284   -1.411391    1.400484
     32          1           0        5.403517   -2.541490    0.544808
     33          1           0        4.612064   -2.809025   -1.015617
     34          1           0        4.005212   -3.624158    0.435796
 ---------------------------------------------------------------------

 SCF Done:  E(RHF) =  -669.535643296     A.U. after   15 cycles
 E2 =    -0.2091477480D+01 EUMP2 =    -0.67162712077566D+03

 The electronic state is 1-A.
 Alpha  occ. eigenvalues --  -20.60750 -20.60745 -15.85804 -11.31170 -11.27737
 Alpha  occ. eigenvalues --  -11.27728 -11.27443 -11.26753 -11.26739 -11.22694
 Alpha  occ. eigenvalues --  -11.22166 -11.22086 -11.22006 -11.21984 -11.21419
 Alpha  occ. eigenvalues --   -1.59826  -1.39379  -1.19339  -1.09172  -1.08730
 Alpha  occ. eigenvalues --   -1.04741  -1.04245  -0.96655  -0.95568  -0.87673
 Alpha  occ. eigenvalues --   -0.86135  -0.82404  -0.80356  -0.78965  -0.77448
 Alpha  occ. eigenvalues --   -0.72021  -0.71149  -0.70455  -0.65798  -0.64988
 Alpha  occ. eigenvalues --   -0.64741  -0.62088  -0.61643  -0.60065  -0.58278
 Alpha  occ. eigenvalues --   -0.55930  -0.55252  -0.53363  -0.53083  -0.53056
 Alpha  occ. eigenvalues --   -0.52830  -0.50594  -0.48789  -0.48776  -0.48628
 Alpha  occ. eigenvalues --   -0.47386  -0.46493  -0.46399  -0.44784  -0.44488
 Alpha  occ. eigenvalues --   -0.37301  -0.36346
 Alpha virt. eigenvalues --    0.05054   0.11294   0.16444   0.20222   0.22542
 Alpha virt. eigenvalues --    0.23702   0.25365   0.25975   0.27091   0.27739
 Alpha virt. eigenvalues --    0.28978   0.30355   0.30893   0.31335   0.32050

 Mulliken charges:
               1
     1  C   -0.174055
     2  C   -0.219293
     3  C   -0.171117
     4  C    0.158528
     5  C   -0.171019
     6  C   -0.220184
     7  H    0.232195
     8  H    0.224182
     9  H    0.275563
    10  H    0.275436
    11  H    0.223197
    12  N    0.488045
    13  O   -0.460542
    14  O   -0.460392
    15  C   -0.300333
    16  C   -0.300160
    17  C   -0.476327
    18  H    0.151595
    19  H    0.147065
    20  H    0.153098
    21  H    0.152792
    22  H    0.154911
    23  H    0.157418
    24  H    0.162412
    25  C   -0.297718
    26  C   -0.304642
    27  C   -0.475821
    28  H    0.151651
    29  H    0.152703
    30  H    0.144874
    31  H    0.150188
    32  H    0.159572
    33  H    0.157499
    34  H    0.158678
 Sum of Mulliken charges =  -0.00000

 Dipole moment (field-independent basis, Debye):
    X=              4.5800    Y=             -2.6603    Z=              0.2498  Tot=              5.3024
 Quadrupole moment (field-independent basis, Debye-Ang):
   XX=           -121.7822   YY=            -94.2679   ZZ=            -90.0450
   XY=              8.5785   XZ=              0.6836   YZ=              1.9253

 Normal termination of Gaussian 16 at Thu May  6 07:49:11 2021.
