 Gaussian 16, Revision A.03,
 Gaussian 16:  EM64L-G16RevA.03 25-Dec-2016

 -------------
 #p 6-31g* mp2
 -------------

 ------------------------------------------------------
 Input file generated by CHIRIPA (05-May-2021 14:51:13)
 ------------------------------------------------------
 Symbolic Z-matrix:
 Charge =  0 Multiplicity = 1

                         Standard orientation:
 ---------------------------------------------------------------------
 Center     Atomic      Atomic             Coordinates (Angstroms)
 Number     Number       Type             X           Y           Z
 ---------------------------------------------------------------------
      1          6           0       -3.321786    0.392279    0.289633
      2          6           0       -1.967601   -0.260352    0.569344
      3          6           0       -0.867016    0.761415    0.856572
      4          1           0       -3.222601    1.076307   -0.564307
      5          1           0       -3.608925    1.009079    1.152480
      6          1           0       -1.683751   -0.876837   -0.293205
      7          1           0       -2.070066   -0.943050    1.422597
      8          1           0       -1.124240    1.369447    1.729919
      9          1           0       -0.735730    1.436036    0.004368
     10          1           0        0.092485    0.273224    1.053766
     11          6           0       -4.432210   -0.616287    0.000699
     12          6           0       -5.786395    0.036345   -0.279013
     13          6           0       -6.886979   -0.985423   -0.566241
     14          1           0       -4.145071   -1.233086   -0.862148
     15          1           0       -4.531395   -1.300314    0.854639
     16          1           0       -5.683930    0.719043   -1.132266
     17          1           0       -6.070245    0.652830    0.583536
     18          1           0       -7.018266   -1.660044    0.285963
     19          1           0       -6.629756   -1.593454   -1.439588
     20          1           0       -7.846481   -0.497231   -0.763435
     21          6           0        4.076658   -0.509575    0.251328
     22          6           0        4.711473   -1.600958   -0.611157
     23          6           0        5.105514   -2.838096    0.196318
     24          1           0        4.780229   -0.222532    1.044762
     25          1           0        3.189126   -0.918754    0.753579
     26          1           0        5.596751   -1.189448   -1.112713
     27          1           0        4.006383   -1.885300   -1.402745
     28          1           0        4.228315   -3.275075    0.684346
     29          1           0        5.827719   -2.575269    0.976025
     30          1           0        5.557335   -3.605575   -0.439837
     31          6           0        3.677338    0.733584   -0.541659
     32          6           0        3.042523    1.824965    0.320825
     33          6           0        2.648481    3.062103   -0.486650
     34          1           0        4.564870    1.142761   -1.043911
     35          1           0        2.973767    0.446540   -1.335093
     36          1           0        3.747613    2.109308    1.112414
     37          1           0        2.157246    1.413456    0.822381
     38          1           0        1.926277    2.799276   -1.266357
     39          1           0        3.525681    3.499082   -0.974677
     40          1           0        2.196661    3.829583    0.149506
 ---------------------------------------------------------------------

 SCF Done:  E(RHF) =  -470.733116800     A.U. after   11 cycles
 E2 =    -0.1582767960D+01 EUMP2 =    -0.47231588475991D+03

 The electronic state is 1-A.
 Alpha  occ. eigenvalues --  -11.21661 -11.21626 -11.21586 -11.21464 -11.21444
 Alpha  occ. eigenvalues --  -11.21383 -11.21374 -11.21302 -11.21143 -11.21091
 Alpha  occ. eigenvalues --  -11.21059 -11.20999  -1.08473  -1.08383  -1.03584
 Alpha  occ. eigenvalues --   -1.03469  -0.96035  -0.95928  -0.87055  -0.86946
 Alpha  occ. eigenvalues --   -0.79675  -0.79512  -0.78286  -0.78194  -0.65112
 Alpha  occ. eigenvalues --   -0.65020  -0.61022  -0.60862  -0.59428  -0.59258
 Alpha  occ. eigenvalues --   -0.57640  -0.57541  -0.55347  -0.55189  -0.52779
 Alpha  occ. eigenvalues --   -0.52610  -0.52453  -0.52350  -0.49965  -0.49868
 Alpha  occ. eigenvalues --   -0.47968  -0.47849  -0.46670  -0.46568  -0.45827
 Alpha  occ. eigenvalues --   -0.45755  -0.45733  -0.45672  -0.43778  -0.43710
 Alpha virt. eigenvalues --    0.21122   0.23024   0.23810   0.24719   0.25732
 Alpha virt. eigenvalues --    0.26504   0.26932   0.27491   0.27848   0.28940
 Alpha virt. eigenvalues --    0.30932   0.31085   0.31787   0.31902   0.32313

 Mulliken charges:
               1
     1  C   -0.298717
     2  C   -0.299756
     3  C   -0.479533
     4  H    0.149781
     5  H    0.149719
     6  H    0.151790
     7  H    0.152111
     8  H    0.155922
     9  H    0.156809
    10  H    0.162352
    11  C   -0.298307
    12  C   -0.299659
    13  C   -0.475725
    14  H    0.149525
    15  H    0.149723
    16  H    0.152012
    17  H    0.152007
    18  H    0.155215
    19  H    0.155202
    20  H    0.160358
    21  C   -0.298722
    22  C   -0.299570
    23  C   -0.475696
    24  H    0.149797
    25  H    0.148721
    26  H    0.152021
    27  H    0.151857
    28  H    0.155103
    29  H    0.155172
    30  H    0.160191
    31  C   -0.297936
    32  C   -0.307207
    33  C   -0.475205
    34  H    0.149266
    35  H    0.149312
    36  H    0.151121
    37  H    0.161505
    38  H    0.154590
    39  H    0.154584
    40  H    0.160269
 Sum of Mulliken charges =  -0.00000

 Dipole moment (field-independent basis, Debye):
    X=             -0.0435    Y=              0.0030    Z=              0.0149  Tot=              0.0461
 Quadrupole moment (field-independent basis, Debye-Ang):
   XX=            -84.8906   YY=            -85.9871   ZZ=            -83.9973
   XY=              0.1160   XZ=             -0.4140   YZ=              0.3478

 Normal termination of Gaussian 16 at Wed May  5 21:36:38 2021.
