 Gaussian 16, Revision A.03,
 Gaussian 16:  EM64L-G16RevA.03 25-Dec-2016

 -------------
 #p 6-31g* mp2
 -------------

 ------------------------------------------------------
 Input file generated by CHIRIPA (05-May-2021 14:53:17)
 ------------------------------------------------------
 Symbolic Z-matrix:
 Charge =  0 Multiplicity = 1

                         Standard orientation:
 ---------------------------------------------------------------------
 Center     Atomic      Atomic             Coordinates (Angstroms)
 Number     Number       Type             X           Y           Z
 ---------------------------------------------------------------------
      1          6           0       -3.620973    0.703325    0.408718
      2          6           0       -3.602776    2.001066   -0.399688
      3          6           0       -3.627391    3.248487    0.484127
      4          1           0       -4.517327    0.686904    1.043718
      5          1           0       -2.756871    0.690114    1.087354
      6          1           0       -4.465892    2.011198   -1.077586
      7          1           0       -2.706460    2.014313   -1.032980
      8          1           0       -2.759034    3.265565    1.150659
      9          1           0       -4.528463    3.262432    1.105800
     10          1           0       -3.613843    4.164796   -0.114249
     11          6           0       -3.596705   -0.552474   -0.460826
     12          6           0       -3.614902   -1.850216    0.347580
     13          6           0       -3.590287   -3.097636   -0.536236
     14          1           0       -4.460807   -0.539264   -1.139463
     15          1           0       -2.700351   -0.536053   -1.095826
     16          1           0       -4.511218   -1.863463    0.980871
     17          1           0       -2.751787   -1.860347    1.025477
     18          1           0       -2.689215   -3.111581   -1.157909
     19          1           0       -4.458644   -3.114714   -1.202768
     20          1           0       -3.603835   -4.013945    0.062141
     21          6           0        0.326566   -0.396663    0.214293
     22          6           0        0.880420    0.054062   -0.988460
     23          6           0        2.260300    0.244736   -1.107302
     24          6           0        3.060404   -0.026275    0.001606
     25          6           0        2.538544   -0.476389    1.213360
     26          6           0        1.155934   -0.659987    1.309433
     27          1           0       -0.746417   -0.542034    0.297769
     28          1           0        0.238748    0.259364   -1.840605
     29          1           0        2.715509    0.592751   -2.026590
     30          1           0        3.203743   -0.672609    2.045481
     31          1           0        0.728574   -1.010123    2.244748
     32          7           0        4.522666    0.171837   -0.112156
     33          8           0        5.205989   -0.074045    0.879434
     34          8           0        4.957777    0.569248   -1.190757
 ---------------------------------------------------------------------

 SCF Done:  E(RHF) =  -669.534827669     A.U. after   15 cycles
 E2 =    -0.2092977575D+01 EUMP2 =    -0.67162780524369D+03

 The electronic state is 1-A.
 Alpha  occ. eigenvalues --  -20.60746 -20.60741 -15.85800 -11.31165 -11.27739
 Alpha  occ. eigenvalues --  -11.27734 -11.27405 -11.26749 -11.26735 -11.22881
 Alpha  occ. eigenvalues --  -11.22730 -11.22620 -11.22560 -11.22075 -11.21833
 Alpha  occ. eigenvalues --   -1.59822  -1.39375  -1.19337  -1.09666  -1.08722
 Alpha  occ. eigenvalues --   -1.04742  -1.04595  -0.97033  -0.95565  -0.88035
 Alpha  occ. eigenvalues --   -0.86139  -0.82405  -0.80672  -0.79459  -0.77449
 Alpha  occ. eigenvalues --   -0.72017  -0.71145  -0.70593  -0.66289  -0.64986
 Alpha  occ. eigenvalues --   -0.64709  -0.62094  -0.62005  -0.60390  -0.58636
 Alpha  occ. eigenvalues --   -0.56431  -0.55080  -0.53663  -0.53424  -0.53067
 Alpha  occ. eigenvalues --   -0.52833  -0.50971  -0.48964  -0.48777  -0.48773
 Alpha  occ. eigenvalues --   -0.47746  -0.46967  -0.46933  -0.44888  -0.44781
 Alpha  occ. eigenvalues --   -0.37305  -0.36350
 Alpha virt. eigenvalues --    0.05067   0.11280   0.16484   0.18247   0.23002
 Alpha virt. eigenvalues --    0.23334   0.24030   0.25584   0.26835   0.28277
 Alpha virt. eigenvalues --    0.30164   0.30426   0.30822   0.31100   0.31692

 Mulliken charges:
               1
     1  C   -0.301548
     2  C   -0.298997
     3  C   -0.476655
     4  H    0.155881
     5  H    0.143830
     6  H    0.155424
     7  H    0.148164
     8  H    0.156969
     9  H    0.157191
    10  H    0.163759
    11  C   -0.306758
    12  C   -0.301932
    13  C   -0.476035
    14  H    0.159074
    15  H    0.140714
    16  H    0.158610
    17  H    0.143314
    18  H    0.155164
    19  H    0.159092
    20  H    0.164339
    21  C   -0.179988
    22  C   -0.224180
    23  C   -0.170346
    24  C    0.158124
    25  C   -0.170432
    26  C   -0.222527
    27  H    0.244891
    28  H    0.223557
    29  H    0.275548
    30  H    0.275531
    31  H    0.223213
    32  N    0.487956
    33  O   -0.460460
    34  O   -0.460485
 Sum of Mulliken charges =  -0.00000

 Dipole moment (field-independent basis, Debye):
    X=             -5.4478    Y=             -0.6817    Z=              0.3976  Tot=              5.5046
 Quadrupole moment (field-independent basis, Debye-Ang):
   XX=           -124.4967   YY=            -95.4519   ZZ=            -90.5841
   XY=             -2.1460   XZ=              1.9165   YZ=             -2.0799

 Normal termination of Gaussian 16 at Wed May  5 23:39:05 2021.
