 Gaussian 16, Revision A.03,
 Gaussian 16:  EM64L-G16RevA.03 25-Dec-2016

 -------------
 #p 6-31g* mp2
 -------------

 ------------------------------------------------------
 Input file generated by CHIRIPA (05-May-2021 14:57:21)
 ------------------------------------------------------
 Symbolic Z-matrix:
 Charge =  0 Multiplicity = 1

                         Standard orientation:
 ---------------------------------------------------------------------
 Center     Atomic      Atomic             Coordinates (Angstroms)
 Number     Number       Type             X           Y           Z
 ---------------------------------------------------------------------
      1          6           0        1.914533    0.131483    0.563955
      2          6           0        2.688067    1.280595    0.369772
      3          6           0        4.055561    1.178331    0.097649
      4          6           0        4.619402   -0.094583    0.026496
      5          6           0        3.875288   -1.258181    0.215235
      6          6           0        2.509563   -1.132010    0.486204
      7          1           0        0.852918    0.220210    0.774899
      8          1           0        2.228641    2.263141    0.429571
      9          1           0        4.677855    2.051426   -0.056856
     10          1           0        4.361530   -2.223925    0.149472
     11          1           0        1.911284   -2.026156    0.636572
     12          7           0        6.066170   -0.215500   -0.260978
     13          8           0        6.539053   -1.348511   -0.318470
     14          8           0        6.699869    0.825025   -0.423365
     15          6           0       -2.106108    1.165926   -0.084259
     16          6           0       -2.213638   -0.228545   -0.104406
     17          6           0       -3.468911   -0.844021   -0.098881
     18          6           0       -4.600882   -0.030846   -0.072871
     19          6           0       -4.526490    1.361036   -0.052368
     20          6           0       -3.260841    1.954876   -0.058350
     21          1           0       -1.126952    1.635638   -0.088728
     22          1           0       -1.318570   -0.843763   -0.124546
     23          1           0       -3.581048   -1.921338   -0.114099
     24          1           0       -5.436785    1.947880   -0.032483
     25          1           0       -3.180359    3.038075   -0.042663
     26          7           0       -5.935275   -0.670970   -0.066780
     27          8           0       -6.917306    0.067758   -0.043704
     28          8           0       -5.973873   -1.899305   -0.085197
 ---------------------------------------------------------------------

 SCF Done:  E(RHF) =  -868.335810231     A.U. after   16 cycles
 E2 =    -0.2600633635D+01 EUMP2 =    -0.87093644386582D+03

 The electronic state is 1-A.
 Alpha  occ. eigenvalues --  -20.61422 -20.61415 -20.61394 -20.61389 -15.86482
 Alpha  occ. eigenvalues --  -15.86454 -11.32032 -11.32010 -11.28652 -11.28594
 Alpha  occ. eigenvalues --  -11.28592 -11.28578 -11.28528 -11.28514 -11.27807
 Alpha  occ. eigenvalues --  -11.27733 -11.27702 -11.27672  -1.60492  -1.60465
 Alpha  occ. eigenvalues --   -1.40040  -1.40013  -1.20244  -1.20213  -1.09657
 Alpha  occ. eigenvalues --   -1.09586  -1.05671  -1.05638  -0.96471  -0.96365
 Alpha  occ. eigenvalues --   -0.87093  -0.87048  -0.83260  -0.83215  -0.78249
 Alpha  occ. eigenvalues --   -0.78202  -0.72702  -0.72671  -0.71816  -0.71789
 Alpha  occ. eigenvalues --   -0.71726  -0.71137  -0.65917  -0.65889  -0.65793
 Alpha  occ. eigenvalues --   -0.65573  -0.63024  -0.62966  -0.56437  -0.56075
 Alpha  occ. eigenvalues --   -0.53983  -0.53962  -0.53769  -0.53748  -0.49474
 Alpha  occ. eigenvalues --   -0.49447  -0.49437  -0.49411  -0.45404  -0.45375
 Alpha  occ. eigenvalues --   -0.38280  -0.38235  -0.37256  -0.37223
 Alpha virt. eigenvalues --    0.04282   0.04312   0.10311   0.10380   0.15627
 Alpha virt. eigenvalues --    0.15713   0.17608   0.22317   0.23679   0.25368
 Alpha virt. eigenvalues --    0.27580   0.29343   0.29662   0.30295   0.33342

 Mulliken charges:
               1
     1  C   -0.177183
     2  C   -0.219014
     3  C   -0.169388
     4  C    0.159551
     5  C   -0.169280
     6  C   -0.219165
     7  H    0.221682
     8  H    0.220782
     9  H    0.278130
    10  H    0.278699
    11  H    0.223281
    12  N    0.487874
    13  O   -0.457892
    14  O   -0.458356
    15  C   -0.172255
    16  C   -0.219860
    17  C   -0.169325
    18  C    0.159432
    19  C   -0.169403
    20  C   -0.217599
    21  H    0.218431
    22  H    0.216946
    23  H    0.277752
    24  H    0.278694
    25  H    0.225872
    26  N    0.487948
    27  O   -0.457812
    28  O   -0.458544
 Sum of Mulliken charges =  -0.00000

 Dipole moment (field-independent basis, Debye):
    X=             -0.4125    Y=              2.6553    Z=              0.9510  Tot=              2.8505
 Quadrupole moment (field-independent basis, Debye-Ang):
   XX=           -192.5165   YY=            -95.7789   ZZ=           -106.5566
   XY=            -10.1504   XZ=              4.2792   YZ=             -0.4591

 Normal termination of Gaussian 16 at Thu May  6 19:27:00 2021.
