 Gaussian 16, Revision A.03,
 Gaussian 16:  EM64L-G16RevA.03 25-Dec-2016

 -------------
 #p 6-31g* mp2
 -------------

 ------------------------------------------------------
 Input file generated by CHIRIPA (05-May-2021 14:53:15)
 ------------------------------------------------------
 Symbolic Z-matrix:
 Charge =  0 Multiplicity = 1

                         Standard orientation:
 ---------------------------------------------------------------------
 Center     Atomic      Atomic             Coordinates (Angstroms)
 Number     Number       Type             X           Y           Z
 ---------------------------------------------------------------------
      1          6           0        2.307797   -0.329331    0.112864
      2          6           0        3.491506   -1.249361   -0.187740
      3          6           0        3.174915   -2.723022    0.068945
      4          1           0        2.003949   -0.463561    1.160052
      5          1           0        1.450158   -0.633730   -0.502921
      6          1           0        4.347077   -0.942447    0.427418
      7          1           0        3.792694   -1.112784   -1.234281
      8          1           0        2.337805   -3.051638   -0.555443
      9          1           0        2.895338   -2.880332    1.115698
     10          1           0        4.034857   -3.362851   -0.152365
     11          6           0        2.608820    1.147059   -0.138906
     12          6           0        1.425111    2.067088    0.161697
     13          6           0        1.741703    3.540749   -0.094987
     14          1           0        3.466460    1.451457    0.476878
     15          1           0        2.912668    1.281289   -1.186095
     16          1           0        1.123923    1.930512    1.208239
     17          1           0        0.569540    1.760175   -0.453461
     18          1           0        2.021279    3.698060   -1.141740
     19          1           0        2.578812    3.869366    0.529401
     20          1           0        0.881760    4.180579    0.126322
     21          6           0       -2.200878    2.187841    0.041179
     22          6           0       -2.219892    1.496335   -1.174542
     23          6           0       -2.065528    0.107137   -1.203684
     24          6           0       -1.893453   -0.561818    0.007175
     25          6           0       -1.870036    0.098841    1.234477
     26          6           0       -2.026318    1.488121    1.239696
     27          1           0       -2.321538    3.267034    0.054525
     28          1           0       -2.355288    2.037138   -2.106875
     29          1           0       -2.076301   -0.453180   -2.130694
     30          1           0       -1.733269   -0.467735    2.147551
     31          1           0       -2.011137    2.022536    2.185326
     32          7           0       -1.729019   -2.032543   -0.011013
     33          8           0       -1.578937   -2.598696    1.069535
     34          8           0       -1.753330   -2.591295   -1.105472
 ---------------------------------------------------------------------

 SCF Done:  E(RHF) =  -669.533893451     A.U. after   15 cycles
 E2 =    -0.2095961194D+01 EUMP2 =    -0.67162985464449D+03

 The electronic state is 1-A.
 Alpha  occ. eigenvalues --  -20.60848 -20.60840 -15.85900 -11.31298 -11.27866
 Alpha  occ. eigenvalues --  -11.27831 -11.27544 -11.26850 -11.26819 -11.21550
 Alpha  occ. eigenvalues --  -11.21420 -11.21334 -11.21289 -11.21197 -11.20484
 Alpha  occ. eigenvalues --   -1.59919  -1.39472  -1.19466  -1.08855  -1.08317
 Alpha  occ. eigenvalues --   -1.04861  -1.03407  -0.95877  -0.95670  -0.86878
 Alpha  occ. eigenvalues --   -0.86253  -0.82507  -0.79492  -0.78135  -0.77555
 Alpha  occ. eigenvalues --   -0.72115  -0.71238  -0.70552  -0.65105  -0.64977
 Alpha  occ. eigenvalues --   -0.64852  -0.62202  -0.60825  -0.59345  -0.57489
 Alpha  occ. eigenvalues --   -0.55346  -0.55154  -0.53371  -0.52945  -0.52519
 Alpha  occ. eigenvalues --   -0.52264  -0.49795  -0.48878  -0.48869  -0.47719
 Alpha  occ. eigenvalues --   -0.46509  -0.45639  -0.45494  -0.44861  -0.43668
 Alpha  occ. eigenvalues --   -0.37338  -0.36417
 Alpha virt. eigenvalues --    0.04949   0.11116   0.16388   0.20960   0.23012
 Alpha virt. eigenvalues --    0.24351   0.26440   0.26986   0.27282   0.27714
 Alpha virt. eigenvalues --    0.28739   0.30381   0.31515   0.32109   0.32449

 Mulliken charges:
               1
     1  C   -0.298635
     2  C   -0.299668
     3  C   -0.477385
     4  H    0.149164
     5  H    0.148289
     6  H    0.149970
     7  H    0.150699
     8  H    0.163484
     9  H    0.157461
    10  H    0.158519
    11  C   -0.297541
    12  C   -0.304209
    13  C   -0.474868
    14  H    0.148185
    15  H    0.148155
    16  H    0.146796
    17  H    0.161280
    18  H    0.154816
    19  H    0.156431
    20  H    0.149623
    21  C   -0.169315
    22  C   -0.220661
    23  C   -0.172862
    24  C    0.161814
    25  C   -0.170127
    26  C   -0.213169
    27  H    0.226172
    28  H    0.224159
    29  H    0.275982
    30  H    0.275778
    31  H    0.223688
    32  N    0.488572
    33  O   -0.459505
    34  O   -0.461094
 Sum of Mulliken charges =  -0.00000

 Dipole moment (field-independent basis, Debye):
    X=             -0.7286    Y=              5.0323    Z=              0.0796  Tot=              5.0854
 Quadrupole moment (field-independent basis, Debye-Ang):
   XX=            -93.4778   YY=           -102.7384   ZZ=            -88.8444
   XY=            -10.0173   XZ=              0.6278   YZ=              0.1962

 Normal termination of Gaussian 16 at Thu May  6 04:19:13 2021.
