 Gaussian 16, Revision A.03,
 Gaussian 16:  EM64L-G16RevA.03 25-Dec-2016

 -------------
 #p 6-31g* mp2
 -------------

 ------------------------------------------------------
 Input file generated by CHIRIPA (05-May-2021 14:53:16)
 ------------------------------------------------------
 Symbolic Z-matrix:
 Charge =  0 Multiplicity = 1

                         Standard orientation:
 ---------------------------------------------------------------------
 Center     Atomic      Atomic             Coordinates (Angstroms)
 Number     Number       Type             X           Y           Z
 ---------------------------------------------------------------------
      1          6           0       -3.461200   -0.493502   -0.036126
      2          6           0       -4.499766   -1.521245    0.414552
      3          6           0       -4.053187   -2.961924    0.163937
      4          1           0       -3.255670   -0.634313   -1.106115
      5          1           0       -2.515882   -0.682334    0.491236
      6          1           0       -5.443246   -1.329672   -0.112477
      7          1           0       -4.702989   -1.377848    1.483549
      8          1           0       -3.124628   -3.176662    0.702701
      9          1           0       -3.869092   -3.128212   -0.902392
     10          1           0       -4.810488   -3.680074    0.493506
     11          6           0       -3.893198    0.951344    0.207852
     12          6           0       -2.854633    1.979087   -0.242826
     13          6           0       -3.301211    3.419765    0.007789
     14          1           0       -4.838517    1.140176   -0.319510
     15          1           0       -4.098728    1.092154    1.277840
     16          1           0       -2.651410    1.835689   -1.311823
     17          1           0       -1.911152    1.787513    0.284203
     18          1           0       -3.485306    3.586054    1.074118
     19          1           0       -4.229770    3.634503   -0.530976
     20          1           0       -2.543911    4.137915   -0.321780
     21          6           0        5.270784    0.473558    0.368837
     22          6           0        4.284618    1.460138    0.265600
     23          6           0        2.952758    1.110221    0.024241
     24          6           0        2.640984   -0.241916   -0.109223
     25          6           0        3.600868   -1.248081   -0.011518
     26          6           0        4.926369   -0.875025    0.230192
     27          1           0        6.302935    0.754369    0.556468
     28          1           0        4.549193    2.508252    0.372842
     29          1           0        2.169307    1.853517   -0.060227
     30          1           0        3.306547   -2.284600   -0.122974
     31          1           0        5.690142   -1.643363    0.309891
     32          7           0        1.234370   -0.624605   -0.364926
     33          8           0        0.985514   -1.822842   -0.478664
     34          8           0        0.407356    0.280925   -0.446765
 ---------------------------------------------------------------------

 SCF Done:  E(RHF) =  -669.535995283     A.U. after   15 cycles
 E2 =    -0.2091517577D+01 EUMP2 =    -0.67162751286019D+03

 The electronic state is 1-A.
 Alpha  occ. eigenvalues --  -20.60982 -20.60977 -15.86008 -11.31326 -11.27888
 Alpha  occ. eigenvalues --  -11.27884 -11.27623 -11.26893 -11.26883 -11.20335
 Alpha  occ. eigenvalues --  -11.20124 -11.20069 -11.20032 -11.19846 -11.19724
 Alpha  occ. eigenvalues --   -1.60040  -1.39596  -1.19493  -1.08898  -1.07025
 Alpha  occ. eigenvalues --   -1.04888  -1.02251  -0.95741  -0.94726  -0.86289
 Alpha  occ. eigenvalues --   -0.85743  -0.82578  -0.78286  -0.77626  -0.76771
 Alpha  occ. eigenvalues --   -0.72219  -0.71355  -0.70601  -0.65149  -0.64890
 Alpha  occ. eigenvalues --   -0.63669  -0.62235  -0.59663  -0.58093  -0.56320
 Alpha  occ. eigenvalues --   -0.55392  -0.54030  -0.53221  -0.52979  -0.51473
 Alpha  occ. eigenvalues --   -0.51133  -0.49009  -0.48988  -0.48661  -0.46598
 Alpha  occ. eigenvalues --   -0.45337  -0.45015  -0.44340  -0.44142  -0.42472
 Alpha  occ. eigenvalues --   -0.37472  -0.36489
 Alpha virt. eigenvalues --    0.04879   0.11166   0.16366   0.21273   0.24189
 Alpha virt. eigenvalues --    0.25444   0.27201   0.27829   0.28206   0.29024
 Alpha virt. eigenvalues --    0.29277   0.30906   0.32207   0.32656   0.32865

 Mulliken charges:
               1
     1  C   -0.297377
     2  C   -0.299452
     3  C   -0.474244
     4  H    0.151711
     5  H    0.164006
     6  H    0.146641
     7  H    0.146842
     8  H    0.159197
     9  H    0.155676
    10  H    0.153620
    11  C   -0.298719
    12  C   -0.300507
    13  C   -0.475117
    14  H    0.143222
    15  H    0.143528
    16  H    0.152824
    17  H    0.167572
    18  H    0.150654
    19  H    0.151335
    20  H    0.154389
    21  C   -0.170570
    22  C   -0.218533
    23  C   -0.170767
    24  C    0.157489
    25  C   -0.170674
    26  C   -0.218579
    27  H    0.226114
    28  H    0.223978
    29  H    0.275743
    30  H    0.275932
    31  H    0.223927
    32  N    0.492768
    33  O   -0.458958
    34  O   -0.463669
 Sum of Mulliken charges =  -0.00000

 Dipole moment (field-independent basis, Debye):
    X=              5.3898    Y=              1.2304    Z=              0.8452  Tot=              5.5927
 Quadrupole moment (field-independent basis, Debye-Ang):
   XX=            -70.4353   YY=            -92.8692   ZZ=            -95.1006
   XY=              1.4302   XZ=              2.5780   YZ=             -0.3872

 Normal termination of Gaussian 16 at Wed May  5 21:55:39 2021.
