 Gaussian 16, Revision A.03,
 Gaussian 16:  EM64L-G16RevA.03 25-Dec-2016

 -------------
 #p 6-31g* mp2
 -------------

 ------------------------------------------------------
 Input file generated by CHIRIPA (05-May-2021 14:51:11)
 ------------------------------------------------------
 Symbolic Z-matrix:
 Charge =  0 Multiplicity = 1

                         Standard orientation:
 ---------------------------------------------------------------------
 Center     Atomic      Atomic             Coordinates (Angstroms)
 Number     Number       Type             X           Y           Z
 ---------------------------------------------------------------------
      1          6           0        2.454273   -0.479733    0.103069
      2          6           0        1.816002   -1.621008    0.895587
      3          6           0        0.288327   -1.600110    0.835878
      4          1           0        2.083843    0.479235    0.490508
      5          1           0        2.126444   -0.541464   -0.943884
      6          1           0        2.146034   -1.557958    1.940441
      7          1           0        2.188141   -2.577365    0.506343
      8          1           0       -0.057965   -1.686308   -0.199136
      9          1           0       -0.100311   -0.661109    1.243110
     10          1           0       -0.147164   -2.424504    1.409099
     11          6           0        3.981087   -0.487169    0.153185
     12          6           0        4.619358    0.654107   -0.639333
     13          6           0        6.147033    0.633208   -0.579624
     14          1           0        4.308916   -0.425437    1.200139
     15          1           0        4.351517   -1.446137   -0.234253
     16          1           0        4.247219    1.610463   -0.250089
     17          1           0        4.289326    0.591056   -1.684187
     18          1           0        6.535671   -0.305793   -0.986856
     19          1           0        6.493325    0.719406    0.455390
     20          1           0        6.582524    1.457602   -1.152845
     21          6           0       -3.080940    1.189974   -0.384173
     22          6           0       -2.569064    2.139258    0.699721
     23          6           0       -2.300104    3.548884    0.172075
     24          1           0       -2.345803    1.143860   -1.199276
     25          1           0       -4.002656    1.602349   -0.817510
     26          1           0       -1.649342    1.724528    1.131839
     27          1           0       -3.305417    2.182969    1.512425
     28          1           0       -3.214534    3.986446   -0.241396
     29          1           0       -1.549049    3.525400   -0.624144
     30          1           0       -1.934974    4.210900    0.963451
     31          6           0       -3.354420   -0.223072    0.127919
     32          6           0       -3.866297   -1.172357   -0.955974
     33          6           0       -4.135256   -2.581983   -0.428330
     34          1           0       -2.432704   -0.635448    0.561256
     35          1           0       -4.089557   -0.176958    0.943021
     36          1           0       -3.129943   -1.216068   -1.768679
     37          1           0       -4.786018   -0.757626   -1.388094
     38          1           0       -4.886311   -2.558498    0.367889
     39          1           0       -3.220826   -3.019544   -0.014858
     40          1           0       -4.500385   -3.243998   -1.219706
 ---------------------------------------------------------------------

 SCF Done:  E(RHF) =  -470.732921452     A.U. after   11 cycles
 E2 =    -0.1583497228D+01 EUMP2 =    -0.47231641867982D+03

 The electronic state is 1-A.
 Alpha  occ. eigenvalues --  -11.21692 -11.21644 -11.21574 -11.21505 -11.21476
 Alpha  occ. eigenvalues --  -11.21411 -11.21298 -11.21215 -11.21161 -11.21103
 Alpha  occ. eigenvalues --  -11.21047 -11.20988  -1.08504  -1.08334  -1.03611
 Alpha  occ. eigenvalues --   -1.03459  -0.96077  -0.95895  -0.87104  -0.86912
 Alpha  occ. eigenvalues --   -0.79706  -0.79517  -0.78336  -0.78112  -0.65135
 Alpha  occ. eigenvalues --   -0.64978  -0.61032  -0.60841  -0.59435  -0.59265
 Alpha  occ. eigenvalues --   -0.57701  -0.57498  -0.55379  -0.55175  -0.52783
 Alpha  occ. eigenvalues --   -0.52620  -0.52526  -0.52289  -0.50015  -0.49844
 Alpha  occ. eigenvalues --   -0.48044  -0.47841  -0.46735  -0.46551  -0.45999
 Alpha  occ. eigenvalues --   -0.45777  -0.45670  -0.45328  -0.43842  -0.43697
 Alpha virt. eigenvalues --    0.20779   0.22884   0.23479   0.24520   0.25406
 Alpha virt. eigenvalues --    0.26529   0.27303   0.27377   0.27908   0.29496
 Alpha virt. eigenvalues --    0.29892   0.31096   0.31758   0.32181   0.32328

 Mulliken charges:
               1
     1  C   -0.298468
     2  C   -0.300504
     3  C   -0.481103
     4  H    0.149544
     5  H    0.149434
     6  H    0.152474
     7  H    0.152409
     8  H    0.156090
     9  H    0.158242
    10  H    0.161441
    11  C   -0.298348
    12  C   -0.299723
    13  C   -0.475757
    14  H    0.149744
    15  H    0.149852
    16  H    0.152100
    17  H    0.151947
    18  H    0.155245
    19  H    0.155281
    20  H    0.160434
    21  C   -0.297467
    22  C   -0.301941
    23  C   -0.475660
    24  H    0.149263
    25  H    0.149093
    26  H    0.152611
    27  H    0.151982
    28  H    0.155319
    29  H    0.155298
    30  H    0.159801
    31  C   -0.309524
    32  C   -0.298804
    33  C   -0.476565
    34  H    0.165193
    35  H    0.148305
    36  H    0.150838
    37  H    0.151327
    38  H    0.154890
    39  H    0.156089
    40  H    0.159619
 Sum of Mulliken charges =  -0.00000

 Dipole moment (field-independent basis, Debye):
    X=              0.0663    Y=             -0.0222    Z=              0.0236  Tot=              0.0738
 Quadrupole moment (field-independent basis, Debye-Ang):
   XX=            -85.3220   YY=            -85.5579   ZZ=            -84.1047
   XY=             -0.6771   XZ=             -0.1735   YZ=              0.7690

 Normal termination of Gaussian 16 at Wed May  5 18:15:16 2021.
