 Gaussian 16, Revision A.03,
 Gaussian 16:  EM64L-G16RevA.03 25-Dec-2016

 -------------
 #p 6-31g* mp2
 -------------

 ------------------------------------------------------
 Input file generated by CHIRIPA (05-May-2021 14:57:27)
 ------------------------------------------------------
 Symbolic Z-matrix:
 Charge =  0 Multiplicity = 1

                         Standard orientation:
 ---------------------------------------------------------------------
 Center     Atomic      Atomic             Coordinates (Angstroms)
 Number     Number       Type             X           Y           Z
 ---------------------------------------------------------------------
      1          6           0       -2.414803    2.396081    0.650427
      2          6           0       -2.986992    2.142501   -0.600500
      3          6           0       -3.320147    0.838148   -0.977618
      4          6           0       -3.066213   -0.193443   -0.075051
      5          6           0       -2.497285    0.027146    1.178325
      6          6           0       -2.172203    1.339457    1.534289
      7          1           0       -2.159135    3.412425    0.935164
      8          1           0       -3.176528    2.961133   -1.288950
      9          1           0       -3.764139    0.613547   -1.939826
     10          1           0       -2.320261   -0.809518    1.843211
     11          1           0       -1.727941    1.533426    2.506427
     12          7           0       -3.414636   -1.578516   -0.463090
     13          8           0       -3.180859   -2.469947    0.350135
     14          8           0       -3.914909   -1.746478   -1.573114
     15          6           0        5.453811   -0.270472   -0.565323
     16          6           0        4.618423    0.515333   -1.366047
     17          6           0        3.262116    0.653036   -1.056181
     18          6           0        2.772413   -0.012053    0.066823
     19          6           0        3.579316   -0.802101    0.884148
     20          6           0        4.932511   -0.925526    0.555243
     21          1           0        6.506214   -0.371896   -0.813430
     22          1           0        5.020527    1.025208   -2.236901
     23          1           0        2.592962    1.255086   -1.658829
     24          1           0        3.149553   -1.298245    1.745870
     25          1           0        5.578933   -1.536451    1.178904
     26          7           0        1.338199    0.126169    0.404943
     27          8           0        0.931190   -0.470012    1.399704
     28          8           0        0.648227    0.828070   -0.331203
 ---------------------------------------------------------------------

 SCF Done:  E(RHF) =  -868.338250667     A.U. after   16 cycles
 E2 =    -0.2601450391D+01 EUMP2 =    -0.87093970105820D+03

 The electronic state is 1-A.
 Alpha  occ. eigenvalues --  -20.61270 -20.61261 -20.59373 -20.59359 -15.86290
 Alpha  occ. eigenvalues --  -15.84407 -11.31513 -11.29362 -11.28070 -11.28055
 Alpha  occ. eigenvalues --  -11.27777 -11.27048 -11.27032 -11.26032 -11.25835
 Alpha  occ. eigenvalues --  -11.25704 -11.25014 -11.24804  -1.60328  -1.58451
 Alpha  occ. eigenvalues --   -1.39887  -1.38015  -1.19671  -1.17515  -1.09094
 Alpha  occ. eigenvalues --   -1.07029  -1.05051  -1.02891  -0.95954  -0.93929
 Alpha  occ. eigenvalues --   -0.86456  -0.84363  -0.82793  -0.80794  -0.77856
 Alpha  occ. eigenvalues --   -0.75864  -0.72523  -0.71638  -0.70778  -0.70655
 Alpha  occ. eigenvalues --   -0.69758  -0.68753  -0.65327  -0.65056  -0.63233
 Alpha  occ. eigenvalues --   -0.62996  -0.62401  -0.60302  -0.55571  -0.53535
 Alpha  occ. eigenvalues --   -0.53387  -0.53143  -0.51535  -0.51070  -0.49283
 Alpha  occ. eigenvalues --   -0.48887  -0.47415  -0.47373  -0.45328  -0.43511
 Alpha  occ. eigenvalues --   -0.37646  -0.36647  -0.35478  -0.34323
 Alpha virt. eigenvalues --    0.04652   0.06687   0.11010   0.13207   0.16203
 Alpha virt. eigenvalues --    0.18238   0.21165   0.22985   0.27079   0.28042
 Alpha virt. eigenvalues --    0.28885   0.29837   0.30738   0.32252   0.32438

 Mulliken charges:
               1
     1  C   -0.163580
     2  C   -0.216673
     3  C   -0.171111
     4  C    0.156524
     5  C   -0.151713
     6  C   -0.204255
     7  H    0.216479
     8  H    0.214096
     9  H    0.267913
    10  H    0.274078
    11  H    0.218035
    12  N    0.487814
    13  O   -0.463558
    14  O   -0.467777
    15  C   -0.170154
    16  C   -0.218446
    17  C   -0.170698
    18  C    0.158829
    19  C   -0.170271
    20  C   -0.218436
    21  H    0.226854
    22  H    0.224217
    23  H    0.274901
    24  H    0.276068
    25  H    0.224797
    26  N    0.488687
    27  O   -0.464885
    28  O   -0.457733
 Sum of Mulliken charges =  -0.00000

 Dipole moment (field-independent basis, Debye):
    X=              6.7740    Y=              4.3650    Z=              0.3191  Tot=              8.0648
 Quadrupole moment (field-independent basis, Debye-Ang):
   XX=            -86.0265   YY=           -106.1790   ZZ=            -98.8024
   XY=            -17.8125   XZ=             -5.6232   YZ=             -5.1718

 Normal termination of Gaussian 16 at Thu May  6 14:49:51 2021.
