 Gaussian 16, Revision A.03,
 Gaussian 16:  EM64L-G16RevA.03 25-Dec-2016

 -------------
 #p 6-31g* mp2
 -------------

 ------------------------------------------------------
 Input file generated by CHIRIPA (05-May-2021 14:51:08)
 ------------------------------------------------------
 Symbolic Z-matrix:
 Charge =  0 Multiplicity = 1

                         Standard orientation:
 ---------------------------------------------------------------------
 Center     Atomic      Atomic             Coordinates (Angstroms)
 Number     Number       Type             X           Y           Z
 ---------------------------------------------------------------------
      1          6           0       -2.672025   -0.132082   -0.207495
      2          6           0       -3.663674   -0.419001   -1.335455
      3          6           0       -3.824391   -1.913532   -1.615354
      4          1           0       -1.696190   -0.565028   -0.466817
      5          1           0       -3.007985   -0.642999    0.705462
      6          1           0       -3.326681    0.093437   -2.245652
      7          1           0       -4.637212    0.014845   -1.073504
      8          1           0       -4.183291   -2.436208   -0.722828
      9          1           0       -2.865314   -2.357169   -1.901636
     10          1           0       -4.537733   -2.095884   -2.425138
     11          6           0       -2.500587    1.357659    0.084070
     12          6           0       -1.508938    1.644579    1.212030
     13          6           0       -1.348221    3.139109    1.491929
     14          1           0       -2.164628    1.868576   -0.828887
     15          1           0       -3.476422    1.790606    0.343392
     16          1           0       -0.535400    1.210733    0.950079
     17          1           0       -1.845931    1.132140    2.122227
     18          1           0       -2.307298    3.582746    1.778211
     19          1           0       -0.989321    3.661785    0.599403
     20          1           0       -0.634880    3.321461    2.301713
     21          6           0        2.657566   -0.184522   -0.566731
     22          6           0        4.015448    0.509790   -0.676598
     23          6           0        4.142781    1.362852   -1.939082
     24          1           0        2.501933   -0.814008   -1.453563
     25          1           0        1.863307    0.574685   -0.579029
     26          1           0        4.806977   -0.250411   -0.662703
     27          1           0        4.167951    1.137548    0.210690
     28          1           0        3.374032    2.142159   -1.956595
     29          1           0        4.016688    0.746314   -2.834951
     30          1           0        5.121112    1.850010   -1.997447
     31          6           0        2.515046   -1.041055    0.690156
     32          6           0        1.157164   -1.735368    0.800023
     33          6           0        1.029831   -2.588429    2.062506
     34          1           0        3.309306   -1.800261    0.702454
     35          1           0        2.670680   -0.411569    1.576989
     36          1           0        1.004661   -2.363125   -0.087265
     37          1           0        0.365636   -0.975166    0.786128
     38          1           0        1.155924   -1.971891    2.958376
     39          1           0        1.798580   -3.367736    2.080020
     40          1           0        0.051499   -3.075587    2.120872
 ---------------------------------------------------------------------

 SCF Done:  E(RHF) =  -470.732706500     A.U. after   11 cycles
 E2 =    -0.1584165896D+01 EUMP2 =    -0.47231687239671D+03

 The electronic state is 1-A.
 Alpha  occ. eigenvalues --  -11.21663 -11.21632 -11.21595 -11.21533 -11.21439
 Alpha  occ. eigenvalues --  -11.21419 -11.21364 -11.21336 -11.21131 -11.21100
 Alpha  occ. eigenvalues --  -11.21064 -11.21038  -1.08490  -1.08416  -1.03563
 Alpha  occ. eigenvalues --   -1.03528  -0.96007  -0.95980  -0.87020  -0.87002
 Alpha  occ. eigenvalues --   -0.79653  -0.79603  -0.78444  -0.78091  -0.65277
 Alpha  occ. eigenvalues --   -0.64914  -0.61016  -0.60880  -0.59380  -0.59345
 Alpha  occ. eigenvalues --   -0.57661  -0.57553  -0.55313  -0.55251  -0.52718
 Alpha  occ. eigenvalues --   -0.52664  -0.52430  -0.52408  -0.49948  -0.49938
 Alpha  occ. eigenvalues --   -0.48023  -0.47939  -0.46902  -0.46619  -0.46212
 Alpha  occ. eigenvalues --   -0.45771  -0.45747  -0.44950  -0.43808  -0.43777
 Alpha virt. eigenvalues --    0.20454   0.23273   0.23945   0.24214   0.25302
 Alpha virt. eigenvalues --    0.26710   0.26923   0.27749   0.28008   0.29673
 Alpha virt. eigenvalues --    0.30941   0.31519   0.31740   0.31919   0.32102

 Mulliken charges:
               1
     1  C   -0.304164
     2  C   -0.299272
     3  C   -0.475693
     4  H    0.156436
     5  H    0.149014
     6  H    0.151899
     7  H    0.151800
     8  H    0.155051
     9  H    0.155387
    10  H    0.160191
    11  C   -0.297914
    12  C   -0.307366
    13  C   -0.475135
    14  H    0.149244
    15  H    0.149833
    16  H    0.157905
    17  H    0.152206
    18  H    0.155658
    19  H    0.155060
    20  H    0.160096
    21  C   -0.301095
    22  C   -0.299502
    23  C   -0.475741
    24  H    0.149617
    25  H    0.150144
    26  H    0.152261
    27  H    0.152180
    28  H    0.155027
    29  H    0.155145
    30  H    0.160462
    31  C   -0.297282
    32  C   -0.311808
    33  C   -0.474951
    34  H    0.149640
    35  H    0.149481
    36  H    0.150770
    37  H    0.165086
    38  H    0.154982
    39  H    0.154842
    40  H    0.160504
 Sum of Mulliken charges =  -0.00000

 Dipole moment (field-independent basis, Debye):
    X=             -0.0087    Y=              0.0040    Z=              0.0043  Tot=              0.0105
 Quadrupole moment (field-independent basis, Debye-Ang):
   XX=            -84.1985   YY=            -85.6993   ZZ=            -84.9114
   XY=             -0.6388   XZ=             -0.6004   YZ=              0.6323

 Normal termination of Gaussian 16 at Thu May  6 02:06:05 2021.
