 Gaussian 16, Revision A.03,
 Gaussian 16:  EM64L-G16RevA.03 25-Dec-2016

 -------------
 #p 6-31g* mp2
 -------------

 ------------------------------------------------------
 Input file generated by CHIRIPA (05-May-2021 14:51:08)
 ------------------------------------------------------
 Symbolic Z-matrix:
 Charge =  0 Multiplicity = 1

                         Standard orientation:
 ---------------------------------------------------------------------
 Center     Atomic      Atomic             Coordinates (Angstroms)
 Number     Number       Type             X           Y           Z
 ---------------------------------------------------------------------
      1          6           0       -3.318013    1.125376   -0.086212
      2          6           0       -2.291175    2.221427    0.200602
      3          6           0       -2.929139    3.601548    0.362037
      4          1           0       -3.874472    1.382584   -0.997883
      5          1           0       -4.052267    1.097639    0.730792
      6          1           0       -1.558281    2.246163   -0.616019
      7          1           0       -1.736966    1.961485    1.111589
      8          1           0       -3.646354    3.600048    1.189202
      9          1           0       -3.466654    3.886344   -0.548222
     10          1           0       -2.177129    4.370025    0.566447
     11          6           0       -2.695535   -0.260042   -0.250121
     12          6           0       -3.722373   -1.356092   -0.536935
     13          6           0       -3.084409   -2.736214   -0.698370
     14          1           0       -1.961281   -0.232305   -1.067126
     15          1           0       -2.139076   -0.517249    0.661549
     16          1           0       -4.276583   -1.096151   -1.447923
     17          1           0       -4.455267   -1.380829    0.279686
     18          1           0       -2.546895   -3.021010    0.211889
     19          1           0       -2.367195   -2.734714   -1.525536
     20          1           0       -3.836420   -3.504690   -0.902781
     21          6           0        3.576038    0.049171    0.333098
     22          6           0        4.442201    0.401218   -0.876783
     23          6           0        5.576784    1.366033   -0.530885
     24          1           0        3.157819    0.972106    0.757629
     25          1           0        4.210583   -0.394098    1.113010
     26          1           0        3.805979    0.842420   -1.654715
     27          1           0        4.858253   -0.522681   -1.298598
     28          1           0        6.235141    0.930389    0.227653
     29          1           0        5.176889    2.303246   -0.130488
     30          1           0        6.183348    1.604206   -1.410210
     31          6           0        2.437509   -0.914504    0.003236
     32          6           0        1.571348   -1.266552    1.213116
     33          6           0        0.436765   -2.231368    0.867219
     34          1           0        1.802965   -0.471236   -0.776676
     35          1           0        2.855729   -1.837441   -0.421295
     36          1           0        1.155296   -0.342654    1.634931
     37          1           0        2.207569   -1.707754    1.991049
     38          1           0        0.836659   -3.168580    0.466821
     39          1           0       -0.221593   -1.795723    0.108681
     40          1           0       -0.169801   -2.469540    1.746544
 ---------------------------------------------------------------------

 SCF Done:  E(RHF) =  -470.731857518     A.U. after   11 cycles
 E2 =    -0.1584209704D+01 EUMP2 =    -0.47231606722233D+03

 The electronic state is 1-A.
 Alpha  occ. eigenvalues --  -11.21652 -11.21594 -11.21583 -11.21534 -11.21418
 Alpha  occ. eigenvalues --  -11.21370 -11.21353 -11.21310 -11.21108 -11.21057
 Alpha  occ. eigenvalues --  -11.20987 -11.20885  -1.08471  -1.08377  -1.03573
 Alpha  occ. eigenvalues --   -1.03453  -0.95988  -0.95932  -0.87008  -0.86958
 Alpha  occ. eigenvalues --   -0.79730  -0.79459  -0.78333  -0.78144  -0.65118
 Alpha  occ. eigenvalues --   -0.64993  -0.60986  -0.60864  -0.59381  -0.59295
 Alpha  occ. eigenvalues --   -0.57624  -0.57525  -0.55301  -0.55208  -0.52705
 Alpha  occ. eigenvalues --   -0.52657  -0.52415  -0.52327  -0.49976  -0.49896
 Alpha  occ. eigenvalues --   -0.48062  -0.47727  -0.46716  -0.46586  -0.45900
 Alpha  occ. eigenvalues --   -0.45745  -0.45687  -0.45312  -0.43798  -0.43721
 Alpha virt. eigenvalues --    0.21419   0.23238   0.23581   0.24452   0.25298
 Alpha virt. eigenvalues --    0.26383   0.27004   0.27931   0.28293   0.29498
 Alpha virt. eigenvalues --    0.29606   0.31503   0.31597   0.31854   0.32190

 Mulliken charges:
               1
     1  C   -0.297288
     2  C   -0.299807
     3  C   -0.475678
     4  H    0.149619
     5  H    0.149660
     6  H    0.151322
     7  H    0.151620
     8  H    0.155390
     9  H    0.155375
    10  H    0.160219
    11  C   -0.304797
    12  C   -0.298438
    13  C   -0.479899
    14  H    0.148032
    15  H    0.156591
    16  H    0.151552
    17  H    0.151666
    18  H    0.161464
    19  H    0.154707
    20  H    0.159715
    21  C   -0.298282
    22  C   -0.299582
    23  C   -0.475680
    24  H    0.149727
    25  H    0.149459
    26  H    0.151720
    27  H    0.151877
    28  H    0.155166
    29  H    0.155154
    30  H    0.160145
    31  C   -0.298309
    32  C   -0.300617
    33  C   -0.482800
    34  H    0.149338
    35  H    0.149550
    36  H    0.151424
    37  H    0.151375
    38  H    0.154341
    39  H    0.168222
    40  H    0.156746
 Sum of Mulliken charges =  -0.00000

 Dipole moment (field-independent basis, Debye):
    X=             -0.0398    Y=             -0.0054    Z=             -0.0033  Tot=              0.0403
 Quadrupole moment (field-independent basis, Debye-Ang):
   XX=            -85.3373   YY=            -85.7734   ZZ=            -83.8282
   XY=             -0.6966   XZ=             -0.1033   YZ=             -0.5210

 Normal termination of Gaussian 16 at Thu May  6 08:25:28 2021.
