 Gaussian 16, Revision A.03,
 Gaussian 16:  EM64L-G16RevA.03 25-Dec-2016

 -------------
 #p 6-31g* mp2
 -------------

 ------------------------------------------------------
 Input file generated by CHIRIPA (05-May-2021 14:57:23)
 ------------------------------------------------------
 Symbolic Z-matrix:
 Charge =  0 Multiplicity = 1

                         Standard orientation:
 ---------------------------------------------------------------------
 Center     Atomic      Atomic             Coordinates (Angstroms)
 Number     Number       Type             X           Y           Z
 ---------------------------------------------------------------------
      1          6           0        2.116854    1.446778   -0.309181
      2          6           0        3.232210    1.890776    0.408710
      3          6           0        4.371194    1.087629    0.519251
      4          6           0        4.360451   -0.159534   -0.103452
      5          6           0        3.264804   -0.629955   -0.825636
      6          6           0        2.136676    0.190045   -0.922981
      7          1           0        1.236281    2.077227   -0.389927
      8          1           0        3.219637    2.866314    0.886427
      9          1           0        5.248438    1.406604    1.068902
     10          1           0        3.307054   -1.607245   -1.290974
     11          1           0        1.271920   -0.157365   -1.481146
     12          7           0        5.560496   -1.018710    0.006587
     13          8           0        5.525944   -2.113389   -0.551196
     14          8           0        6.512920   -0.581186    0.648536
     15          6           0       -2.078653    1.414293    0.391714
     16          6           0       -2.332551    0.357965    1.272752
     17          6           0       -3.484061   -0.422367    1.132551
     18          6           0       -4.364145   -0.117064    0.095473
     19          6           0       -4.139065    0.928736   -0.798356
     20          6           0       -2.981128    1.695812   -0.639210
     21          1           0       -1.181636    2.015325    0.507984
     22          1           0       -1.633441    0.137039    2.074301
     23          1           0       -3.705226   -1.246004    1.800477
     24          1           0       -4.854563    1.124778   -1.587690
     25          1           0       -2.786527    2.515555   -1.324917
     26          7           0       -5.586598   -0.936149   -0.062979
     27          8           0       -6.346258   -0.646755   -0.984827
     28          8           0       -5.761950   -1.852032    0.737675
 ---------------------------------------------------------------------

 SCF Done:  E(RHF) =  -868.336642219     A.U. after   16 cycles
 E2 =    -0.2599820862D+01 EUMP2 =    -0.87093646308053D+03

 The electronic state is 1-A.
 Alpha  occ. eigenvalues --  -20.61324 -20.61318 -20.61282 -20.61276 -15.86381
 Alpha  occ. eigenvalues --  -15.86338 -11.31913 -11.31859 -11.28483 -11.28455
 Alpha  occ. eigenvalues --  -11.28422 -11.28402 -11.28376 -11.28324 -11.27603
 Alpha  occ. eigenvalues --  -11.27550 -11.27535 -11.27497  -1.60395  -1.60353
 Alpha  occ. eigenvalues --   -1.39944  -1.39902  -1.20106  -1.20049  -1.09505
 Alpha  occ. eigenvalues --   -1.09439  -1.05517  -1.05458  -0.96321  -0.96233
 Alpha  occ. eigenvalues --   -0.86920  -0.86862  -0.83138  -0.83044  -0.78110
 Alpha  occ. eigenvalues --   -0.78059  -0.72596  -0.72554  -0.71720  -0.71678
 Alpha  occ. eigenvalues --   -0.71527  -0.71006  -0.65763  -0.65708  -0.65530
 Alpha  occ. eigenvalues --   -0.65452  -0.62844  -0.62786  -0.56430  -0.55753
 Alpha  occ. eigenvalues --   -0.53869  -0.53785  -0.53609  -0.53549  -0.49370
 Alpha  occ. eigenvalues --   -0.49341  -0.49325  -0.49299  -0.45311  -0.45272
 Alpha  occ. eigenvalues --   -0.38203  -0.38034  -0.37115  -0.37046
 Alpha virt. eigenvalues --    0.04343   0.04473   0.10487   0.10628   0.15627
 Alpha virt. eigenvalues --    0.15894   0.18509   0.21753   0.25007   0.26622
 Alpha virt. eigenvalues --    0.26679   0.29213   0.29801   0.31841   0.31904

 Mulliken charges:
               1
     1  C   -0.175710
     2  C   -0.218491
     3  C   -0.170607
     4  C    0.159626
     5  C   -0.170651
     6  C   -0.219053
     7  H    0.217591
     8  H    0.223648
     9  H    0.277575
    10  H    0.278387
    11  H    0.226755
    12  N    0.487826
    13  O   -0.458173
    14  O   -0.458812
    15  C   -0.176741
    16  C   -0.218541
    17  C   -0.170587
    18  C    0.159575
    19  C   -0.170536
    20  C   -0.219424
    21  H    0.219152
    22  H    0.226895
    23  H    0.278501
    24  H    0.277752
    25  H    0.222905
    26  N    0.487832
    27  O   -0.458688
    28  O   -0.458004
 Sum of Mulliken charges =  -0.00000

 Dipole moment (field-independent basis, Debye):
    X=              0.0622    Y=              5.7128    Z=              0.1856  Tot=              5.7161
 Quadrupole moment (field-independent basis, Debye-Ang):
   XX=           -177.4209   YY=           -103.5026   ZZ=           -100.7563
   XY=              1.7870   XZ=             -0.6814   YZ=             -0.3268

 Normal termination of Gaussian 16 at Fri May  7 09:31:03 2021.
