 Gaussian 16, Revision A.03,
 Gaussian 16:  EM64L-G16RevA.03 25-Dec-2016

 -------------
 #p 6-31g* mp2
 -------------

 ------------------------------------------------------
 Input file generated by CHIRIPA (05-May-2021 14:53:15)
 ------------------------------------------------------
 Symbolic Z-matrix:
 Charge =  0 Multiplicity = 1

                         Standard orientation:
 ---------------------------------------------------------------------
 Center     Atomic      Atomic             Coordinates (Angstroms)
 Number     Number       Type             X           Y           Z
 ---------------------------------------------------------------------
      1          6           0       -4.920668   -0.048510   -0.251630
      2          6           0       -6.183187    0.506369    0.408781
      3          6           0       -7.412695    0.414033   -0.495419
      4          1           0       -4.732542    0.498334   -1.185715
      5          1           0       -5.092604   -1.096851   -0.532369
      6          1           0       -6.008447    1.552940    0.689439
      7          1           0       -6.368222   -0.041732    1.341499
      8          1           0       -7.614972   -0.627493   -0.765435
      9          1           0       -7.253153    0.976240   -1.421200
     10          1           0       -8.303869    0.816210   -0.003563
     11          6           0       -3.683095    0.036833    0.639917
     12          6           0       -2.420577   -0.518046   -0.020493
     13          6           0       -1.191068   -0.425710    0.883706
     14          1           0       -3.511160    1.085174    0.920657
     15          1           0       -3.871221   -0.510011    1.574002
     16          1           0       -2.235542    0.030055   -0.953212
     17          1           0       -2.595317   -1.564617   -0.301152
     18          1           0       -1.350611   -0.987917    1.809487
     19          1           0       -0.988792    0.615816    1.153723
     20          1           0       -0.299895   -0.827887    0.391850
     21          6           0        3.982988    2.444412    0.009531
     22          6           0        2.882788    2.051915   -0.759901
     23          6           0        2.528876    0.702848   -0.856404
     24          6           0        3.300699   -0.231315   -0.167259
     25          6           0        4.402447    0.128388    0.607373
     26          6           0        4.737975    1.483091    0.689514
     27          1           0        4.250775    3.494590    0.078919
     28          1           0        2.294641    2.796305   -1.289063
     29          1           0        1.682071    0.371325   -1.444989
     30          1           0        4.969629   -0.636683    1.123504
     31          1           0        5.592922    1.785010    1.287807
     32          7           0        2.935759   -1.662495   -0.261820
     33          8           0        3.631871   -2.466054    0.354911
     34          8           0        1.960517   -1.953595   -0.950879
 ---------------------------------------------------------------------

 SCF Done:  E(RHF) =  -669.536353183     A.U. after   15 cycles
 E2 =    -0.2091397400D+01 EUMP2 =    -0.67162775058280D+03

 The electronic state is 1-A.
 Alpha  occ. eigenvalues --  -20.60944 -20.60936 -15.85952 -11.31242 -11.27808
 Alpha  occ. eigenvalues --  -11.27803 -11.27546 -11.26812 -11.26802 -11.21461
 Alpha  occ. eigenvalues --  -11.21245 -11.21193 -11.21111 -11.20954 -11.20556
 Alpha  occ. eigenvalues --   -1.59990  -1.39550  -1.19413  -1.08824  -1.08193
 Alpha  occ. eigenvalues --   -1.04806  -1.03263  -0.95725  -0.95656  -0.86732
 Alpha  occ. eigenvalues --   -0.86208  -0.82507  -0.79335  -0.78005  -0.77564
 Alpha  occ. eigenvalues --   -0.72181  -0.71297  -0.70527  -0.65072  -0.64838
 Alpha  occ. eigenvalues --   -0.64808  -0.62162  -0.60670  -0.59068  -0.57304
 Alpha  occ. eigenvalues --   -0.55319  -0.55013  -0.53138  -0.52908  -0.52379
 Alpha  occ. eigenvalues --   -0.52132  -0.49670  -0.48946  -0.48933  -0.47645
 Alpha  occ. eigenvalues --   -0.46382  -0.45549  -0.45478  -0.44960  -0.43460
 Alpha  occ. eigenvalues --   -0.37389  -0.36398
 Alpha virt. eigenvalues --    0.04939   0.11205   0.16410   0.21198   0.23052
 Alpha virt. eigenvalues --    0.24355   0.26799   0.27131   0.27652   0.27893
 Alpha virt. eigenvalues --    0.28826   0.30539   0.31640   0.31760   0.32110

 Mulliken charges:
               1
     1  C   -0.297959
     2  C   -0.299347
     3  C   -0.475543
     4  H    0.147984
     5  H    0.150942
     6  H    0.150465
     7  H    0.152226
     8  H    0.155822
     9  H    0.154399
    10  H    0.159589
    11  C   -0.297756
    12  C   -0.297536
    13  C   -0.487637
    14  H    0.146269
    15  H    0.150212
    16  H    0.146193
    17  H    0.157259
    18  H    0.156032
    19  H    0.146903
    20  H    0.175428
    21  C   -0.170466
    22  C   -0.218952
    23  C   -0.169897
    24  C    0.158872
    25  C   -0.170671
    26  C   -0.218597
    27  H    0.225796
    28  H    0.223658
    29  H    0.276310
    30  H    0.275651
    31  H    0.223630
    32  N    0.488332
    33  O   -0.458060
    34  O   -0.459552
 Sum of Mulliken charges =  -0.00000

 Dipole moment (field-independent basis, Debye):
    X=              1.4502    Y=              4.9412    Z=              0.3164  Tot=              5.1593
 Quadrupole moment (field-independent basis, Debye-Ang):
   XX=            -84.6537   YY=            -96.3908   ZZ=            -93.8822
   XY=             15.9397   XZ=              3.0602   YZ=             -2.1557

 Normal termination of Gaussian 16 at Wed May  5 21:55:26 2021.
