 Gaussian 16, Revision A.03,
 Gaussian 16:  EM64L-G16RevA.03 25-Dec-2016

 -------------
 #p 6-31g* mp2
 -------------

 ------------------------------------------------------
 Input file generated by CHIRIPA (05-May-2021 14:57:22)
 ------------------------------------------------------
 Symbolic Z-matrix:
 Charge =  0 Multiplicity = 1

                         Standard orientation:
 ---------------------------------------------------------------------
 Center     Atomic      Atomic             Coordinates (Angstroms)
 Number     Number       Type             X           Y           Z
 ---------------------------------------------------------------------
      1          6           0       -1.459468    2.770257   -0.170516
      2          6           0       -1.197573    2.110817    1.034918
      3          6           0       -1.691986    0.822914    1.261659
      4          6           0       -2.448080    0.221456    0.256741
      5          6           0       -2.726125    0.852487   -0.954779
      6          6           0       -2.221565    2.140099   -1.159773
      7          1           0       -1.071455    3.770618   -0.338207
      8          1           0       -0.606015    2.597766    1.804972
      9          1           0       -1.504334    0.289468    2.185585
     10          1           0       -3.318940    0.341358   -1.703603
     11          1           0       -2.426539    2.649826   -2.096901
     12          7           0       -2.976864   -1.141834    0.485270
     13          8           0       -3.640350   -1.650011   -0.415941
     14          8           0       -2.717827   -1.676391    1.561274
     15          6           0        0.839007   -2.367564   -0.817251
     16          6           0        2.038816   -2.609508   -0.140167
     17          6           0        2.889796   -1.552558    0.196337
     18          6           0        2.508064   -0.260388   -0.161247
     19          6           0        1.319250    0.012844   -0.836047
     20          6           0        0.483680   -1.059466   -1.162422
     21          1           0        0.183931   -3.194595   -1.074722
     22          1           0        2.317330   -3.624367    0.129161
     23          1           0        3.824458   -1.711471    0.720333
     24          1           0        1.068618    1.035343   -1.091193
     25          1           0       -0.447499   -0.868593   -1.688273
     26          7           0        3.400802    0.866690    0.189633
     27          8           0        3.041696    1.995944   -0.136657
     28          8           0        4.442731    0.599498    0.784300
 ---------------------------------------------------------------------

 SCF Done:  E(RHF) =  -868.338131715     A.U. after   16 cycles
 E2 =    -0.2604460396D+01 EUMP2 =    -0.87094259211109D+03

 The electronic state is 1-A.
 Alpha  occ. eigenvalues --  -20.61552 -20.61518 -20.60972 -20.60934 -15.86567
 Alpha  occ. eigenvalues --  -15.86000 -11.31824 -11.31108 -11.28439 -11.28298
 Alpha  occ. eigenvalues --  -11.28038 -11.27658 -11.27637 -11.27457 -11.27275
 Alpha  occ. eigenvalues --  -11.27262 -11.26573 -11.26523  -1.60615  -1.60036
 Alpha  occ. eigenvalues --   -1.40167  -1.39597  -1.20043  -1.19258  -1.09417
 Alpha  occ. eigenvalues --   -1.08686  -1.05397  -1.04631  -0.96257  -0.95563
 Alpha  occ. eigenvalues --   -0.86771  -0.86040  -0.83076  -0.82414  -0.78153
 Alpha  occ. eigenvalues --   -0.77521  -0.72784  -0.72229  -0.71965  -0.71361
 Alpha  occ. eigenvalues --   -0.71048  -0.70319  -0.65642  -0.65331  -0.64904
 Alpha  occ. eigenvalues --   -0.64639  -0.62712  -0.62044  -0.55811  -0.55136
 Alpha  occ. eigenvalues --   -0.53929  -0.53429  -0.52784  -0.52643  -0.49559
 Alpha  occ. eigenvalues --   -0.49536  -0.48992  -0.48951  -0.45585  -0.45060
 Alpha  occ. eigenvalues --   -0.38131  -0.37310  -0.36986  -0.35922
 Alpha virt. eigenvalues --    0.04267   0.05030   0.10487   0.11434   0.15821
 Alpha virt. eigenvalues --    0.16620   0.20958   0.21774   0.26803   0.27447
 Alpha virt. eigenvalues --    0.27825   0.28642   0.30632   0.31323   0.32095

 Mulliken charges:
               1
     1  C   -0.175436
     2  C   -0.216945
     3  C   -0.167350
     4  C    0.160749
     5  C   -0.185874
     6  C   -0.221015
     7  H    0.234728
     8  H    0.233448
     9  H    0.278400
    10  H    0.275112
    11  H    0.226937
    12  N    0.487358
    13  O   -0.464469
    14  O   -0.456637
    15  C   -0.169220
    16  C   -0.218352
    17  C   -0.171622
    18  C    0.154711
    19  C   -0.170737
    20  C   -0.226424
    21  H    0.233956
    22  H    0.225013
    23  H    0.274578
    24  H    0.272306
    25  H    0.225473
    26  N    0.488169
    27  O   -0.467179
    28  O   -0.459678
 Sum of Mulliken charges =  -0.00000

 Dipole moment (field-independent basis, Debye):
    X=             -1.4056    Y=              0.8919    Z=             -1.8319  Tot=              2.4753
 Quadrupole moment (field-independent basis, Debye-Ang):
   XX=           -128.5300   YY=            -98.5579   ZZ=           -100.5243
   XY=            -23.4736   XZ=              3.4050   YZ=              0.6121

 Normal termination of Gaussian 16 at Fri May  7 06:24:19 2021.
