 Gaussian 16, Revision A.03,
 Gaussian 16:  EM64L-G16RevA.03 25-Dec-2016

 -------------
 #p 6-31g* mp2
 -------------

 ------------------------------------------------------
 Input file generated by CHIRIPA (05-May-2021 14:51:12)
 ------------------------------------------------------
 Symbolic Z-matrix:
 Charge =  0 Multiplicity = 1

                         Standard orientation:
 ---------------------------------------------------------------------
 Center     Atomic      Atomic             Coordinates (Angstroms)
 Number     Number       Type             X           Y           Z
 ---------------------------------------------------------------------
      1          6           0       -4.164336   -0.195438   -0.377954
      2          6           0       -5.543812   -0.589674    0.150825
      3          6           0       -6.053527   -1.901228   -0.447348
      4          1           0       -4.209351   -0.108013   -1.472155
      5          1           0       -3.450861   -1.001615   -0.157891
      6          1           0       -6.254174    0.217608   -0.068945
      7          1           0       -5.495555   -0.675984    1.243911
      8          1           0       -5.367245   -2.722373   -0.216398
      9          1           0       -6.130174   -1.823704   -1.536713
     10          1           0       -7.041101   -2.164104   -0.055616
     11          6           0       -3.641266    1.113578    0.210774
     12          6           0       -2.261789    1.507814   -0.318005
     13          6           0       -1.752074    2.819368    0.280168
     14          1           0       -4.354740    1.919755   -0.009289
     15          1           0       -3.596251    1.026153    1.304975
     16          1           0       -2.310047    1.594124   -1.411092
     17          1           0       -1.551428    0.700532   -0.098236
     18          1           0       -1.675427    2.741844    1.369533
     19          1           0       -2.438357    3.640513    0.049218
     20          1           0       -0.764501    3.082244   -0.111564
     21          6           0        3.366468   -0.975997    0.252603
     22          6           0        1.958104   -0.385592    0.329533
     23          6           0        0.896121   -1.432053    0.668509
     24          1           0        3.381901   -1.774008   -0.502304
     25          1           0        3.610847   -1.449860    1.213400
     26          1           0        1.716987    0.088226   -0.630662
     27          1           0        1.946069    0.411237    1.084210
     28          1           0        1.109328   -1.897876    1.636058
     29          1           0        0.878944   -2.222722   -0.088557
     30          1           0       -0.103141   -0.988381    0.718426
     31          6           0        4.439134    0.057857   -0.085424
     32          6           0        5.847497   -0.532549   -0.162353
     33          6           0        6.909481    0.513913   -0.501329
     34          1           0        4.194755    0.531720   -1.046218
     35          1           0        4.423700    0.855868    0.669483
     36          1           0        5.859533   -1.329377   -0.917029
     37          1           0        6.088615   -1.006366    0.797843
     38          1           0        6.926657    1.304582    0.255737
     39          1           0        6.696274    0.979737   -1.468878
     40          1           0        7.908741    0.070241   -0.551246
 ---------------------------------------------------------------------

 SCF Done:  E(RHF) =  -470.733350649     A.U. after   11 cycles
 E2 =    -0.1582622405D+01 EUMP2 =    -0.47231597305447D+03

 The electronic state is 1-A.
 Alpha  occ. eigenvalues --  -11.21624 -11.21610 -11.21591 -11.21580 -11.21420
 Alpha  occ. eigenvalues --  -11.21397 -11.21360 -11.21338 -11.21107 -11.21077
 Alpha  occ. eigenvalues --  -11.21057 -11.21055  -1.08449  -1.08419  -1.03561
 Alpha  occ. eigenvalues --   -1.03506  -0.96006  -0.95961  -0.87028  -0.86973
 Alpha  occ. eigenvalues --   -0.79620  -0.79573  -0.78259  -0.78233  -0.65079
 Alpha  occ. eigenvalues --   -0.65062  -0.60966  -0.60934  -0.59455  -0.59248
 Alpha  occ. eigenvalues --   -0.57668  -0.57514  -0.55283  -0.55251  -0.52746
 Alpha  occ. eigenvalues --   -0.52639  -0.52453  -0.52367  -0.49937  -0.49904
 Alpha  occ. eigenvalues --   -0.48006  -0.47831  -0.46643  -0.46593  -0.45800
 Alpha  occ. eigenvalues --   -0.45771  -0.45722  -0.45687  -0.43796  -0.43753
 Alpha virt. eigenvalues --    0.20857   0.23030   0.23661   0.24932   0.25982
 Alpha virt. eigenvalues --    0.26619   0.27132   0.27206   0.28140   0.28849
 Alpha virt. eigenvalues --    0.30888   0.31281   0.31516   0.31731   0.32353

 Mulliken charges:
               1
     1  C   -0.298867
     2  C   -0.299624
     3  C   -0.475748
     4  H    0.149686
     5  H    0.149739
     6  H    0.151923
     7  H    0.151984
     8  H    0.155399
     9  H    0.155113
    10  H    0.160205
    11  C   -0.297762
    12  C   -0.308760
    13  C   -0.475221
    14  H    0.149607
    15  H    0.149417
    16  H    0.151956
    17  H    0.160255
    18  H    0.154861
    19  H    0.155089
    20  H    0.160727
    21  C   -0.298333
    22  C   -0.299800
    23  C   -0.482034
    24  H    0.149753
    25  H    0.149583
    26  H    0.152634
    27  H    0.152258
    28  H    0.155375
    29  H    0.155591
    30  H    0.164804
    31  C   -0.298328
    32  C   -0.299679
    33  C   -0.475726
    34  H    0.149578
    35  H    0.149734
    36  H    0.151970
    37  H    0.151937
    38  H    0.155215
    39  H    0.155207
    40  H    0.160284
 Sum of Mulliken charges =  -0.00000

 Dipole moment (field-independent basis, Debye):
    X=              0.0151    Y=             -0.0018    Z=             -0.0033  Tot=              0.0156
 Quadrupole moment (field-independent basis, Debye-Ang):
   XX=            -85.6248   YY=            -85.7825   ZZ=            -83.3543
   XY=             -1.2192   XZ=              0.5167   YZ=             -0.3774

 Normal termination of Gaussian 16 at Wed May  5 21:33:10 2021.
