 Gaussian 16, Revision A.03,
 Gaussian 16:  EM64L-G16RevA.03 25-Dec-2016

 -------------
 #p 6-31g* mp2
 -------------

 ------------------------------------------------------
 Input file generated by CHIRIPA (05-May-2021 14:57:25)
 ------------------------------------------------------
 Symbolic Z-matrix:
 Charge =  0 Multiplicity = 1

                         Standard orientation:
 ---------------------------------------------------------------------
 Center     Atomic      Atomic             Coordinates (Angstroms)
 Number     Number       Type             X           Y           Z
 ---------------------------------------------------------------------
      1          6           0       -6.197636    1.417281   -0.077931
      2          6           0       -6.368460    0.046869   -0.299989
      3          6           0       -5.264011   -0.809501   -0.337001
      4          6           0       -3.997380   -0.259134   -0.147176
      5          6           0       -3.794697    1.101874    0.076132
      6          6           0       -4.913563    1.939489    0.109091
      7          1           0       -7.061198    2.075246   -0.050754
      8          1           0       -7.364511   -0.361467   -0.445555
      9          1           0       -5.367592   -1.874283   -0.507086
     10          1           0       -2.789385    1.479610    0.217839
     11          1           0       -4.777894    3.003366    0.281734
     12          7           0       -2.820518   -1.155808   -0.184214
     13          8           0       -1.715083   -0.646186   -0.014107
     14          8           0       -3.025812   -2.351264   -0.382650
     15          6           0        1.916763   -0.119202    1.208341
     16          6           0        2.721890   -1.248299    1.025492
     17          6           0        3.983924   -1.132374    0.435256
     18          6           0        4.411239    0.133641    0.037892
     19          6           0        3.632334    1.277392    0.206506
     20          6           0        2.373749    1.137823    0.798986
     21          1           0        0.937724   -0.218439    1.667722
     22          1           0        2.369577   -2.225780    1.342433
     23          1           0        4.627753   -1.989890    0.281733
     24          1           0        4.010817    2.238530   -0.119656
     25          1           0        1.750629    2.016433    0.939735
     26          7           0        5.745473    0.268880   -0.588151
     27          8           0        6.098905    1.395439   -0.929601
     28          8           0        6.412548   -0.754237   -0.725540
 ---------------------------------------------------------------------

 SCF Done:  E(RHF) =  -868.339371963     A.U. after   16 cycles
 E2 =    -0.2598311011D+01 EUMP2 =    -0.87093768297400D+03

 The electronic state is 1-A.
 Alpha  occ. eigenvalues --  -20.61708 -20.61650 -20.60085 -20.60077 -15.86723
 Alpha  occ. eigenvalues --  -15.85134 -11.31902 -11.30304 -11.28480 -11.28420
 Alpha  occ. eigenvalues --  -11.28133 -11.27424 -11.27390 -11.26918 -11.26859
 Alpha  occ. eigenvalues --  -11.26434 -11.25844 -11.25734  -1.60747  -1.59165
 Alpha  occ. eigenvalues --   -1.40309  -1.38724  -1.20052  -1.18457  -1.09476
 Alpha  occ. eigenvalues --   -1.07849  -1.05429  -1.03851  -0.96346  -0.94721
 Alpha  occ. eigenvalues --   -0.86834  -0.85239  -0.83190  -0.81580  -0.78262
 Alpha  occ. eigenvalues --   -0.76685  -0.72960  -0.72055  -0.71357  -0.71156
 Alpha  occ. eigenvalues --   -0.70487  -0.69470  -0.65707  -0.65426  -0.64100
 Alpha  occ. eigenvalues --   -0.63850  -0.62784  -0.61223  -0.55923  -0.54226
 Alpha  occ. eigenvalues --   -0.53762  -0.53518  -0.52163  -0.51941  -0.49717
 Alpha  occ. eigenvalues --   -0.49677  -0.48122  -0.48095  -0.45753  -0.44175
 Alpha  occ. eigenvalues --   -0.38011  -0.37023  -0.36345  -0.35469
 Alpha virt. eigenvalues --    0.04254   0.05874   0.10635   0.12208   0.15778
 Alpha virt. eigenvalues --    0.17430   0.20748   0.22396   0.26679   0.27526
 Alpha virt. eigenvalues --    0.28200   0.29333   0.30502   0.31788   0.32149

 Mulliken charges:
               1
     1  C   -0.170002
     2  C   -0.218296
     3  C   -0.170371
     4  C    0.158304
     5  C   -0.170361
     6  C   -0.218118
     7  H    0.227999
     8  H    0.225806
     9  H    0.276916
    10  H    0.271029
    11  H    0.224627
    12  N    0.490664
    13  O   -0.470460
    14  O   -0.456394
    15  C   -0.163274
    16  C   -0.218715
    17  C   -0.171638
    18  C    0.156995
    19  C   -0.171889
    20  C   -0.219751
    21  H    0.236936
    22  H    0.225663
    23  H    0.273333
    24  H    0.271549
    25  H    0.217084
    26  N    0.488351
    27  O   -0.463699
    28  O   -0.462289
 Sum of Mulliken charges =  -0.00000

 Dipole moment (field-independent basis, Debye):
    X=             -9.3880    Y=              2.5527    Z=              2.3666  Tot=             10.0126
 Quadrupole moment (field-independent basis, Debye-Ang):
   XX=           -112.3863   YY=            -98.8402   ZZ=           -106.1886
   XY=            -12.9515   XZ=             10.5548   YZ=             -0.0309

 Normal termination of Gaussian 16 at Thu May  6 13:05:23 2021.
