 Gaussian 16, Revision A.03,
 Gaussian 16:  EM64L-G16RevA.03 25-Dec-2016

 -------------
 #p 6-31g* mp2
 -------------

 ------------------------------------------------------
 Input file generated by CHIRIPA (05-May-2021 14:53:11)
 ------------------------------------------------------
 Symbolic Z-matrix:
 Charge =  0 Multiplicity = 1

                         Standard orientation:
 ---------------------------------------------------------------------
 Center     Atomic      Atomic             Coordinates (Angstroms)
 Number     Number       Type             X           Y           Z
 ---------------------------------------------------------------------
      1          6           0       -3.075944   -0.489658    0.013382
      2          6           0       -4.493725   -1.060620   -0.030008
      3          6           0       -4.564992   -2.504588    0.467661
      4          1           0       -2.414223   -1.121632   -0.594630
      5          1           0       -2.698309   -0.542350    1.043921
      6          1           0       -4.869092   -1.005594   -1.059904
      7          1           0       -5.152187   -0.427104    0.578023
      8          1           0       -4.215906   -2.572876    1.503072
      9          1           0       -3.931203   -3.154653   -0.144162
     10          1           0       -5.587503   -2.892870    0.428069
     11          6           0       -2.988484    0.953117   -0.481067
     12          6           0       -1.570702    1.524080   -0.437677
     13          6           0       -1.499435    2.968047   -0.935346
     14          1           0       -3.366118    1.005809   -1.511606
     15          1           0       -3.650205    1.585092    0.126945
     16          1           0       -0.912241    0.890564   -1.045708
     17          1           0       -1.195335    1.469054    0.592220
     18          1           0       -2.133224    3.618113   -0.323523
     19          1           0       -1.848522    3.036336   -1.970757
     20          1           0       -0.476924    3.356329   -0.895753
     21          6           0        3.104002   -2.319686   -0.936131
     22          6           0        2.667203   -2.339076    0.392534
     23          6           0        2.257595   -1.160155    1.022546
     24          6           0        2.297851    0.025718    0.290853
     25          6           0        2.727927    0.077456   -1.034156
     26          6           0        3.132919   -1.113609   -1.643988
     27          1           0        3.420403   -3.240217   -1.417701
     28          1           0        2.643687   -3.274273    0.944710
     29          1           0        1.914922   -1.146560    2.050072
     30          1           0        2.740214    1.025079   -1.558826
     31          1           0        3.471671   -1.095551   -2.675960
     32          7           0        1.866662    1.280216    0.947136
     33          8           0        1.911545    2.311994    0.280760
     34          8           0        1.491976    1.207960    2.115480
 ---------------------------------------------------------------------

 SCF Done:  E(RHF) =  -669.536545285     A.U. after   15 cycles
 E2 =    -0.2092829466D+01 EUMP2 =    -0.67162937475005D+03

 The electronic state is 1-A.
 Alpha  occ. eigenvalues --  -20.60965 -20.60957 -15.85966 -11.31273 -11.27833
 Alpha  occ. eigenvalues --  -11.27824 -11.27566 -11.26838 -11.26827 -11.21347
 Alpha  occ. eigenvalues --  -11.21017 -11.20940 -11.20838 -11.20777 -11.19935
 Alpha  occ. eigenvalues --   -1.60003  -1.39564  -1.19436  -1.08844  -1.07943
 Alpha  occ. eigenvalues --   -1.04831  -1.02974  -0.95697  -0.95408  -0.86436
 Alpha  occ. eigenvalues --   -0.86231  -0.82532  -0.79091  -0.77765  -0.77586
 Alpha  occ. eigenvalues --   -0.72208  -0.71299  -0.70548  -0.65096  -0.64837
 Alpha  occ. eigenvalues --   -0.64578  -0.62179  -0.60381  -0.58804  -0.56985
 Alpha  occ. eigenvalues --   -0.55338  -0.54724  -0.53161  -0.52924  -0.52064
 Alpha  occ. eigenvalues --   -0.51844  -0.49391  -0.48969  -0.48949  -0.47388
 Alpha  occ. eigenvalues --   -0.46144  -0.45294  -0.45266  -0.44837  -0.43207
 Alpha  occ. eigenvalues --   -0.37400  -0.36427
 Alpha virt. eigenvalues --    0.04904   0.11194   0.16358   0.21325   0.23319
 Alpha virt. eigenvalues --    0.24903   0.27041   0.27285   0.27657   0.28229
 Alpha virt. eigenvalues --    0.28732   0.30857   0.31753   0.32144   0.32258

 Mulliken charges:
               1
     1  C   -0.298309
     2  C   -0.299054
     3  C   -0.475260
     4  H    0.145690
     5  H    0.150883
     6  H    0.150844
     7  H    0.152839
     8  H    0.154795
     9  H    0.152475
    10  H    0.159462
    11  C   -0.297035
    12  C   -0.306564
    13  C   -0.481976
    14  H    0.146561
    15  H    0.150570
    16  H    0.142248
    17  H    0.163155
    18  H    0.153498
    19  H    0.146197
    20  H    0.181701
    21  C   -0.170626
    22  C   -0.218525
    23  C   -0.170505
    24  C    0.159954
    25  C   -0.171262
    26  C   -0.218756
    27  H    0.225915
    28  H    0.223863
    29  H    0.275731
    30  H    0.275803
    31  H    0.223743
    32  N    0.490623
    33  O   -0.459325
    34  O   -0.459353
 Sum of Mulliken charges =  -0.00000

 Dipole moment (field-independent basis, Debye):
    X=              1.7380    Y=             -4.3260    Z=             -2.1970  Tot=              5.1538
 Quadrupole moment (field-independent basis, Debye-Ang):
   XX=            -88.8129   YY=            -94.9463   ZZ=            -92.0921
   XY=            -10.0687   XZ=             -6.2768   YZ=             -2.9355

 Normal termination of Gaussian 16 at Thu May  6 04:06:34 2021.
