 Gaussian 16, Revision A.03,
 Gaussian 16:  EM64L-G16RevA.03 25-Dec-2016

 -------------
 #p 6-31g* mp2
 -------------

 ------------------------------------------------------
 Input file generated by CHIRIPA (05-May-2021 14:57:25)
 ------------------------------------------------------
 Symbolic Z-matrix:
 Charge =  0 Multiplicity = 1

                         Standard orientation:
 ---------------------------------------------------------------------
 Center     Atomic      Atomic             Coordinates (Angstroms)
 Number     Number       Type             X           Y           Z
 ---------------------------------------------------------------------
      1          6           0        2.488965    2.689684    0.479822
      2          6           0        2.017585    2.359333   -0.795008
      3          6           0        1.912761    1.021967   -1.188723
      4          6           0        2.289747    0.036006   -0.278199
      5          6           0        2.763067    0.333248    0.998870
      6          6           0        2.859548    1.677372    1.371121
      7          1           0        2.567154    3.731207    0.777332
      8          1           0        1.729067    3.143415   -1.489283
      9          1           0        1.551074    0.738077   -2.169543
     10          1           0        3.043108   -0.470419    1.669030
     11          1           0        3.225967    1.930977    2.361810
     12          7           0        2.183191   -1.383381   -0.683646
     13          8           0        2.521706   -2.233392    0.137039
     14          8           0        1.763174   -1.619008   -1.814444
     15          6           0       -0.973294   -2.234410    1.064123
     16          6           0       -1.309832   -2.152155   -0.291052
     17          6           0       -2.048657   -1.068256   -0.774630
     18          6           0       -2.436277   -0.080020    0.128936
     19          6           0       -2.116463   -0.133554    1.484718
     20          6           0       -1.376972   -1.226625    1.946128
     21          1           0       -0.399099   -3.079972    1.431168
     22          1           0       -0.997679   -2.933349   -0.978322
     23          1           0       -2.322858   -0.979499   -1.818830
     24          1           0       -2.441836    0.660624    2.145651
     25          1           0       -1.117045   -1.287877    2.999090
     26          7           0       -3.218790    1.072310   -0.371271
     27          8           0       -3.548292    1.929908    0.445179
     28          8           0       -3.487804    1.096089   -1.570314
 ---------------------------------------------------------------------

 SCF Done:  E(RHF) =  -868.340856704     A.U. after   16 cycles
 E2 =    -0.2601755439D+01 EUMP2 =    -0.87094261214291D+03

 The electronic state is 1-A.
 Alpha  occ. eigenvalues --  -20.61480 -20.61458 -20.60607 -20.60599 -15.86456
 Alpha  occ. eigenvalues --  -15.85649 -11.31509 -11.30792 -11.28082 -11.28007
 Alpha  occ. eigenvalues --  -11.27712 -11.27367 -11.27253 -11.27019 -11.26936
 Alpha  occ. eigenvalues --  -11.26869 -11.26328 -11.26074  -1.60514  -1.59688
 Alpha  occ. eigenvalues --   -1.40085  -1.39247  -1.19648  -1.18927  -1.09100
 Alpha  occ. eigenvalues --   -1.08336  -1.05011  -1.04275  -0.95997  -0.95209
 Alpha  occ. eigenvalues --   -0.86422  -0.85665  -0.82853  -0.82039  -0.77936
 Alpha  occ. eigenvalues --   -0.77144  -0.72728  -0.71891  -0.71809  -0.71012
 Alpha  occ. eigenvalues --   -0.70760  -0.69928  -0.65312  -0.65013  -0.64543
 Alpha  occ. eigenvalues --   -0.64217  -0.62369  -0.61609  -0.55518  -0.54679
 Alpha  occ. eigenvalues --   -0.53375  -0.53101  -0.52607  -0.52321  -0.49495
 Alpha  occ. eigenvalues --   -0.49450  -0.48639  -0.48602  -0.45575  -0.44703
 Alpha  occ. eigenvalues --   -0.37594  -0.36934  -0.36550  -0.35841
 Alpha virt. eigenvalues --    0.04568   0.05363   0.11056   0.11760   0.16121
 Alpha virt. eigenvalues --    0.16939   0.21196   0.22165   0.27117   0.27930
 Alpha virt. eigenvalues --    0.28158   0.29005   0.30808   0.31735   0.32297

 Mulliken charges:
               1
     1  C   -0.169303
     2  C   -0.217995
     3  C   -0.170203
     4  C    0.161155
     5  C   -0.171305
     6  C   -0.219224
     7  H    0.228329
     8  H    0.228278
     9  H    0.276250
    10  H    0.271786
    11  H    0.223180
    12  N    0.490619
    13  O   -0.466904
    14  O   -0.462022
    15  C   -0.174949
    16  C   -0.219642
    17  C   -0.174412
    18  C    0.156642
    19  C   -0.172706
    20  C   -0.220761
    21  H    0.236121
    22  H    0.238468
    23  H    0.275182
    24  H    0.271508
    25  H    0.220050
    26  N    0.487832
    27  O   -0.463763
    28  O   -0.462214
 Sum of Mulliken charges =  -0.00000

 Dipole moment (field-independent basis, Debye):
    X=              3.3048    Y=              0.8737    Z=              3.0520  Tot=              4.5825
 Quadrupole moment (field-independent basis, Debye-Ang):
   XX=           -118.1660   YY=           -102.9309   ZZ=            -97.2140
   XY=             21.3377   XZ=              1.0146   YZ=             -1.4099

 Normal termination of Gaussian 16 at Thu May  6 11:25:28 2021.
