 Gaussian 16, Revision A.03,
 Gaussian 16:  EM64L-G16RevA.03 25-Dec-2016

 -------------
 #p 6-31g* mp2
 -------------

 ------------------------------------------------------
 Input file generated by CHIRIPA (05-May-2021 14:57:25)
 ------------------------------------------------------
 Symbolic Z-matrix:
 Charge =  0 Multiplicity = 1

                         Standard orientation:
 ---------------------------------------------------------------------
 Center     Atomic      Atomic             Coordinates (Angstroms)
 Number     Number       Type             X           Y           Z
 ---------------------------------------------------------------------
      1          6           0        3.060840   -2.047361    0.071684
      2          6           0        3.102591   -1.292723   -1.105304
      3          6           0        2.798494    0.071704   -1.085066
      4          6           0        2.455129    0.651783    0.135139
      5          6           0        2.404659   -0.073326    1.324659
      6          6           0        2.712621   -1.436331    1.280777
      7          1           0        3.298571   -3.106728    0.046779
      8          1           0        3.372692   -1.764602   -2.045741
      9          1           0        2.822988    0.679527   -1.981375
     10          1           0        2.131926    0.425042    2.246974
     11          1           0        2.679376   -2.019918    2.196401
     12          7           0        2.131149    2.095488    0.169079
     13          8           0        1.831585    2.582919    1.256879
     14          8           0        2.182912    2.712297   -0.892761
     15          6           0       -4.657482    0.852931    0.248859
     16          6           0       -4.099731    0.095617    1.284190
     17          6           0       -2.909407   -0.610305    1.085822
     18          6           0       -2.300771   -0.536310   -0.166128
     19          6           0       -2.831738    0.209461   -1.217407
     20          6           0       -4.022825    0.907340   -0.996440
     21          1           0       -5.582451    1.398184    0.411735
     22          1           0       -4.590423    0.051532    2.252345
     23          1           0       -2.455789   -1.204321    1.869910
     24          1           0       -2.319504    0.234125   -2.171571
     25          1           0       -4.453694    1.494670   -1.802318
     26          7           0       -1.040225   -1.279380   -0.388094
     27          8           0       -0.523509   -1.197910   -1.500300
     28          8           0       -0.592794   -1.929198    0.554339
 ---------------------------------------------------------------------

 SCF Done:  E(RHF) =  -868.338481150     A.U. after   16 cycles
 E2 =    -0.2601894877D+01 EUMP2 =    -0.87094037602716D+03

 The electronic state is 1-A.
 Alpha  occ. eigenvalues --  -20.60990 -20.60985 -20.59875 -20.59867 -15.86017
 Alpha  occ. eigenvalues --  -15.84910 -11.31190 -11.29811 -11.27761 -11.27721
 Alpha  occ. eigenvalues --  -11.27444 -11.26722 -11.26690 -11.26345 -11.26313
 Alpha  occ. eigenvalues --  -11.25959 -11.25257 -11.25230  -1.60050  -1.58962
 Alpha  occ. eigenvalues --   -1.39615  -1.38527  -1.19342  -1.17918  -1.08776
 Alpha  occ. eigenvalues --   -1.07407  -1.04720  -1.03268  -0.95647  -0.94333
 Alpha  occ. eigenvalues --   -0.86131  -0.84721  -0.82495  -0.81202  -0.77562
 Alpha  occ. eigenvalues --   -0.76304  -0.72270  -0.71385  -0.71148  -0.70460
 Alpha  occ. eigenvalues --   -0.70271  -0.69090  -0.65006  -0.64730  -0.63603
 Alpha  occ. eigenvalues --   -0.63337  -0.62079  -0.60689  -0.55241  -0.53830
 Alpha  occ. eigenvalues --   -0.53064  -0.52818  -0.51683  -0.51426  -0.49021
 Alpha  occ. eigenvalues --   -0.48812  -0.47919  -0.47858  -0.45117  -0.44031
 Alpha  occ. eigenvalues --   -0.37304  -0.36306  -0.35808  -0.34679
 Alpha virt. eigenvalues --    0.04892   0.06273   0.11350   0.12860   0.16476
 Alpha virt. eigenvalues --    0.17897   0.21476   0.22738   0.27385   0.28342
 Alpha virt. eigenvalues --    0.28610   0.29575   0.31033   0.32248   0.32533

 Mulliken charges:
               1
     1  C   -0.161504
     2  C   -0.206815
     3  C   -0.162263
     4  C    0.150958
     5  C   -0.173443
     6  C   -0.200850
     7  H    0.221432
     8  H    0.219069
     9  H    0.269814
    10  H    0.267753
    11  H    0.217900
    12  N    0.487597
    13  O   -0.466842
    14  O   -0.464829
    15  C   -0.169471
    16  C   -0.217698
    17  C   -0.169905
    18  C    0.158503
    19  C   -0.168866
    20  C   -0.217441
    21  H    0.226512
    22  H    0.223430
    23  H    0.272638
    24  H    0.275778
    25  H    0.224833
    26  N    0.488442
    27  O   -0.461353
    28  O   -0.463377
 Sum of Mulliken charges =  -0.00000

 Dipole moment (field-independent basis, Debye):
    X=             -3.5095    Y=             -2.7363    Z=              0.5431  Tot=              4.4832
 Quadrupole moment (field-independent basis, Debye-Ang):
   XX=            -80.0477   YY=           -115.3124   ZZ=            -96.0507
   XY=            -16.5191   XZ=             -2.5186   YZ=             -3.8808

 Normal termination of Gaussian 16 at Wed May  5 22:47:16 2021.
