 Gaussian 16, Revision A.03,
 Gaussian 16:  EM64L-G16RevA.03 25-Dec-2016

 -------------
 #p 6-31g* mp2
 -------------

 ------------------------------------------------------
 Input file generated by CHIRIPA (05-May-2021 14:53:17)
 ------------------------------------------------------
 Symbolic Z-matrix:
 Charge =  0 Multiplicity = 1

                         Standard orientation:
 ---------------------------------------------------------------------
 Center     Atomic      Atomic             Coordinates (Angstroms)
 Number     Number       Type             X           Y           Z
 ---------------------------------------------------------------------
      1          6           0        4.021428   -1.051080    0.321338
      2          6           0        2.547304   -0.836893    0.666397
      3          6           0        1.836980   -2.133529    1.056229
      4          1           0        4.097340   -1.774296   -0.502154
      5          1           0        4.530462   -1.504265    1.183257
      6          1           0        2.041503   -0.382973   -0.195425
      7          1           0        2.474884   -0.113958    1.489036
      8          1           0        2.315434   -2.587128    1.930260
      9          1           0        1.879590   -2.857672    0.236227
     10          1           0        0.784397   -1.957348    1.298902
     11          6           0        4.745121    0.235984   -0.070404
     12          6           0        6.219246    0.021798   -0.415463
     13          6           0        6.929570    1.318434   -0.805294
     14          1           0        4.236088    0.689169   -0.932322
     15          1           0        4.669210    0.959201    0.753089
     16          1           0        6.291666   -0.701138   -1.238102
     17          1           0        6.725047   -0.432122    0.446360
     18          1           0        6.886959    2.042577    0.014707
     19          1           0        6.451116    1.772033   -1.679326
     20          1           0        7.982153    1.142253   -1.047968
     21          6           0       -1.298783    1.616738    0.304273
     22          6           0       -1.247813    0.366980   -0.321847
     23          6           0       -2.419256   -0.361226   -0.549851
     24          6           0       -3.629934    0.192878   -0.136914
     25          6           0       -3.713369    1.435498    0.489363
     26          6           0       -2.529229    2.146076    0.707170
     27          1           0       -0.383846    2.175580    0.477432
     28          1           0       -0.293642   -0.046581   -0.635808
     29          1           0       -2.408609   -1.330993   -1.032406
     30          1           0       -4.679392    1.821723    0.791105
     31          1           0       -2.571833    3.116419    1.193651
     32          7           0       -4.876808   -0.568710   -0.372894
     33          8           0       -5.930873   -0.058565    0.000386
     34          8           0       -4.776435   -1.661367   -0.926665
 ---------------------------------------------------------------------

 SCF Done:  E(RHF) =  -669.535597032     A.U. after   15 cycles
 E2 =    -0.2091409694D+01 EUMP2 =    -0.67162700672600D+03

 The electronic state is 1-A.
 Alpha  occ. eigenvalues --  -20.60733 -20.60728 -15.85786 -11.31147 -11.27723
 Alpha  occ. eigenvalues --  -11.27711 -11.27449 -11.26732 -11.26685 -11.22688
 Alpha  occ. eigenvalues --  -11.22205 -11.22185 -11.22100 -11.21905 -11.21590
 Alpha  occ. eigenvalues --   -1.59809  -1.39363  -1.19320  -1.09222  -1.08712
 Alpha  occ. eigenvalues --   -1.04726  -1.04299  -0.96713  -0.95549  -0.87726
 Alpha  occ. eigenvalues --   -0.86121  -0.82382  -0.80394  -0.79031  -0.77430
 Alpha  occ. eigenvalues --   -0.72005  -0.71132  -0.70422  -0.65880  -0.64969
 Alpha  occ. eigenvalues --   -0.64738  -0.62157  -0.61633  -0.60075  -0.58326
 Alpha  occ. eigenvalues --   -0.55988  -0.55210  -0.53423  -0.53170  -0.53006
 Alpha  occ. eigenvalues --   -0.52789  -0.50650  -0.48785  -0.48760  -0.48670
 Alpha  occ. eigenvalues --   -0.47425  -0.46559  -0.46474  -0.44769  -0.44543
 Alpha  occ. eigenvalues --   -0.37296  -0.36322
 Alpha virt. eigenvalues --    0.05097   0.11274   0.16545   0.19774   0.22478
 Alpha virt. eigenvalues --    0.23792   0.25357   0.26222   0.26893   0.28300
 Alpha virt. eigenvalues --    0.28684   0.30055   0.31078   0.31121   0.31642

 Mulliken charges:
               1
     1  C   -0.297689
     2  C   -0.303715
     3  C   -0.480025
     4  H    0.152051
     5  H    0.153208
     6  H    0.141572
     7  H    0.152738
     8  H    0.160745
     9  H    0.157138
    10  H    0.162234
    11  C   -0.298823
    12  C   -0.300211
    13  C   -0.476138
    14  H    0.147696
    15  H    0.149193
    16  H    0.153414
    17  H    0.153555
    18  H    0.155265
    19  H    0.155195
    20  H    0.162434
    21  C   -0.173283
    22  C   -0.224075
    23  C   -0.173148
    24  C    0.158888
    25  C   -0.171106
    26  C   -0.218648
    27  H    0.226263
    28  H    0.233545
    29  H    0.276071
    30  H    0.275469
    31  H    0.223236
    32  N    0.488007
    33  O   -0.460619
    34  O   -0.460441
 Sum of Mulliken charges =  -0.00000

 Dipole moment (field-independent basis, Debye):
    X=              4.5951    Y=              2.6242    Z=              0.8859  Tot=              5.3652
 Quadrupole moment (field-independent basis, Debye-Ang):
   XX=           -125.3123   YY=            -91.8458   ZZ=            -93.8510
   XY=            -11.9189   XZ=             -4.3893   YZ=              1.9608

 Normal termination of Gaussian 16 at Wed May  5 20:23:28 2021.
