 Gaussian 16, Revision A.03,
 Gaussian 16:  EM64L-G16RevA.03 25-Dec-2016

 -------------
 #p 6-31g* mp2
 -------------

 ------------------------------------------------------
 Input file generated by CHIRIPA (05-May-2021 14:53:14)
 ------------------------------------------------------
 Symbolic Z-matrix:
 Charge =  0 Multiplicity = 1

                         Standard orientation:
 ---------------------------------------------------------------------
 Center     Atomic      Atomic             Coordinates (Angstroms)
 Number     Number       Type             X           Y           Z
 ---------------------------------------------------------------------
      1          6           0        3.952405   -0.445164   -0.453062
      2          6           0        2.774660   -0.768980    0.466743
      3          6           0        1.581595   -1.358882   -0.285858
      4          1           0        3.621173    0.259491   -1.228105
      5          1           0        4.263339   -1.360629   -0.975211
      6          1           0        2.466931    0.146535    0.988039
      7          1           0        3.108783   -1.472798    1.239801
      8          1           0        1.866262   -2.286700   -0.792533
      9          1           0        1.220763   -0.658165   -1.045725
     10          1           0        0.751026   -1.582895    0.390775
     11          6           0        5.152741    0.145309    0.284680
     12          6           0        6.330487    0.469126   -0.635126
     13          6           0        7.523551    1.059027    0.117476
     14          1           0        4.841808    1.060774    0.806828
     15          1           0        5.483974   -0.559346    1.059722
     16          1           0        5.996364    1.172944   -1.408183
     17          1           0        6.638216   -0.446390   -1.156422
     18          1           0        7.884384    0.358310    0.877342
     19          1           0        7.238885    1.986845    0.624150
     20          1           0        8.354121    1.283041   -0.559157
     21          6           0       -3.118263   -2.364983    0.178968
     22          6           0       -2.264785   -1.472701    0.836183
     23          6           0       -2.498053   -0.095381    0.780287
     24          6           0       -3.599084    0.357092    0.054832
     25          6           0       -4.467612   -0.506710   -0.610598
     26          6           0       -4.215019   -1.879994   -0.541056
     27          1           0       -2.929549   -3.433350    0.227689
     28          1           0       -1.412262   -1.846507    1.396109
     29          1           0       -1.853365    0.617628    1.279702
     30          1           0       -5.309354   -0.104131   -1.160887
     31          1           0       -4.879523   -2.570620   -1.052440
     32          7           0       -3.856263    1.813062   -0.011566
     33          8           0       -4.833109    2.186406   -0.657341
     34          8           0       -3.076126    2.553340    0.583424
 ---------------------------------------------------------------------

 SCF Done:  E(RHF) =  -669.535187878     A.U. after   15 cycles
 E2 =    -0.2091154180D+01 EUMP2 =    -0.67162634205788D+03

 The electronic state is 1-A.
 Alpha  occ. eigenvalues --  -20.60758 -20.60753 -15.85812 -11.31173 -11.27745
 Alpha  occ. eigenvalues --  -11.27741 -11.27485 -11.26759 -11.26746 -11.22062
 Alpha  occ. eigenvalues --  -11.21762 -11.21699 -11.21679 -11.21588 -11.21188
 Alpha  occ. eigenvalues --   -1.59833  -1.39387  -1.19349  -1.08747  -1.08723
 Alpha  occ. eigenvalues --   -1.04756  -1.03857  -0.96314  -0.95578  -0.87337
 Alpha  occ. eigenvalues --   -0.86150  -0.82414  -0.79922  -0.78517  -0.77463
 Alpha  occ. eigenvalues --   -0.72030  -0.71156  -0.70453  -0.65349  -0.65002
 Alpha  occ. eigenvalues --   -0.64793  -0.62148  -0.61243  -0.59699  -0.57924
 Alpha  occ. eigenvalues --   -0.55582  -0.55255  -0.53313  -0.53001  -0.52808
 Alpha  occ. eigenvalues --   -0.52559  -0.50235  -0.48789  -0.48785  -0.48235
 Alpha  occ. eigenvalues --   -0.46941  -0.46065  -0.45971  -0.44794  -0.44110
 Alpha  occ. eigenvalues --   -0.37322  -0.36328
 Alpha virt. eigenvalues --    0.05071   0.11245   0.16487   0.20483   0.22715
 Alpha virt. eigenvalues --    0.23964   0.26180   0.26388   0.27253   0.28226
 Alpha virt. eigenvalues --    0.28627   0.29953   0.31116   0.31727   0.32202

 Mulliken charges:
               1
     1  C   -0.298929
     2  C   -0.300057
     3  C   -0.476943
     4  H    0.152111
     5  H    0.149489
     6  H    0.153024
     7  H    0.150871
     8  H    0.155815
     9  H    0.160930
    10  H    0.149497
    11  C   -0.298728
    12  C   -0.300004
    13  C   -0.475949
    14  H    0.151077
    15  H    0.149212
    16  H    0.153189
    17  H    0.151680
    18  H    0.154915
    19  H    0.156144
    20  H    0.160963
    21  C   -0.171508
    22  C   -0.216336
    23  C   -0.170802
    24  C    0.158187
    25  C   -0.170819
    26  C   -0.218626
    27  H    0.225799
    28  H    0.224175
    29  H    0.275615
    30  H    0.275558
    31  H    0.223401
    32  N    0.488122
    33  O   -0.460495
    34  O   -0.460578
 Sum of Mulliken charges =  -0.00000

 Dipole moment (field-independent basis, Debye):
    X=              0.9842    Y=             -5.1036    Z=              0.1783  Tot=              5.2007
 Quadrupole moment (field-independent basis, Debye-Ang):
   XX=            -98.6581   YY=            -98.2677   ZZ=            -93.8768
   XY=             19.1645   XZ=              1.4896   YZ=              0.0901

 Normal termination of Gaussian 16 at Thu May  6 10:30:43 2021.
