 Gaussian 16, Revision A.03,
 Gaussian 16:  EM64L-G16RevA.03 25-Dec-2016

 -------------
 #p 6-31g* mp2
 -------------

 ------------------------------------------------------
 Input file generated by CHIRIPA (05-May-2021 14:57:23)
 ------------------------------------------------------
 Symbolic Z-matrix:
 Charge =  0 Multiplicity = 1

                         Standard orientation:
 ---------------------------------------------------------------------
 Center     Atomic      Atomic             Coordinates (Angstroms)
 Number     Number       Type             X           Y           Z
 ---------------------------------------------------------------------
      1          6           0        5.024379    1.857252   -0.081384
      2          6           0        3.709521    2.134787   -0.469510
      3          6           0        2.740525    1.127026   -0.466235
      4          6           0        3.122841   -0.152783   -0.067221
      5          6           0        4.424659   -0.460628    0.324945
      6          6           0        5.377130    0.562712    0.313908
      7          1           0        5.770700    2.646156   -0.086943
      8          1           0        3.432716    3.139221   -0.776977
      9          1           0        1.715362    1.314241   -0.761886
     10          1           0        4.670514   -1.471616    0.626400
     11          1           0        6.397507    0.344277    0.615837
     12          7           0        2.105756   -1.227902   -0.059645
     13          8           0        2.467971   -2.347210    0.296146
     14          8           0        0.965608   -0.930914   -0.409641
     15          6           0       -2.162083   -2.275849   -0.085447
     16          6           0       -2.803456   -1.736282   -1.205282
     17          6           0       -3.431931   -0.489637   -1.131519
     18          6           0       -3.399558    0.193251    0.083349
     19          6           0       -2.768796   -0.317809    1.216595
     20          6           0       -2.146828   -1.566140    1.119793
     21          1           0       -1.676396   -3.244927   -0.151697
     22          1           0       -2.816892   -2.285211   -2.142588
     23          1           0       -3.935743   -0.048520   -1.982994
     24          1           0       -2.772138    0.252986    2.137247
     25          1           0       -1.649493   -1.982722    1.991093
     26          7           0       -4.061452    1.513912    0.173635
     27          8           0       -4.018801    2.095617    1.255503
     28          8           0       -4.610363    1.942335   -0.839178
 ---------------------------------------------------------------------

 SCF Done:  E(RHF) =  -868.339097196     A.U. after   16 cycles
 E2 =    -0.2599470573D+01 EUMP2 =    -0.87093856776840D+03

 The electronic state is 1-A.
 Alpha  occ. eigenvalues --  -20.61410 -20.61376 -20.59979 -20.59974 -15.86411
 Alpha  occ. eigenvalues --  -15.85023 -11.31564 -11.30014 -11.28122 -11.28082
 Alpha  occ. eigenvalues --  -11.27807 -11.27084 -11.27045 -11.26606 -11.26571
 Alpha  occ. eigenvalues --  -11.26138 -11.25469 -11.25413  -1.60477  -1.59067
 Alpha  occ. eigenvalues --   -1.40029  -1.38630  -1.19719  -1.18146  -1.09158
 Alpha  occ. eigenvalues --   -1.07575  -1.05084  -1.03526  -0.96028  -0.94487
 Alpha  occ. eigenvalues --   -0.86492  -0.84932  -0.82860  -0.81363  -0.77935
 Alpha  occ. eigenvalues --   -0.76480  -0.72653  -0.71784  -0.71254  -0.70820
 Alpha  occ. eigenvalues --   -0.70390  -0.69229  -0.65371  -0.65082  -0.63807
 Alpha  occ. eigenvalues --   -0.63544  -0.62430  -0.60923  -0.55596  -0.53960
 Alpha  occ. eigenvalues --   -0.53432  -0.53170  -0.51848  -0.51640  -0.49424
 Alpha  occ. eigenvalues --   -0.49371  -0.48026  -0.47973  -0.45479  -0.44122
 Alpha  occ. eigenvalues --   -0.37692  -0.36679  -0.35935  -0.35105
 Alpha virt. eigenvalues --    0.04567   0.06079   0.10978   0.12569   0.16126
 Alpha virt. eigenvalues --    0.17708   0.21165   0.22640   0.27091   0.28040
 Alpha virt. eigenvalues --    0.28431   0.29564   0.30747   0.32219   0.32255

 Mulliken charges:
               1
     1  C   -0.170068
     2  C   -0.218590
     3  C   -0.170953
     4  C    0.157009
     5  C   -0.171062
     6  C   -0.218653
     7  H    0.227383
     8  H    0.226557
     9  H    0.277874
    10  H    0.274828
    11  H    0.224302
    12  N    0.488563
    13  O   -0.465094
    14  O   -0.460778
    15  C   -0.148764
    16  C   -0.219057
    17  C   -0.172746
    18  C    0.155780
    19  C   -0.173962
    20  C   -0.210219
    21  H    0.229242
    22  H    0.219332
    23  H    0.270161
    24  H    0.269670
    25  H    0.221402
    26  N    0.487939
    27  O   -0.465202
    28  O   -0.464894
 Sum of Mulliken charges =  -0.00000

 Dipole moment (field-independent basis, Debye):
    X=              6.3320    Y=             -1.0361    Z=             -0.3770  Tot=              6.4273
 Quadrupole moment (field-independent basis, Debye-Ang):
   XX=            -97.7811   YY=           -106.3503   ZZ=           -100.8436
   XY=             26.3856   XZ=              3.7348   YZ=             -1.6273

 Normal termination of Gaussian 16 at Wed May  5 22:40:58 2021.
