 Gaussian 16, Revision A.03,
 Gaussian 16:  EM64L-G16RevA.03 25-Dec-2016

 -------------
 #p 6-31g* mp2
 -------------

 ------------------------------------------------------
 Input file generated by CHIRIPA (05-May-2021 14:55:23)
 ------------------------------------------------------
 Symbolic Z-matrix:
 Charge =  0 Multiplicity = 1

                         Standard orientation:
 ---------------------------------------------------------------------
 Center     Atomic      Atomic             Coordinates (Angstroms)
 Number     Number       Type             X           Y           Z
 ---------------------------------------------------------------------
      1          6           0        5.291999   -1.060760    0.545301
      2          6           0        5.245224    0.145706   -0.160938
      3          6           0        4.023961    0.662124   -0.604083
      4          6           0        2.863676   -0.057320   -0.322249
      5          6           0        2.877622   -1.261983    0.379094
      6          6           0        4.110133   -1.759521    0.812592
      7          1           0        6.245074   -1.454592    0.885800
      8          1           0        6.161482    0.690524   -0.369956
      9          1           0        3.958932    1.593807   -1.152860
     10          1           0        1.947450   -1.782426    0.572323
     11          1           0        4.143439   -2.696722    1.360854
     12          7           0        1.564826    0.479395   -0.786280
     13          8           0        0.556797   -0.173565   -0.525210
     14          8           0        1.579410    1.542870   -1.402272
     15          6           0       -4.464727    0.038222   -0.219795
     16          6           0       -5.372893   -1.140156    0.133257
     17          6           0       -6.418404   -1.424671   -0.945516
     18          1           0       -5.081491    0.933179   -0.379790
     19          1           0       -3.961151   -0.169050   -1.174178
     20          1           0       -5.873551   -0.931328    1.087379
     21          1           0       -4.753879   -2.032368    0.292618
     22          1           0       -5.934166   -1.658541   -1.899151
     23          1           0       -7.060200   -0.551246   -1.099874
     24          1           0       -7.056776   -2.270783   -0.672685
     25          6           0       -3.414293    0.334967    0.848970
     26          6           0       -2.506127    1.513345    0.495916
     27          6           0       -1.460616    1.797860    1.574690
     28          1           0       -3.917868    0.542239    1.803351
     29          1           0       -2.797529   -0.559990    1.008964
     30          1           0       -3.125141    2.405557    0.336556
     31          1           0       -2.005469    1.304517   -0.458206
     32          1           0       -0.818820    0.924435    1.729047
     33          1           0       -1.944853    2.031730    2.528325
     34          1           0       -0.822245    2.643971    1.301859
 ---------------------------------------------------------------------

 SCF Done:  E(RHF) =  -669.536510856     A.U. after   15 cycles
 E2 =    -0.2092027843D+01 EUMP2 =    -0.67162853869955D+03

 The electronic state is 1-A.
 Alpha  occ. eigenvalues --  -20.61081 -20.61067 -15.86076 -11.31358 -11.27915
 Alpha  occ. eigenvalues --  -11.27908 -11.27641 -11.26910 -11.26900 -11.20764
 Alpha  occ. eigenvalues --  -11.20375 -11.20288 -11.20067 -11.19865 -11.19549
 Alpha  occ. eigenvalues --   -1.60113  -1.39675  -1.19519  -1.08932  -1.07220
 Alpha  occ. eigenvalues --   -1.04909  -1.02303  -0.95784  -0.94807  -0.86312
 Alpha  occ. eigenvalues --   -0.85845  -0.82620  -0.78430  -0.77679  -0.76982
 Alpha  occ. eigenvalues --   -0.72314  -0.71422  -0.70629  -0.65179  -0.64914
 Alpha  occ. eigenvalues --   -0.63831  -0.62257  -0.59672  -0.58223  -0.56403
 Alpha  occ. eigenvalues --   -0.55415  -0.54110  -0.53234  -0.53000  -0.51540
 Alpha  occ. eigenvalues --   -0.51244  -0.49077  -0.49049  -0.48777  -0.46751
 Alpha  occ. eigenvalues --   -0.45485  -0.45030  -0.44519  -0.44343  -0.42584
 Alpha  occ. eigenvalues --   -0.37493  -0.36506
 Alpha virt. eigenvalues --    0.04826   0.11148   0.16306   0.21258   0.24022
 Alpha virt. eigenvalues --    0.25537   0.27184   0.27703   0.28297   0.28692
 Alpha virt. eigenvalues --    0.29096   0.30866   0.32100   0.32757   0.32875

 Mulliken charges:
               1
     1  C   -0.170419
     2  C   -0.218554
     3  C   -0.170574
     4  C    0.158515
     5  C   -0.170693
     6  C   -0.218478
     7  H    0.226261
     8  H    0.224069
     9  H    0.275994
    10  H    0.275454
    11  H    0.224079
    12  N    0.489456
    13  O   -0.459476
    14  O   -0.458302
    15  C   -0.298262
    16  C   -0.298569
    17  C   -0.475051
    18  H    0.146740
    19  H    0.153275
    20  H    0.149194
    21  H    0.150338
    22  H    0.155102
    23  H    0.154004
    24  H    0.156886
    25  C   -0.297624
    26  C   -0.300625
    27  C   -0.475386
    28  H    0.142334
    29  H    0.151169
    30  H    0.143034
    31  H    0.175548
    32  H    0.158120
    33  H    0.143939
    34  H    0.158498
 Sum of Mulliken charges =  -0.00000

 Dipole moment (field-independent basis, Debye):
    X=              4.9885    Y=             -1.9404    Z=              1.4359  Tot=              5.5418
 Quadrupole moment (field-independent basis, Debye-Ang):
   XX=            -69.3497   YY=            -91.7787   ZZ=            -96.4064
   XY=             -4.3087   XZ=              1.8290   YZ=             -1.7113

 Normal termination of Gaussian 16 at Thu May  6 19:17:18 2021.
