 Gaussian 16, Revision A.03,
 Gaussian 16:  EM64L-G16RevA.03 25-Dec-2016

 -------------
 #p 6-31g* mp2
 -------------

 ------------------------------------------------------
 Input file generated by CHIRIPA (05-May-2021 14:55:18)
 ------------------------------------------------------
 Symbolic Z-matrix:
 Charge =  0 Multiplicity = 1

                         Standard orientation:
 ---------------------------------------------------------------------
 Center     Atomic      Atomic             Coordinates (Angstroms)
 Number     Number       Type             X           Y           Z
 ---------------------------------------------------------------------
      1          6           0       -4.655943    1.279919    0.000373
      2          6           0       -3.536056    1.624686    0.764251
      3          6           0       -2.419427    0.784508    0.806533
      4          6           0       -2.456901   -0.398096    0.069422
      5          6           0       -3.557737   -0.769286   -0.701078
      6          6           0       -4.663197    0.086138   -0.728568
      7          1           0       -5.519030    1.938512   -0.026727
      8          1           0       -3.527625    2.551164    1.331359
      9          1           0       -1.539268    1.026983    1.389580
     10          1           0       -3.536662   -1.699461   -1.255828
     11          1           0       -5.531535   -0.184173   -1.322677
     12          7           0       -1.280688   -1.295625    0.106354
     13          8           0       -1.338591   -2.331915   -0.551968
     14          8           0       -0.323141   -0.945824    0.792925
     15          6           0        2.982602    0.963902   -0.054493
     16          6           0        3.796684    2.215987   -0.382422
     17          6           0        2.961882    3.495682   -0.325123
     18          1           0        2.141669    0.886583   -0.757202
     19          1           0        2.543988    1.072125    0.947156
     20          1           0        4.234767    2.104843   -1.382594
     21          1           0        4.635887    2.290232    0.321029
     22          1           0        2.536693    3.633847    0.674240
     23          1           0        2.133294    3.447405   -1.039064
     24          1           0        3.563543    4.378489   -0.562852
     25          6           0        3.803333   -0.323461   -0.107644
     26          6           0        2.989250   -1.575546    0.220284
     27          6           0        3.824052   -2.855240    0.162985
     28          1           0        4.241947   -0.431683   -1.109293
     29          1           0        4.644266   -0.246142    0.595064
     30          1           0        2.150047   -1.649790   -0.483166
     31          1           0        2.551167   -1.464402    1.220457
     32          1           0        4.652640   -2.806964    0.876926
     33          1           0        4.249241   -2.993405   -0.836377
     34          1           0        3.222391   -3.738048    0.400714
 ---------------------------------------------------------------------

 SCF Done:  E(RHF) =  -669.535613684     A.U. after   15 cycles
 E2 =    -0.2092041285D+01 EUMP2 =    -0.67162765496935D+03

 The electronic state is 1-A.
 Alpha  occ. eigenvalues --  -20.60963 -20.60953 -15.85982 -11.31301 -11.27864
 Alpha  occ. eigenvalues --  -11.27858 -11.27600 -11.26869 -11.26858 -11.20915
 Alpha  occ. eigenvalues --  -11.20669 -11.20353 -11.20130 -11.19698 -11.19608
 Alpha  occ. eigenvalues --   -1.60021  -1.39576  -1.19469  -1.08876  -1.07299
 Alpha  occ. eigenvalues --   -1.04863  -1.02397  -0.95718  -0.94936  -0.86264
 Alpha  occ. eigenvalues --   -0.85967  -0.82556  -0.78500  -0.77616  -0.76960
 Alpha  occ. eigenvalues --   -0.72186  -0.71333  -0.70577  -0.65123  -0.64866
 Alpha  occ. eigenvalues --   -0.63954  -0.62210  -0.59809  -0.58349  -0.56480
 Alpha  occ. eigenvalues --   -0.55367  -0.54263  -0.53197  -0.52955  -0.51664
 Alpha  occ. eigenvalues --   -0.51349  -0.49061  -0.48964  -0.48928  -0.46726
 Alpha  occ. eigenvalues --   -0.45549  -0.45137  -0.44419  -0.44258  -0.42651
 Alpha  occ. eigenvalues --   -0.37447  -0.36464
 Alpha virt. eigenvalues --    0.04902   0.11190   0.16395   0.21291   0.23784
 Alpha virt. eigenvalues --    0.25374   0.27160   0.27610   0.27955   0.28777
 Alpha virt. eigenvalues --    0.29073   0.31001   0.32352   0.32436   0.32759

 Mulliken charges:
               1
     1  C   -0.170569
     2  C   -0.218544
     3  C   -0.170690
     4  C    0.157902
     5  C   -0.170712
     6  C   -0.218622
     7  H    0.226054
     8  H    0.224028
     9  H    0.276040
    10  H    0.275769
    11  H    0.223809
    12  N    0.489297
    13  O   -0.460044
    14  O   -0.458635
    15  C   -0.294010
    16  C   -0.298842
    17  C   -0.474386
    18  H    0.149191
    19  H    0.150135
    20  H    0.150215
    21  H    0.150123
    22  H    0.151617
    23  H    0.152409
    24  H    0.157734
    25  C   -0.300001
    26  C   -0.294625
    27  C   -0.476515
    28  H    0.144042
    29  H    0.143656
    30  H    0.165022
    31  H    0.160142
    32  H    0.147651
    33  H    0.148937
    34  H    0.162422
 Sum of Mulliken charges =  -0.00000

 Dipole moment (field-independent basis, Debye):
    X=             -4.5059    Y=              3.0398    Z=             -0.0697  Tot=              5.4359
 Quadrupole moment (field-independent basis, Debye-Ang):
   XX=            -75.4403   YY=            -97.3385   ZZ=            -92.4940
   XY=             -4.1827   XZ=              2.1132   YZ=              2.7282

 Normal termination of Gaussian 16 at Thu May  6 01:16:51 2021.
