 Gaussian 16, Revision A.03,
 Gaussian 16:  EM64L-G16RevA.03 25-Dec-2016

 -------------
 #p 6-31g* mp2
 -------------

 ------------------------------------------------------
 Input file generated by CHIRIPA (05-May-2021 14:53:15)
 ------------------------------------------------------
 Symbolic Z-matrix:
 Charge =  0 Multiplicity = 1

                         Standard orientation:
 ---------------------------------------------------------------------
 Center     Atomic      Atomic             Coordinates (Angstroms)
 Number     Number       Type             X           Y           Z
 ---------------------------------------------------------------------
      1          6           0       -2.958920   -0.926745    0.123277
      2          6           0       -1.684021   -0.641386   -0.671198
      3          6           0       -0.530043   -1.569371   -0.290446
      4          1           0       -2.744848   -0.826806    1.196184
      5          1           0       -3.258138   -1.971388   -0.039772
      6          1           0       -1.388069    0.402801   -0.507795
      7          1           0       -1.901200   -0.741829   -1.742347
      8          1           0       -0.800966   -2.614776   -0.470251
      9          1           0       -0.284919   -1.463642    0.771315
     10          1           0        0.371324   -1.347922   -0.870411
     11          6           0       -4.121519   -0.007156   -0.246108
     12          6           0       -5.396417   -0.292514    0.548366
     13          6           0       -6.550396    0.635470    0.167615
     14          1           0       -3.822301    1.037487   -0.083060
     15          1           0       -4.335591   -0.107095   -1.319016
     16          1           0       -5.179239   -0.192072    1.619516
     17          1           0       -5.692370   -1.336702    0.384964
     18          1           0       -6.795519    0.529741   -0.894147
     19          1           0       -6.279473    1.680875    0.347420
     20          1           0       -7.451762    0.414021    0.747579
     21          6           0        3.781221   -1.937641    0.231234
     22          6           0        3.438734   -1.421420   -1.022855
     23          6           0        2.875500   -0.146883   -1.136316
     24          6           0        2.667629    0.587397    0.030265
     25          6           0        2.998242    0.100680    1.294025
     26          6           0        3.560271   -1.176285    1.383641
     27          1           0        4.218286   -2.928674    0.310111
     28          1           0        3.609192   -2.010453   -1.919532
     29          1           0        2.600992    0.277116   -2.094590
     30          1           0        2.816367    0.711517    2.169936
     31          1           0        3.825269   -1.574636    2.358903
     32          7           0        2.071996    1.937977   -0.077229
     33          8           0        1.898954    2.564905    0.965679
     34          8           0        1.789461    2.344061   -1.202354
 ---------------------------------------------------------------------

 SCF Done:  E(RHF) =  -669.534713968     A.U. after   15 cycles
 E2 =    -0.2093157496D+01 EUMP2 =    -0.67162787146445D+03

 The electronic state is 1-A.
 Alpha  occ. eigenvalues --  -20.60822 -20.60812 -15.85873 -11.31218 -11.27815
 Alpha  occ. eigenvalues --  -11.27782 -11.27557 -11.26832 -11.26816 -11.21347
 Alpha  occ. eigenvalues --  -11.21305 -11.21134 -11.21049 -11.20843 -11.20812
 Alpha  occ. eigenvalues --   -1.59895  -1.39448  -1.19420  -1.08805  -1.08158
 Alpha  occ. eigenvalues --   -1.04833  -1.03282  -0.95760  -0.95630  -0.86765
 Alpha  occ. eigenvalues --   -0.86218  -0.82477  -0.79341  -0.77964  -0.77523
 Alpha  occ. eigenvalues --   -0.72091  -0.71222  -0.70525  -0.65071  -0.64824
 Alpha  occ. eigenvalues --   -0.64788  -0.62173  -0.60684  -0.59182  -0.57394
 Alpha  occ. eigenvalues --   -0.55319  -0.55062  -0.53494  -0.52913  -0.52210
 Alpha  occ. eigenvalues --   -0.51985  -0.49669  -0.48850  -0.48846  -0.47663
 Alpha  occ. eigenvalues --   -0.46366  -0.45513  -0.45427  -0.44849  -0.43529
 Alpha  occ. eigenvalues --   -0.37372  -0.36349
 Alpha virt. eigenvalues --    0.04989   0.11190   0.16472   0.21358   0.23090
 Alpha virt. eigenvalues --    0.24470   0.26906   0.27205   0.27755   0.28103
 Alpha virt. eigenvalues --    0.28401   0.30926   0.31596   0.32063   0.32244

 Mulliken charges:
               1
     1  C   -0.297829
     2  C   -0.300886
     3  C   -0.481715
     4  H    0.149133
     5  H    0.146954
     6  H    0.158875
     7  H    0.150724
     8  H    0.150569
     9  H    0.153276
    10  H    0.163339
    11  C   -0.298902
    12  C   -0.299458
    13  C   -0.475731
    14  H    0.153828
    15  H    0.149126
    16  H    0.151716
    17  H    0.150210
    18  H    0.154797
    19  H    0.156798
    20  H    0.159166
    21  C   -0.169547
    22  C   -0.215131
    23  C   -0.179382
    24  C    0.166912
    25  C   -0.171456
    26  C   -0.217486
    27  H    0.226085
    28  H    0.224068
    29  H    0.276041
    30  H    0.275653
    31  H    0.223778
    32  N    0.487726
    33  O   -0.460763
    34  O   -0.460487
 Sum of Mulliken charges =  -0.00000

 Dipole moment (field-independent basis, Debye):
    X=              2.2260    Y=             -4.6864    Z=              0.3871  Tot=              5.2026
 Quadrupole moment (field-independent basis, Debye-Ang):
   XX=            -85.0752   YY=           -101.0642   ZZ=            -89.2974
   XY=            -11.2821   XZ=              1.4937   YZ=              1.2058

 Normal termination of Gaussian 16 at Wed May  5 18:39:04 2021.
