 Gaussian 16, Revision A.03,
 Gaussian 16:  EM64L-G16RevA.03 25-Dec-2016

 -------------
 #p 6-31g* mp2
 -------------

 ------------------------------------------------------
 Input file generated by CHIRIPA (05-May-2021 14:55:18)
 ------------------------------------------------------
 Symbolic Z-matrix:
 Charge =  0 Multiplicity = 1

                         Standard orientation:
 ---------------------------------------------------------------------
 Center     Atomic      Atomic             Coordinates (Angstroms)
 Number     Number       Type             X           Y           Z
 ---------------------------------------------------------------------
      1          6           0       -4.234516   -0.014017   -1.757796
      2          6           0       -2.888081    0.314775   -1.946290
      3          6           0       -1.986708    0.255847   -0.879237
      4          6           0       -2.468111   -0.137713    0.368422
      5          6           0       -3.803670   -0.471459    0.587934
      6          6           0       -4.687215   -0.405395   -0.493514
      7          1           0       -4.927800    0.034532   -2.592300
      8          1           0       -2.533700    0.619059   -2.927040
      9          1           0       -0.939113    0.504949   -0.997181
     10          1           0       -4.127339   -0.771256    1.577267
     11          1           0       -5.732326   -0.661309   -0.344195
     12          7           0       -1.523305   -0.203875    1.505683
     13          8           0       -1.972407   -0.553581    2.595017
     14          8           0       -0.351553    0.095225    1.286200
     15          6           0        3.750648   -0.451454   -0.001580
     16          6           0        3.471813   -1.698821   -0.840812
     17          6           0        4.263689   -2.918418   -0.368255
     18          1           0        4.825726   -0.227742   -0.034778
     19          1           0        3.507695   -0.662991    1.048954
     20          1           0        3.713909   -1.484555   -1.889666
     21          1           0        2.397244   -1.919479   -0.805769
     22          1           0        4.015486   -3.160133    0.670288
     23          1           0        5.339633   -2.722738   -0.419768
     24          1           0        4.049210   -3.798817   -0.982060
     25          6           0        2.966349    0.776085   -0.461747
     26          6           0        3.245183    2.023452    0.377484
     27          6           0        2.453307    3.243049   -0.095073
     28          1           0        3.209301    0.987622   -1.512281
     29          1           0        1.891270    0.552373   -0.428550
     30          1           0        4.319752    2.244110    0.342441
     31          1           0        3.003086    1.809186    1.426339
     32          1           0        1.377363    3.047369   -0.043560
     33          1           0        2.701510    3.484764   -1.133615
     34          1           0        2.667786    4.123448    0.518732
 ---------------------------------------------------------------------

 SCF Done:  E(RHF) =  -669.536327159     A.U. after   15 cycles
 E2 =    -0.2091704854D+01 EUMP2 =    -0.67162803201240D+03

 The electronic state is 1-A.
 Alpha  occ. eigenvalues --  -20.60990 -20.60974 -15.86022 -11.31311 -11.27871
 Alpha  occ. eigenvalues --  -11.27868 -11.27602 -11.26873 -11.26862 -11.20998
 Alpha  occ. eigenvalues --  -11.20784 -11.20599 -11.20534 -11.20530 -11.20473
 Alpha  occ. eigenvalues --   -1.60048  -1.39606  -1.19477  -1.08887  -1.07668
 Alpha  occ. eigenvalues --   -1.04869  -1.02850  -0.95736  -0.95311  -0.86338
 Alpha  occ. eigenvalues --   -0.86272  -0.82572  -0.78923  -0.77690  -0.77441
 Alpha  occ. eigenvalues --   -0.72255  -0.71359  -0.70587  -0.65144  -0.64875
 Alpha  occ. eigenvalues --   -0.64239  -0.62218  -0.60223  -0.58693  -0.56938
 Alpha  occ. eigenvalues --   -0.55375  -0.54580  -0.53202  -0.52962  -0.52042
 Alpha  occ. eigenvalues --   -0.51763  -0.49269  -0.49003  -0.48982  -0.47255
 Alpha  occ. eigenvalues --   -0.45922  -0.45073  -0.45015  -0.44867  -0.43084
 Alpha  occ. eigenvalues --   -0.37455  -0.36468
 Alpha virt. eigenvalues --    0.04891   0.11180   0.16399   0.20474   0.23210
 Alpha virt. eigenvalues --    0.24508   0.25722   0.27517   0.27908   0.28608
 Alpha virt. eigenvalues --    0.29272   0.31031   0.31609   0.32362   0.32531

 Mulliken charges:
               1
     1  C   -0.170227
     2  C   -0.220085
     3  C   -0.172106
     4  C    0.156734
     5  C   -0.170437
     6  C   -0.218758
     7  H    0.226147
     8  H    0.224673
     9  H    0.280364
    10  H    0.275792
    11  H    0.223885
    12  N    0.493040
    13  O   -0.458731
    14  O   -0.468034
    15  C   -0.297680
    16  C   -0.299536
    17  C   -0.475600
    18  H    0.145755
    19  H    0.158475
    20  H    0.146810
    21  H    0.152949
    22  H    0.158051
    23  H    0.153536
    24  H    0.156966
    25  C   -0.307966
    26  C   -0.298103
    27  C   -0.476670
    28  H    0.140454
    29  H    0.166195
    30  H    0.147624
    31  H    0.162094
    32  H    0.156233
    33  H    0.149103
    34  H    0.159051
 Sum of Mulliken charges =  -0.00000

 Dipole moment (field-independent basis, Debye):
    X=             -3.5473    Y=              0.1803    Z=             -3.8155  Tot=              5.2129
 Quadrupole moment (field-independent basis, Debye-Ang):
   XX=            -75.9725   YY=            -96.5889   ZZ=            -96.0005
   XY=              1.7668   XZ=              6.3795   YZ=             -0.3075

 Normal termination of Gaussian 16 at Wed May  5 23:41:47 2021.
