 Gaussian 16, Revision A.03,
 Gaussian 16:  EM64L-G16RevA.03 25-Dec-2016

 -------------
 #p 6-31g* mp2
 -------------

 ------------------------------------------------------
 Input file generated by CHIRIPA (05-May-2021 14:55:21)
 ------------------------------------------------------
 Symbolic Z-matrix:
 Charge =  0 Multiplicity = 1

                         Standard orientation:
 ---------------------------------------------------------------------
 Center     Atomic      Atomic             Coordinates (Angstroms)
 Number     Number       Type             X           Y           Z
 ---------------------------------------------------------------------
      1          6           0        3.937572   -1.784114   -0.961870
      2          6           0        4.101211   -0.403831   -1.118594
      3          6           0        3.291001    0.491712   -0.414244
      4          6           0        2.322736   -0.029972    0.442261
      5          6           0        2.135336   -1.399883    0.619789
      6          6           0        2.956886   -2.276866   -0.094707
      7          1           0        4.571367   -2.472584   -1.512967
      8          1           0        4.862009   -0.018310   -1.791353
      9          1           0        3.396188    1.564957   -0.516709
     10          1           0        1.368341   -1.754227    1.297710
     11          1           0        2.827548   -3.348321    0.028985
     12          7           0        1.459001    0.908275    1.193295
     13          8           0        0.613214    0.423375    1.941729
     14          8           0        1.644146    2.110807    1.019301
     15          6           0       -2.915531    0.958390   -0.340458
     16          6           0       -1.624302    1.242503   -1.108567
     17          6           0       -1.157288    2.691264   -0.964403
     18          1           0       -3.703285    1.636246   -0.696689
     19          1           0       -2.760407    1.190579    0.722284
     20          1           0       -1.781395    1.008534   -2.169321
     21          1           0       -0.839581    0.563762   -0.750601
     22          1           0       -0.972997    2.933783    0.087178
     23          1           0       -1.920162    3.381083   -1.339603
     24          1           0       -0.232723    2.872350   -1.521403
     25          6           0       -3.395101   -0.485798   -0.474854
     26          6           0       -4.686330   -0.769910    0.293256
     27          6           0       -5.153343   -2.218671    0.149092
     28          1           0       -3.550225   -0.717985   -1.537595
     29          1           0       -2.607346   -1.163653   -0.118623
     30          1           0       -5.471051   -0.091169   -0.064711
     31          1           0       -4.529237   -0.535942    1.354009
     32          1           0       -4.390470   -2.908490    0.524291
     33          1           0       -5.337635   -2.461191   -0.902489
     34          1           0       -6.077908   -2.399756    0.706091
 ---------------------------------------------------------------------

 SCF Done:  E(RHF) =  -669.536088105     A.U. after   15 cycles
 E2 =    -0.2093069139D+01 EUMP2 =    -0.67162915724425D+03

 The electronic state is 1-A.
 Alpha  occ. eigenvalues --  -20.61016 -20.60973 -15.85996 -11.31309 -11.27867
 Alpha  occ. eigenvalues --  -11.27859 -11.27595 -11.26865 -11.26855 -11.21053
 Alpha  occ. eigenvalues --  -11.20759 -11.20744 -11.20690 -11.20477 -11.19801
 Alpha  occ. eigenvalues --   -1.60045  -1.39601  -1.19470  -1.08881  -1.07682
 Alpha  occ. eigenvalues --   -1.04862  -1.02778  -0.95729  -0.95198  -0.86265
 Alpha  occ. eigenvalues --   -0.86209  -0.82560  -0.78867  -0.77618  -0.77496
 Alpha  occ. eigenvalues --   -0.72230  -0.71402  -0.70578  -0.65126  -0.64866
 Alpha  occ. eigenvalues --   -0.64281  -0.62210  -0.60140  -0.58612  -0.56828
 Alpha  occ. eigenvalues --   -0.55370  -0.54461  -0.53190  -0.52954  -0.51908
 Alpha  occ. eigenvalues --   -0.51634  -0.49263  -0.48991  -0.48870  -0.47174
 Alpha  occ. eigenvalues --   -0.45994  -0.45169  -0.44965  -0.44683  -0.43018
 Alpha  occ. eigenvalues --   -0.37438  -0.36458
 Alpha virt. eigenvalues --    0.04884   0.11174   0.16340   0.21283   0.23530
 Alpha virt. eigenvalues --    0.24930   0.26960   0.27333   0.28122   0.28360
 Alpha virt. eigenvalues --    0.28773   0.30943   0.31936   0.32146   0.32450

 Mulliken charges:
               1
     1  C   -0.170386
     2  C   -0.218501
     3  C   -0.170790
     4  C    0.157357
     5  C   -0.171553
     6  C   -0.218320
     7  H    0.226120
     8  H    0.223938
     9  H    0.276025
    10  H    0.275683
    11  H    0.223964
    12  N    0.489902
    13  O   -0.460632
    14  O   -0.456536
    15  C   -0.299088
    16  C   -0.297945
    17  C   -0.478722
    18  H    0.146466
    19  H    0.161408
    20  H    0.145142
    21  H    0.143907
    22  H    0.177816
    23  H    0.147594
    24  H    0.154373
    25  C   -0.297002
    26  C   -0.299717
    27  C   -0.475002
    28  H    0.145366
    29  H    0.148031
    30  H    0.150872
    31  H    0.154930
    32  H    0.153038
    33  H    0.153201
    34  H    0.159062
 Sum of Mulliken charges =  -0.00000

 Dipole moment (field-independent basis, Debye):
    X=              3.2513    Y=             -3.2089    Z=             -2.4397  Tot=              5.1788
 Quadrupole moment (field-independent basis, Debye-Ang):
   XX=            -80.2813   YY=            -92.6847   ZZ=            -96.4767
   XY=             -6.6646   XZ=             -6.1609   YZ=             -3.1083

 Normal termination of Gaussian 16 at Wed May  5 23:51:08 2021.
