 Gaussian 16, Revision A.03,
 Gaussian 16:  EM64L-G16RevA.03 25-Dec-2016

 -------------
 #p 6-31g* mp2
 -------------

 ------------------------------------------------------
 Input file generated by CHIRIPA (05-May-2021 14:53:13)
 ------------------------------------------------------
 Symbolic Z-matrix:
 Charge =  0 Multiplicity = 1

                         Standard orientation:
 ---------------------------------------------------------------------
 Center     Atomic      Atomic             Coordinates (Angstroms)
 Number     Number       Type             X           Y           Z
 ---------------------------------------------------------------------
      1          6           0        4.150325    1.025716   -0.103023
      2          6           0        2.816338    1.700750   -0.423636
      3          6           0        2.928663    3.223471   -0.504262
      4          1           0        4.532700    1.417545    0.849450
      5          1           0        4.886110    1.299842   -0.871704
      6          1           0        2.082909    1.424321    0.344664
      7          1           0        2.437001    1.307128   -1.375361
      8          1           0        3.639715    3.516585   -1.283421
      9          1           0        3.283612    3.634443    0.446377
     10          1           0        1.963606    3.685589   -0.734418
     11          6           0        4.054214   -0.496600   -0.019087
     12          6           0        5.388201   -1.171635    0.301526
     13          6           0        5.275876   -2.694355    0.382152
     14          1           0        3.318429   -0.770726    0.749594
     15          1           0        3.671839   -0.888430   -0.971559
     16          1           0        5.767538   -0.778012    1.253251
     17          1           0        6.121630   -0.895205   -0.466774
     18          1           0        4.920927   -3.105327   -0.568487
     19          1           0        4.564824   -2.987469    1.161311
     20          1           0        6.240933   -3.156473    0.612308
     21          6           0       -0.683245   -0.256081    0.116601
     22          6           0       -1.396181    0.456461    1.086407
     23          6           0       -2.793524    0.490756    1.058030
     24          6           0       -3.448682   -0.201911    0.041038
     25          6           0       -2.766596   -0.920772   -0.939414
     26          6           0       -1.369518   -0.941216   -0.891439
     27          1           0        0.402142   -0.277342    0.146257
     28          1           0       -0.865858    0.989476    1.870434
     29          1           0       -3.370365    1.034497    1.796282
     30          1           0       -3.323114   -1.442312   -1.708635
     31          1           0       -0.818452   -1.495413   -1.645917
     32          7           0       -4.927847   -0.172935    0.000622
     33          8           0       -5.481516   -0.791444   -0.905763
     34          8           0       -5.505538    0.467735    0.876094
 ---------------------------------------------------------------------

 SCF Done:  E(RHF) =  -669.535435735     A.U. after   15 cycles
 E2 =    -0.2091539025D+01 EUMP2 =    -0.67162697475931D+03

 The electronic state is 1-A.
 Alpha  occ. eigenvalues --  -20.60704 -20.60699 -15.85759 -11.31103 -11.27684
 Alpha  occ. eigenvalues --  -11.27678 -11.27342 -11.26680 -11.26664 -11.22797
 Alpha  occ. eigenvalues --  -11.22505 -11.22429 -11.22374 -11.21961 -11.21808
 Alpha  occ. eigenvalues --   -1.59781  -1.39335  -1.19275  -1.09458  -1.08664
 Alpha  occ. eigenvalues --   -1.04681  -1.04474  -0.96891  -0.95506  -0.87908
 Alpha  occ. eigenvalues --   -0.86076  -0.82350  -0.80569  -0.79306  -0.77398
 Alpha  occ. eigenvalues --   -0.71976  -0.71105  -0.70374  -0.66081  -0.64924
 Alpha  occ. eigenvalues --   -0.64688  -0.62038  -0.61862  -0.60273  -0.58517
 Alpha  occ. eigenvalues --   -0.56168  -0.55196  -0.53555  -0.53311  -0.53005
 Alpha  occ. eigenvalues --   -0.52771  -0.50833  -0.48858  -0.48733  -0.48726
 Alpha  occ. eigenvalues --   -0.47602  -0.46788  -0.46743  -0.44745  -0.44741
 Alpha  occ. eigenvalues --   -0.37232  -0.36293
 Alpha virt. eigenvalues --    0.05133   0.11345   0.16601   0.19576   0.22463
 Alpha virt. eigenvalues --    0.23518   0.24809   0.25450   0.26794   0.27472
 Alpha virt. eigenvalues --    0.29582   0.30596   0.30914   0.31167   0.31774

 Mulliken charges:
               1
     1  C   -0.298230
     2  C   -0.302837
     3  C   -0.476220
     4  H    0.152411
     5  H    0.153956
     6  H    0.142839
     7  H    0.152268
     8  H    0.159048
     9  H    0.157063
    10  H    0.163513
    11  C   -0.301007
    12  C   -0.300044
    13  C   -0.476497
    14  H    0.144444
    15  H    0.148135
    16  H    0.154231
    17  H    0.154865
    18  H    0.155251
    19  H    0.155218
    20  H    0.163621
    21  C   -0.174905
    22  C   -0.221200
    23  C   -0.170759
    24  C    0.157963
    25  C   -0.170692
    26  C   -0.220755
    27  H    0.235566
    28  H    0.222415
    29  H    0.275214
    30  H    0.275191
    31  H    0.223297
    32  N    0.488100
    33  O   -0.460708
    34  O   -0.460760
 Sum of Mulliken charges =  -0.00000

 Dipole moment (field-independent basis, Debye):
    X=              5.5064    Y=             -0.0346    Z=              0.1006  Tot=              5.5075
 Quadrupole moment (field-independent basis, Debye-Ang):
   XX=           -130.2860   YY=            -94.4108   ZZ=            -90.6799
   XY=             -0.5302   XZ=             -0.6180   YZ=              2.7989

 Normal termination of Gaussian 16 at Thu May  6 15:24:36 2021.
