 Gaussian 16, Revision A.03,
 Gaussian 16:  EM64L-G16RevA.03 25-Dec-2016

 -------------
 #p 6-31g* mp2
 -------------

 ------------------------------------------------------
 Input file generated by CHIRIPA (05-May-2021 14:57:23)
 ------------------------------------------------------
 Symbolic Z-matrix:
 Charge =  0 Multiplicity = 1

                         Standard orientation:
 ---------------------------------------------------------------------
 Center     Atomic      Atomic             Coordinates (Angstroms)
 Number     Number       Type             X           Y           Z
 ---------------------------------------------------------------------
      1          6           0        1.578209   -2.395804   -0.375515
      2          6           0        2.937883   -2.438040   -0.049903
      3          6           0        3.675115   -1.256742    0.074876
      4          6           0        3.017857   -0.045221   -0.133733
      5          6           0        1.664447    0.029661   -0.459256
      6          6           0        0.946943   -1.164259   -0.578794
      7          1           0        1.013171   -3.318368   -0.470411
      8          1           0        3.430750   -3.393041    0.108528
      9          1           0        4.728848   -1.260497    0.325975
     10          1           0        1.200726    0.996757   -0.611266
     11          1           0       -0.108880   -1.128425   -0.831771
     12          7           0        3.787889    1.212049   -0.004409
     13          8           0        3.185547    2.266649   -0.193193
     14          8           0        4.979201    1.119089    0.283290
     15          6           0       -2.417307    2.729431    0.077111
     16          6           0       -1.669334    1.899877    0.919070
     17          6           0       -1.923056    0.525998    0.970381
     18          6           0       -2.936736    0.012967    0.162581
     19          6           0       -3.699243    0.813498   -0.686549
     20          6           0       -3.428094    2.184555   -0.721603
     21          1           0       -2.213441    3.795596    0.043565
     22          1           0       -0.883733    2.320273    1.540474
     23          1           0       -1.359249   -0.139135    1.613140
     24          1           0       -4.475928    0.365342   -1.294278
     25          1           0       -4.010579    2.826396   -1.376428
     26          7           0       -3.214565   -1.440003    0.208297
     27          8           0       -4.113056   -1.867431   -0.513268
     28          8           0       -2.528575   -2.123901    0.964828
 ---------------------------------------------------------------------

 SCF Done:  E(RHF) =  -868.339396462     A.U. after   16 cycles
 E2 =    -0.2601460431D+01 EUMP2 =    -0.87094085689268D+03

 The electronic state is 1-A.
 Alpha  occ. eigenvalues --  -20.61692 -20.61672 -20.60940 -20.60910 -15.86715
 Alpha  occ. eigenvalues --  -15.85975 -11.31926 -11.31159 -11.28462 -11.28451
 Alpha  occ. eigenvalues --  -11.28105 -11.27702 -11.27698 -11.27380 -11.27356
 Alpha  occ. eigenvalues --  -11.27282 -11.26629 -11.26580  -1.60767  -1.60007
 Alpha  occ. eigenvalues --   -1.40317  -1.39567  -1.20092  -1.19301  -1.09488
 Alpha  occ. eigenvalues --   -1.08697  -1.05447  -1.04672  -0.96344  -0.95568
 Alpha  occ. eigenvalues --   -0.86835  -0.86057  -0.83162  -0.82418  -0.78258
 Alpha  occ. eigenvalues --   -0.77513  -0.72920  -0.72202  -0.72116  -0.71331
 Alpha  occ. eigenvalues --   -0.71115  -0.70331  -0.65709  -0.65388  -0.64931
 Alpha  occ. eigenvalues --   -0.64631  -0.62776  -0.62025  -0.55875  -0.55095
 Alpha  occ. eigenvalues --   -0.53808  -0.53489  -0.52990  -0.52728  -0.49697
 Alpha  occ. eigenvalues --   -0.49668  -0.48964  -0.48929  -0.45735  -0.45014
 Alpha  occ. eigenvalues --   -0.38043  -0.37237  -0.37165  -0.36146
 Alpha virt. eigenvalues --    0.04181   0.05042   0.10388   0.11473   0.15715
 Alpha virt. eigenvalues --    0.16589   0.20924   0.21618   0.26676   0.27258
 Alpha virt. eigenvalues --    0.27832   0.28558   0.30233   0.31333   0.31830

 Mulliken charges:
               1
     1  C   -0.169480
     2  C   -0.219271
     3  C   -0.171356
     4  C    0.158285
     5  C   -0.179410
     6  C   -0.220328
     7  H    0.235418
     8  H    0.224587
     9  H    0.274908
    10  H    0.271986
    11  H    0.226136
    12  N    0.488339
    13  O   -0.465912
    14  O   -0.459465
    15  C   -0.170132
    16  C   -0.223956
    17  C   -0.178165
    18  C    0.150479
    19  C   -0.171307
    20  C   -0.218717
    21  H    0.232571
    22  H    0.233528
    23  H    0.279372
    24  H    0.277234
    25  H    0.227033
    26  N    0.487519
    27  O   -0.456716
    28  O   -0.463180
 Sum of Mulliken charges =  -0.00000

 Dipole moment (field-independent basis, Debye):
    X=             -1.9606    Y=              0.6939    Z=             -0.5907  Tot=              2.1620
 Quadrupole moment (field-independent basis, Debye-Ang):
   XX=           -121.2958   YY=           -102.8801   ZZ=           -103.3725
   XY=            -32.2664   XZ=              3.5571   YZ=              0.4873

 Normal termination of Gaussian 16 at Fri May  7 09:29:39 2021.
