 Gaussian 16, Revision A.03,
 Gaussian 16:  EM64L-G16RevA.03 25-Dec-2016

 -------------
 #p 6-31g* mp2
 -------------

 ------------------------------------------------------
 Input file generated by CHIRIPA (05-May-2021 14:51:08)
 ------------------------------------------------------
 Symbolic Z-matrix:
 Charge =  0 Multiplicity = 1

                         Standard orientation:
 ---------------------------------------------------------------------
 Center     Atomic      Atomic             Coordinates (Angstroms)
 Number     Number       Type             X           Y           Z
 ---------------------------------------------------------------------
      1          6           0       -5.434588   -0.161186   -0.399727
      2          6           0       -6.710781   -0.402803    0.407080
      3          6           0       -7.977610   -0.283410   -0.440673
      4          1           0       -5.479912    0.837521   -0.855223
      5          1           0       -5.391360   -0.881141   -1.228697
      6          1           0       -6.750901    0.316495    1.235100
      7          1           0       -6.662329   -1.400975    0.860864
      8          1           0       -7.964120   -1.011497   -1.258174
      9          1           0       -8.053195    0.715732   -0.881812
     10          1           0       -8.878038   -0.459850    0.155950
     11          6           0       -4.159738   -0.277102    0.433969
     12          6           0       -2.883545   -0.035485   -0.372838
     13          6           0       -1.616716   -0.154878    0.474914
     14          1           0       -4.202967    0.442853    1.262938
     15          1           0       -4.114415   -1.275808    0.889465
     16          1           0       -2.931997    0.962687   -0.826623
     17          1           0       -2.843425   -0.754783   -1.200858
     18          1           0       -1.541132   -1.154019    0.916054
     19          1           0       -1.630207    0.573209    1.292415
     20          1           0       -0.716288    0.021562   -0.121709
     21          6           0        5.453472    0.033951   -0.361206
     22          6           0        6.236110   -1.055874    0.372104
     23          6           0        7.546717   -1.415472   -0.328460
     24          1           0        5.243109   -0.301178   -1.386086
     25          1           0        6.081817    0.931146   -0.448500
     26          1           0        5.605978   -1.950280    0.459210
     27          1           0        6.444468   -0.718190    1.395419
     28          1           0        8.197468   -0.538150   -0.402149
     29          1           0        7.354214   -1.777242   -1.343677
     30          1           0        8.090051   -2.196400    0.212652
     31          6           0        4.140854    0.404335    0.326964
     32          6           0        3.358217    1.494162   -0.406346
     33          6           0        2.047609    1.853760    0.294218
     34          1           0        3.512509   -0.492858    0.414258
     35          1           0        4.351218    0.739466    1.351845
     36          1           0        3.149859    1.156477   -1.429660
     37          1           0        3.988349    2.388568   -0.493452
     38          1           0        2.240112    2.215530    1.309436
     39          1           0        1.396858    0.976438    0.367907
     40          1           0        1.504276    2.634686   -0.246894
 ---------------------------------------------------------------------

 SCF Done:  E(RHF) =  -470.733160483     A.U. after   11 cycles
 E2 =    -0.1582160735D+01 EUMP2 =    -0.47231532121755D+03

 The electronic state is 1-A.
 Alpha  occ. eigenvalues --  -11.21596 -11.21591 -11.21584 -11.21565 -11.21397
 Alpha  occ. eigenvalues --  -11.21380 -11.21338 -11.21320 -11.21067 -11.21058
 Alpha  occ. eigenvalues --  -11.21042 -11.20986  -1.08423  -1.08403  -1.03532
 Alpha  occ. eigenvalues --   -1.03490  -0.96005  -0.95917  -0.87050  -0.86909
 Alpha  occ. eigenvalues --   -0.79632  -0.79517  -0.78237  -0.78213  -0.65054
 Alpha  occ. eigenvalues --   -0.65036  -0.60947  -0.60897  -0.59358  -0.59316
 Alpha  occ. eigenvalues --   -0.57632  -0.57520  -0.55301  -0.55208  -0.52804
 Alpha  occ. eigenvalues --   -0.52613  -0.52406  -0.52266  -0.49943  -0.49827
 Alpha  occ. eigenvalues --   -0.47932  -0.47844  -0.46635  -0.46572  -0.45778
 Alpha  occ. eigenvalues --   -0.45758  -0.45701  -0.45682  -0.43771  -0.43720
 Alpha virt. eigenvalues --    0.22360   0.22979   0.23637   0.24789   0.26389
 Alpha virt. eigenvalues --    0.26658   0.27075   0.27513   0.27658   0.28814
 Alpha virt. eigenvalues --    0.30377   0.31396   0.31729   0.31874   0.32021

 Mulliken charges:
               1
     1  C   -0.298245
     2  C   -0.299623
     3  C   -0.475695
     4  H    0.149668
     5  H    0.149447
     6  H    0.151963
     7  H    0.151911
     8  H    0.155148
     9  H    0.155183
    10  H    0.160239
    11  C   -0.298634
    12  C   -0.299336
    13  C   -0.479966
    14  H    0.149657
    15  H    0.149560
    16  H    0.152194
    17  H    0.151577
    18  H    0.154643
    19  H    0.156269
    20  H    0.164487
    21  C   -0.298263
    22  C   -0.299641
    23  C   -0.475690
    24  H    0.149533
    25  H    0.149478
    26  H    0.151933
    27  H    0.151940
    28  H    0.155153
    29  H    0.155131
    30  H    0.160202
    31  C   -0.298334
    32  C   -0.299495
    33  C   -0.481752
    34  H    0.149639
    35  H    0.149684
    36  H    0.151414
    37  H    0.151713
    38  H    0.154991
    39  H    0.162339
    40  H    0.159577
 Sum of Mulliken charges =  -0.00000

 Dipole moment (field-independent basis, Debye):
    X=             -0.0149    Y=             -0.0024    Z=              0.0097  Tot=              0.0179
 Quadrupole moment (field-independent basis, Debye-Ang):
   XX=            -86.6432   YY=            -83.4311   ZZ=            -84.8357
   XY=              0.6676   XZ=              0.1746   YZ=              0.5198

 Normal termination of Gaussian 16 at Thu May  6 00:30:39 2021.
