 Gaussian 16, Revision A.03,
 Gaussian 16:  EM64L-G16RevA.03 25-Dec-2016

 -------------
 #p 6-31g* mp2
 -------------

 ------------------------------------------------------
 Input file generated by CHIRIPA (05-May-2021 14:55:25)
 ------------------------------------------------------
 Symbolic Z-matrix:
 Charge =  0 Multiplicity = 1

                         Standard orientation:
 ---------------------------------------------------------------------
 Center     Atomic      Atomic             Coordinates (Angstroms)
 Number     Number       Type             X           Y           Z
 ---------------------------------------------------------------------
      1          6           0        4.366320    0.965725   -0.392514
      2          6           0        3.411121    1.366005    0.547641
      3          6           0        2.319372    0.544703    0.844449
      4          6           0        2.213521   -0.675838    0.179343
      5          6           0        3.148670   -1.102591   -0.762288
      6          6           0        4.232282   -0.265126   -1.043331
      7          1           0        5.211256    1.610009   -0.616958
      8          1           0        3.512655    2.321365    1.054616
      9          1           0        1.565295    0.829930    1.567934
     10          1           0        3.020465   -2.060579   -1.251409
     11          1           0        4.972572   -0.578573   -1.773924
     12          7           0        1.062042   -1.553869    0.485215
     13          8           0        0.991575   -2.624406   -0.114469
     14          8           0        0.251784   -1.154906    1.318851
     15          6           0       -3.479347    0.150082   -0.539566
     16          6           0       -3.853195   -1.052654    0.327411
     17          6           0       -4.659467   -2.103839   -0.435957
     18          1           0       -4.396144    0.606575   -0.937112
     19          1           0       -2.901674   -0.197591   -1.407213
     20          1           0       -4.428808   -0.702659    1.193891
     21          1           0       -2.935410   -1.506221    0.723093
     22          1           0       -4.088913   -2.480982   -1.290845
     23          1           0       -5.590797   -1.672854   -0.817373
     24          1           0       -4.916012   -2.954808    0.202710
     25          6           0       -2.673098    1.209604    0.209502
     26          6           0       -2.299250    2.412340   -0.657475
     27          6           0       -1.492978    3.463525    0.105893
     28          1           0       -3.250771    1.557277    1.077149
     29          1           0       -1.756300    0.753111    0.607047
     30          1           0       -3.217034    2.865907   -1.053158
     31          1           0       -1.723637    2.062345   -1.523955
     32          1           0       -0.561648    3.032540    0.487308
     33          1           0       -2.063532    3.840669    0.960780
     34          1           0       -1.236433    4.314494   -0.532774
 ---------------------------------------------------------------------

 SCF Done:  E(RHF) =  -669.536790688     A.U. after   15 cycles
 E2 =    -0.2092097659D+01 EUMP2 =    -0.67162888834696D+03

 The electronic state is 1-A.
 Alpha  occ. eigenvalues --  -20.61112 -20.61100 -15.86108 -11.31374 -11.27927
 Alpha  occ. eigenvalues --  -11.27923 -11.27648 -11.26922 -11.26912 -11.21130
 Alpha  occ. eigenvalues --  -11.20925 -11.20469 -11.20411 -11.20321 -11.20030
 Alpha  occ. eigenvalues --   -1.60150  -1.39708  -1.19534  -1.08949  -1.07573
 Alpha  occ. eigenvalues --   -1.04920  -1.02757  -0.95800  -0.95239  -0.86323
 Alpha  occ. eigenvalues --   -0.86272  -0.82636  -0.78833  -0.77710  -0.77304
 Alpha  occ. eigenvalues --   -0.72332  -0.71454  -0.70640  -0.65192  -0.64921
 Alpha  occ. eigenvalues --   -0.64193  -0.62269  -0.60153  -0.58648  -0.56823
 Alpha  occ. eigenvalues --   -0.55426  -0.54541  -0.53250  -0.53009  -0.51982
 Alpha  occ. eigenvalues --   -0.51672  -0.49264  -0.49091  -0.49060  -0.47150
 Alpha  occ. eigenvalues --   -0.45874  -0.45340  -0.44880  -0.44425  -0.42974
 Alpha  occ. eigenvalues --   -0.37505  -0.36515
 Alpha virt. eigenvalues --    0.04761   0.11103   0.16237   0.20801   0.23421
 Alpha virt. eigenvalues --    0.24736   0.26351   0.27481   0.27856   0.28775
 Alpha virt. eigenvalues --    0.29198   0.30966   0.31526   0.32232   0.32718

 Mulliken charges:
               1
     1  C   -0.170383
     2  C   -0.218385
     3  C   -0.172120
     4  C    0.158210
     5  C   -0.170732
     6  C   -0.218438
     7  H    0.226452
     8  H    0.224736
     9  H    0.277038
    10  H    0.275930
    11  H    0.224159
    12  N    0.488679
    13  O   -0.457821
    14  O   -0.460108
    15  C   -0.296029
    16  C   -0.306729
    17  C   -0.475016
    18  H    0.144235
    19  H    0.147825
    20  H    0.146900
    21  H    0.174749
    22  H    0.155644
    23  H    0.149535
    24  H    0.159369
    25  C   -0.308964
    26  C   -0.298570
    27  C   -0.473381
    28  H    0.146112
    29  H    0.168057
    30  H    0.150481
    31  H    0.149345
    32  H    0.146519
    33  H    0.155575
    34  H    0.157124
 Sum of Mulliken charges =  -0.00000

 Dipole moment (field-independent basis, Debye):
    X=              4.3343    Y=              2.8839    Z=             -0.9994  Tot=              5.3012
 Quadrupole moment (field-independent basis, Debye-Ang):
   XX=            -77.0751   YY=            -97.9520   ZZ=            -93.6607
   XY=              2.2694   XZ=             -3.8481   YZ=              3.6491

 Normal termination of Gaussian 16 at Thu May  6 20:58:31 2021.
