 Gaussian 16, Revision A.03,
 Gaussian 16:  EM64L-G16RevA.03 25-Dec-2016

 -------------
 #p 6-31g* mp2
 -------------

 ------------------------------------------------------
 Input file generated by CHIRIPA (05-May-2021 14:57:23)
 ------------------------------------------------------
 Symbolic Z-matrix:
 Charge =  0 Multiplicity = 1

                         Standard orientation:
 ---------------------------------------------------------------------
 Center     Atomic      Atomic             Coordinates (Angstroms)
 Number     Number       Type             X           Y           Z
 ---------------------------------------------------------------------
      1          6           0       -1.813424   -0.086377    1.447112
      2          6           0       -2.754573   -1.110230    1.597065
      3          6           0       -3.917536   -1.124825    0.821275
      4          6           0       -4.108154   -0.095228   -0.098989
      5          6           0       -3.189141    0.938649   -0.271625
      6          6           0       -2.033324    0.932997    0.514889
      7          1           0       -0.912782   -0.082904    2.053930
      8          1           0       -2.586429   -1.903182    2.320253
      9          1           0       -4.662621   -1.905292    0.916862
     10          1           0       -3.384505    1.715489   -1.000851
     11          1           0       -1.304143    1.729410    0.396285
     12          7           0       -5.335548   -0.099962   -0.925960
     13          8           0       -5.480054    0.818608   -1.729691
     14          8           0       -6.129833   -1.022152   -0.754750
     15          6           0        5.449251   -1.625353   -1.050305
     16          6           0        5.518645   -0.291485   -1.465637
     17          6           0        4.668408    0.669920   -0.911250
     18          6           0        3.756655    0.260712    0.060627
     19          6           0        3.663367   -1.060515    0.495305
     20          6           0        4.523465   -2.004942   -0.072883
     21          1           0        6.113565   -2.365601   -1.486326
     22          1           0        6.236639    0.006177   -2.224535
     23          1           0        4.700824    1.709385   -1.214368
     24          1           0        2.937276   -1.327014    1.253717
     25          1           0        4.467339   -3.040127    0.251601
     26          7           0        2.851328    1.269521    0.654837
     27          8           0        2.056819    0.883489    1.509454
     28          8           0        2.953384    2.427157    0.254709
 ---------------------------------------------------------------------

 SCF Done:  E(RHF) =  -868.340387263     A.U. after   16 cycles
 E2 =    -0.2598254001D+01 EUMP2 =    -0.87093864126374D+03

 The electronic state is 1-A.
 Alpha  occ. eigenvalues --  -20.61895 -20.61835 -20.60207 -20.60199 -15.86898
 Alpha  occ. eigenvalues --  -15.85253 -11.31957 -11.30444 -11.28517 -11.28467
 Alpha  occ. eigenvalues --  -11.28161 -11.27440 -11.27412 -11.27039 -11.26953
 Alpha  occ. eigenvalues --  -11.26522 -11.25983 -11.25787  -1.60928  -1.59286
 Alpha  occ. eigenvalues --   -1.40492  -1.38845  -1.20098  -1.18582  -1.09546
 Alpha  occ. eigenvalues --   -1.07972  -1.05458  -1.03961  -0.96435  -0.94843
 Alpha  occ. eigenvalues --   -0.86869  -0.85339  -0.83284  -0.81690  -0.78366
 Alpha  occ. eigenvalues --   -0.76793  -0.73139  -0.72228  -0.71472  -0.71203
 Alpha  occ. eigenvalues --   -0.70610  -0.69583  -0.65756  -0.65456  -0.64210
 Alpha  occ. eigenvalues --   -0.63921  -0.62814  -0.61309  -0.55960  -0.54325
 Alpha  occ. eigenvalues --   -0.53797  -0.53546  -0.52308  -0.52020  -0.49899
 Alpha  occ. eigenvalues --   -0.49848  -0.48240  -0.48212  -0.45960  -0.44290
 Alpha  occ. eigenvalues --   -0.38052  -0.37045  -0.36512  -0.35588
 Alpha virt. eigenvalues --    0.04133   0.05735   0.10615   0.12079   0.15679
 Alpha virt. eigenvalues --    0.17291   0.20715   0.22407   0.26658   0.27417
 Alpha virt. eigenvalues --    0.28213   0.29215   0.30507   0.31496   0.32660

 Mulliken charges:
               1
     1  C   -0.176084
     2  C   -0.220478
     3  C   -0.172353
     4  C    0.157324
     5  C   -0.172756
     6  C   -0.222936
     7  H    0.241670
     8  H    0.219217
     9  H    0.272155
    10  H    0.273833
    11  H    0.235233
    12  N    0.488213
    13  O   -0.461988
    14  O   -0.463268
    15  C   -0.169537
    16  C   -0.218302
    17  C   -0.170178
    18  C    0.157979
    19  C   -0.169764
    20  C   -0.218117
    21  H    0.228479
    22  H    0.226202
    23  H    0.276876
    24  H    0.271876
    25  H    0.225220
    26  N    0.491077
    27  O   -0.473272
    28  O   -0.456320
 Sum of Mulliken charges =  -0.00000

 Dipole moment (field-independent basis, Debye):
    X=              8.0759    Y=             -3.4543    Z=              0.7677  Tot=              8.8171
 Quadrupole moment (field-independent basis, Debye-Ang):
   XX=           -116.4617   YY=           -100.9463   ZZ=           -104.1631
   XY=            -10.5468   XZ=            -22.9549   YZ=             -5.4634

 Normal termination of Gaussian 16 at Fri May  7 01:50:25 2021.
