 Gaussian 16, Revision A.03,
 Gaussian 16:  EM64L-G16RevA.03 25-Dec-2016

 -------------
 #p 6-31g* mp2
 -------------

 ------------------------------------------------------
 Input file generated by CHIRIPA (05-May-2021 14:53:14)
 ------------------------------------------------------
 Symbolic Z-matrix:
 Charge =  0 Multiplicity = 1

                         Standard orientation:
 ---------------------------------------------------------------------
 Center     Atomic      Atomic             Coordinates (Angstroms)
 Number     Number       Type             X           Y           Z
 ---------------------------------------------------------------------
      1          6           0       -4.914189   -0.243633   -0.270201
      2          6           0       -5.455687   -1.227838    0.767153
      3          6           0       -6.794627   -1.841760    0.357110
      4          1           0       -5.651972    0.554750   -0.428967
      5          1           0       -4.801776   -0.761302   -1.232894
      6          1           0       -5.565738   -0.708821    1.727948
      7          1           0       -4.716447   -2.023866    0.923609
      8          1           0       -6.696200   -2.384051   -0.588846
      9          1           0       -7.550316   -1.061534    0.220063
     10          1           0       -7.163379   -2.542201    1.112930
     11          6           0       -3.576214    0.378454    0.125475
     12          6           0       -3.034715    1.362658   -0.911880
     13          6           0       -1.695775    1.976580   -0.501837
     14          1           0       -3.688626    0.896122    1.088167
     15          1           0       -2.838431   -0.419929    0.284241
     16          1           0       -3.773955    2.158687   -1.068336
     17          1           0       -2.924664    0.843641   -1.872675
     18          1           0       -0.940086    1.196354   -0.364789
     19          1           0       -1.794202    2.518872    0.444119
     20          1           0       -1.327024    2.677022   -1.257657
     21          6           0        1.935838    2.018027    0.470970
     22          6           0        1.873541    1.371497   -0.767836
     23          6           0        2.634168    0.223444   -1.008605
     24          6           0        3.450047   -0.252851    0.016468
     25          6           0        3.533721    0.368950    1.261318
     26          6           0        2.764268    1.515575    1.479815
     27          1           0        1.341535    2.909307    0.649354
     28          1           0        1.231050    1.759459   -1.553161
     29          1           0        2.605005   -0.296799   -1.958296
     30          1           0        4.183452   -0.041480    2.024740
     31          1           0        2.814646    2.015611    2.442868
     32          7           0        4.259960   -1.467488   -0.226635
     33          8           0        4.970929   -1.867103    0.692859
     34          8           0        4.168466   -1.996904   -1.332068
 ---------------------------------------------------------------------

 SCF Done:  E(RHF) =  -669.534615211     A.U. after   15 cycles
 E2 =    -0.2092175002D+01 EUMP2 =    -0.67162679021260D+03

 The electronic state is 1-A.
 Alpha  occ. eigenvalues --  -20.60741 -20.60736 -15.85794 -11.31149 -11.27717
 Alpha  occ. eigenvalues --  -11.27701 -11.27420 -11.26723 -11.26662 -11.22299
 Alpha  occ. eigenvalues --  -11.22018 -11.21911 -11.21899 -11.21761 -11.21309
 Alpha  occ. eigenvalues --   -1.59817  -1.39371  -1.19322  -1.08929  -1.08711
 Alpha  occ. eigenvalues --   -1.04729  -1.04067  -0.96555  -0.95544  -0.87600
 Alpha  occ. eigenvalues --   -0.86103  -0.82380  -0.80155  -0.78702  -0.77432
 Alpha  occ. eigenvalues --   -0.72012  -0.71141  -0.70407  -0.65568  -0.64967
 Alpha  occ. eigenvalues --   -0.64733  -0.62114  -0.61430  -0.59937  -0.58138
 Alpha  occ. eigenvalues --   -0.55869  -0.55182  -0.53394  -0.53193  -0.52785
 Alpha  occ. eigenvalues --   -0.52730  -0.50441  -0.48769  -0.48766  -0.48451
 Alpha  occ. eigenvalues --   -0.47146  -0.46254  -0.46150  -0.44779  -0.44319
 Alpha  occ. eigenvalues --   -0.37246  -0.36302
 Alpha virt. eigenvalues --    0.05090   0.11245   0.16564   0.20632   0.22492
 Alpha virt. eigenvalues --    0.23898   0.26075   0.26284   0.26976   0.27788
 Alpha virt. eigenvalues --    0.28852   0.29914   0.31194   0.31531   0.31896

 Mulliken charges:
               1
     1  C   -0.298815
     2  C   -0.300168
     3  C   -0.476020
     4  H    0.149969
     5  H    0.150656
     6  H    0.151875
     7  H    0.153396
     8  H    0.156018
     9  H    0.155199
    10  H    0.161479
    11  C   -0.299258
    12  C   -0.299219
    13  C   -0.486302
    14  H    0.149458
    15  H    0.152097
    16  H    0.153514
    17  H    0.153141
    18  H    0.164412
    19  H    0.153842
    20  H    0.152506
    21  C   -0.169674
    22  C   -0.219970
    23  C   -0.173552
    24  C    0.158434
    25  C   -0.171124
    26  C   -0.218998
    27  H    0.228145
    28  H    0.228111
    29  H    0.275318
    30  H    0.275401
    31  H    0.223253
    32  N    0.488097
    33  O   -0.460571
    34  O   -0.460651
 Sum of Mulliken charges =  -0.00000

 Dipole moment (field-independent basis, Debye):
    X=             -2.9784    Y=              4.2325    Z=              0.8866  Tot=              5.2508
 Quadrupole moment (field-independent basis, Debye-Ang):
   XX=           -114.8545   YY=            -97.4710   ZZ=            -90.3685
   XY=             15.0746   XZ=              4.5162   YZ=              0.5623

 Normal termination of Gaussian 16 at Thu May  6 13:45:45 2021.
