 Gaussian 16, Revision A.03,
 Gaussian 16:  EM64L-G16RevA.03 25-Dec-2016

 -------------
 #p 6-31g* mp2
 -------------

 ------------------------------------------------------
 Input file generated by CHIRIPA (05-May-2021 14:57:22)
 ------------------------------------------------------
 Symbolic Z-matrix:
 Charge =  0 Multiplicity = 1

                         Standard orientation:
 ---------------------------------------------------------------------
 Center     Atomic      Atomic             Coordinates (Angstroms)
 Number     Number       Type             X           Y           Z
 ---------------------------------------------------------------------
      1          6           0       -2.315005   -2.020988    0.692242
      2          6           0       -3.683813   -2.098761    0.969435
      3          6           0       -4.542753   -1.058472    0.602598
      4          6           0       -3.996564    0.049810   -0.042908
      5          6           0       -2.637246    0.156745   -0.332927
      6          6           0       -1.797003   -0.895467    0.043090
      7          1           0       -1.655022   -2.833741    0.980776
      8          1           0       -4.088883   -2.971644    1.473458
      9          1           0       -5.606374   -1.092698    0.804975
     10          1           0       -2.262778    1.039647   -0.836591
     11          1           0       -0.734381   -0.832344   -0.173462
     12          7           0       -4.895988    1.157429   -0.436121
     13          8           0       -4.390035    2.123047   -1.003774
     14          8           0       -6.089878    1.038989   -0.169222
     15          6           0        3.870883    2.556400    0.679014
     16          6           0        2.653993    1.886642    0.514314
     17          6           0        2.629500    0.543754    0.126244
     18          6           0        3.846147   -0.101572   -0.089661
     19          6           0        5.074755    0.538381    0.066133
     20          6           0        5.075256    1.881323    0.454793
     21          1           0        3.880590    3.599609    0.980707
     22          1           0        1.717116    2.408394    0.687755
     23          1           0        1.701712    0.001122   -0.008587
     24          1           0        5.992406   -0.008304   -0.114063
     25          1           0        6.021806    2.398937    0.581933
     26          7           0        3.832917   -1.523255   -0.500806
     27          8           0        4.918525   -2.069349   -0.684853
     28          8           0        2.737190   -2.064558   -0.631229
 ---------------------------------------------------------------------

 SCF Done:  E(RHF) =  -868.338104920     A.U. after   16 cycles
 E2 =    -0.2599145889D+01 EUMP2 =    -0.87093725080836D+03

 The electronic state is 1-A.
 Alpha  occ. eigenvalues --  -20.61518 -20.61475 -20.60872 -20.60860 -15.86549
 Alpha  occ. eigenvalues --  -15.85923 -11.31844 -11.31249 -11.28499 -11.28337
 Alpha  occ. eigenvalues --  -11.28051 -11.27864 -11.27800 -11.27475 -11.27388
 Alpha  occ. eigenvalues --  -11.27327 -11.26843 -11.26765  -1.60567  -1.59945
 Alpha  occ. eigenvalues --   -1.40129  -1.39501  -1.19989  -1.19414  -1.09381
 Alpha  occ. eigenvalues --   -1.08794  -1.05390  -1.04827  -0.96242  -0.95639
 Alpha  occ. eigenvalues --   -0.86787  -0.86208  -0.83084  -0.82489  -0.78165
 Alpha  occ. eigenvalues --   -0.77556  -0.72773  -0.72140  -0.71882  -0.71269
 Alpha  occ. eigenvalues --   -0.71099  -0.70473  -0.65642  -0.65409  -0.65061
 Alpha  occ. eigenvalues --   -0.64815  -0.62786  -0.62151  -0.55856  -0.55248
 Alpha  occ. eigenvalues --   -0.53702  -0.53511  -0.53138  -0.52881  -0.49544
 Alpha  occ. eigenvalues --   -0.49504  -0.48901  -0.48892  -0.45550  -0.44916
 Alpha  occ. eigenvalues --   -0.37930  -0.37352  -0.36983  -0.36438
 Alpha virt. eigenvalues --    0.04393   0.04996   0.10677   0.11218   0.15925
 Alpha virt. eigenvalues --    0.16489   0.18532   0.22003   0.24559   0.27201
 Alpha virt. eigenvalues --    0.28334   0.29202   0.29774   0.31065   0.32140

 Mulliken charges:
               1
     1  C   -0.172185
     2  C   -0.218819
     3  C   -0.170714
     4  C    0.158693
     5  C   -0.174113
     6  C   -0.225995
     7  H    0.233397
     8  H    0.224784
     9  H    0.275819
    10  H    0.271780
    11  H    0.231396
    12  N    0.488253
    13  O   -0.462328
    14  O   -0.459817
    15  C   -0.169843
    16  C   -0.221263
    17  C   -0.176077
    18  C    0.158320
    19  C   -0.169323
    20  C   -0.218354
    21  H    0.229069
    22  H    0.225657
    23  H    0.274972
    24  H    0.277300
    25  H    0.226144
    26  N    0.487516
    27  O   -0.456099
    28  O   -0.468171
 Sum of Mulliken charges =  -0.00000

 Dipole moment (field-independent basis, Debye):
    X=              3.4186    Y=              1.0909    Z=              2.9103  Tot=              4.6202
 Quadrupole moment (field-independent basis, Debye-Ang):
   XX=           -120.6742   YY=           -105.5432   ZZ=           -106.0593
   XY=             38.2513   XZ=             -1.9816   YZ=             -1.4417

 Normal termination of Gaussian 16 at Fri May  7 01:47:22 2021.
