 Gaussian 16, Revision A.03,
 Gaussian 16:  EM64L-G16RevA.03 25-Dec-2016

 -------------
 #p 6-31g* mp2
 -------------

 ------------------------------------------------------
 Input file generated by CHIRIPA (05-May-2021 14:57:23)
 ------------------------------------------------------
 Symbolic Z-matrix:
 Charge =  0 Multiplicity = 1

                         Standard orientation:
 ---------------------------------------------------------------------
 Center     Atomic      Atomic             Coordinates (Angstroms)
 Number     Number       Type             X           Y           Z
 ---------------------------------------------------------------------
      1          6           0        1.454875   -1.564316    0.632941
      2          6           0        2.670527   -1.745098    1.300796
      3          6           0        3.798602   -1.004758    0.934885
      4          6           0        3.674797   -0.088124   -0.108064
      5          6           0        2.477535    0.114688   -0.792696
      6          6           0        1.362422   -0.636636   -0.409835
      7          1           0        0.583594   -2.143697    0.923773
      8          1           0        2.745258   -2.464840    2.111000
      9          1           0        4.752003   -1.124687    1.434947
     10          1           0        2.433925    0.839606   -1.596444
     11          1           0        0.419618   -0.494139   -0.930278
     12          7           0        4.862179    0.701456   -0.504410
     13          8           0        4.727031    1.502728   -1.426546
     14          8           0        5.905513    0.504105    0.114575
     15          6           0       -2.848114    2.530024    0.832365
     16          6           0       -4.097429    2.308090    0.243741
     17          6           0       -4.457696    1.031329   -0.197439
     18          6           0       -3.540104   -0.005237   -0.033596
     19          6           0       -2.287896    0.184137    0.548987
     20          6           0       -1.948920    1.469210    0.982844
     21          1           0       -2.576520    3.525071    1.172239
     22          1           0       -4.797763    3.130049    0.125590
     23          1           0       -5.418270    0.831505   -0.656553
     24          1           0       -1.610920   -0.655065    0.653204
     25          1           0       -0.977993    1.638631    1.439618
     26          7           0       -3.910232   -1.361287   -0.496777
     27          8           0       -3.083976   -2.257760   -0.340980
     28          8           0       -5.019587   -1.502007   -1.006845
 ---------------------------------------------------------------------

 SCF Done:  E(RHF) =  -868.337958434     A.U. after   16 cycles
 E2 =    -0.2600718921D+01 EUMP2 =    -0.87093867735523D+03

 The electronic state is 1-A.
 Alpha  occ. eigenvalues --  -20.61635 -20.61591 -20.61053 -20.61046 -15.86664
 Alpha  occ. eigenvalues --  -15.86106 -11.32004 -11.31522 -11.28617 -11.28477
 Alpha  occ. eigenvalues --  -11.28182 -11.28094 -11.28072 -11.27821 -11.27525
 Alpha  occ. eigenvalues --  -11.27482 -11.27096 -11.27081  -1.60684  -1.60127
 Alpha  occ. eigenvalues --   -1.40244  -1.39678  -1.20143  -1.19696  -1.09522
 Alpha  occ. eigenvalues --   -1.09085  -1.05545  -1.05092  -0.96380  -0.95907
 Alpha  occ. eigenvalues --   -0.86941  -0.86489  -0.83209  -0.82728  -0.78302
 Alpha  occ. eigenvalues --   -0.77762  -0.72883  -0.72323  -0.72006  -0.71453
 Alpha  occ. eigenvalues --   -0.71285  -0.70750  -0.65791  -0.65588  -0.65324
 Alpha  occ. eigenvalues --   -0.65053  -0.62928  -0.62358  -0.55993  -0.55580
 Alpha  occ. eigenvalues --   -0.53886  -0.53619  -0.53426  -0.53127  -0.49656
 Alpha  occ. eigenvalues --   -0.49617  -0.49083  -0.49075  -0.45654  -0.45072
 Alpha  occ. eigenvalues --   -0.38083  -0.37704  -0.37165  -0.36664
 Alpha virt. eigenvalues --    0.04209   0.04740   0.10438   0.10851   0.15732
 Alpha virt. eigenvalues --    0.16221   0.19501   0.21795   0.25272   0.27119
 Alpha virt. eigenvalues --    0.27225   0.29015   0.30156   0.30899   0.31747

 Mulliken charges:
               1
     1  C   -0.180621
     2  C   -0.218181
     3  C   -0.170990
     4  C    0.158421
     5  C   -0.172702
     6  C   -0.225737
     7  H    0.233736
     8  H    0.226070
     9  H    0.276759
    10  H    0.276504
    11  H    0.228598
    12  N    0.487991
    13  O   -0.460120
    14  O   -0.459360
    15  C   -0.170398
    16  C   -0.217594
    17  C   -0.170060
    18  C    0.159978
    19  C   -0.180400
    20  C   -0.221119
    21  H    0.229700
    22  H    0.226917
    23  H    0.277861
    24  H    0.270046
    25  H    0.228757
    26  N    0.488142
    27  O   -0.466837
    28  O   -0.455359
 Sum of Mulliken charges =  -0.00000

 Dipole moment (field-independent basis, Debye):
    X=             -2.9907    Y=              2.1240    Z=              3.0384  Tot=              4.7631
 Quadrupole moment (field-independent basis, Debye-Ang):
   XX=           -138.7608   YY=           -103.3407   ZZ=           -103.3285
   XY=            -30.7991   XZ=              3.6105   YZ=             -2.3963

 Normal termination of Gaussian 16 at Thu May  6 12:59:29 2021.
