 Gaussian 16, Revision A.03,
 Gaussian 16:  EM64L-G16RevA.03 25-Dec-2016

 -------------
 #p 6-31g* mp2
 -------------

 ------------------------------------------------------
 Input file generated by CHIRIPA (05-May-2021 14:55:21)
 ------------------------------------------------------
 Symbolic Z-matrix:
 Charge =  0 Multiplicity = 1

                         Standard orientation:
 ---------------------------------------------------------------------
 Center     Atomic      Atomic             Coordinates (Angstroms)
 Number     Number       Type             X           Y           Z
 ---------------------------------------------------------------------
      1          6           0        0.943121   -1.404883    1.882326
      2          6           0        0.718185   -0.042601    1.658467
      3          6           0        1.505506    0.666552    0.746449
      4          6           0        2.513635   -0.021141    0.072621
      5          6           0        2.762332   -1.377950    0.273886
      6          6           0        1.962679   -2.067042    1.190540
      7          1           0        0.326721   -1.947978    2.592604
      8          1           0       -0.072907    0.474228    2.194291
      9          1           0        1.353064    1.721596    0.553936
     10          1           0        3.558418   -1.865895   -0.275272
     11          1           0        2.139641   -3.124965    1.362378
     12          7           0        3.353665    0.718989   -0.895346
     13          8           0        4.235507    0.090120   -1.476307
     14          8           0        3.114332    1.913956   -1.054748
     15          6           0       -3.471055   -0.435578   -0.419415
     16          6           0       -2.662777   -1.664067   -0.838329
     17          6           0       -3.538631   -2.893956   -1.079260
     18          1           0       -4.035721   -0.669876    0.493384
     19          1           0       -4.213794   -0.211207   -1.197484
     20          1           0       -1.920860   -1.885226   -0.060343
     21          1           0       -2.099821   -1.426757   -1.750129
     22          1           0       -4.269542   -2.697404   -1.870296
     23          1           0       -4.089564   -3.158478   -0.170909
     24          1           0       -2.940480   -3.760552   -1.377732
     25          6           0       -2.609427    0.801973   -0.174898
     26          6           0       -3.417705    2.030462    0.244016
     27          6           0       -2.541850    3.260351    0.484947
     28          1           0       -1.866688    0.577602    0.603172
     29          1           0       -2.044761    1.036271   -1.087696
     30          1           0       -3.980661    1.793152    1.155817
     31          1           0       -4.159622    2.251621   -0.533970
     32          1           0       -1.990918    3.524873   -0.423404
     33          1           0       -1.810940    3.063799    1.275984
     34          1           0       -3.140002    4.126947    0.783420
 ---------------------------------------------------------------------

 SCF Done:  E(RHF) =  -669.534887230     A.U. after   15 cycles
 E2 =    -0.2093198731D+01 EUMP2 =    -0.67162808596175D+03

 The electronic state is 1-A.
 Alpha  occ. eigenvalues --  -20.60785 -20.60779 -15.85838 -11.31220 -11.27784
 Alpha  occ. eigenvalues --  -11.27776 -11.27555 -11.26822 -11.26811 -11.22083
 Alpha  occ. eigenvalues --  -11.21973 -11.21849 -11.21788 -11.21626 -11.21451
 Alpha  occ. eigenvalues --   -1.59859  -1.39412  -1.19400  -1.08903  -1.08787
 Alpha  occ. eigenvalues --   -1.04807  -1.03985  -0.96440  -0.95624  -0.87456
 Alpha  occ. eigenvalues --   -0.86210  -0.82463  -0.80037  -0.78720  -0.77485
 Alpha  occ. eigenvalues --   -0.72057  -0.71182  -0.70506  -0.65613  -0.65055
 Alpha  occ. eigenvalues --   -0.64773  -0.62168  -0.61375  -0.59799  -0.58048
 Alpha  occ. eigenvalues --   -0.55755  -0.55310  -0.53237  -0.53062  -0.52969
 Alpha  occ. eigenvalues --   -0.52779  -0.50390  -0.48821  -0.48809  -0.48355
 Alpha  occ. eigenvalues --   -0.47076  -0.46229  -0.46165  -0.44813  -0.44230
 Alpha  occ. eigenvalues --   -0.37357  -0.36334
 Alpha virt. eigenvalues --    0.05013   0.11150   0.16390   0.19573   0.22913
 Alpha virt. eigenvalues --    0.23424   0.25627   0.26537   0.27168   0.28569
 Alpha virt. eigenvalues --    0.29156   0.29946   0.31321   0.31565   0.32384

 Mulliken charges:
               1
     1  C   -0.172137
     2  C   -0.216246
     3  C   -0.169531
     4  C    0.158526
     5  C   -0.170626
     6  C   -0.218498
     7  H    0.225813
     8  H    0.223645
     9  H    0.276887
    10  H    0.275752
    11  H    0.223740
    12  N    0.488009
    13  O   -0.460390
    14  O   -0.460137
    15  C   -0.298365
    16  C   -0.300667
    17  C   -0.475993
    18  H    0.147044
    19  H    0.151935
    20  H    0.148838
    21  H    0.155522
    22  H    0.157194
    23  H    0.153302
    24  H    0.160315
    25  C   -0.302640
    26  C   -0.300092
    27  C   -0.475710
    28  H    0.145108
    29  H    0.154238
    30  H    0.150230
    31  H    0.155297
    32  H    0.160787
    33  H    0.145012
    34  H    0.163837
 Sum of Mulliken charges =  -0.00000

 Dipole moment (field-independent basis, Debye):
    X=             -2.9546    Y=             -2.5791    Z=              3.3072  Tot=              5.1302
 Quadrupole moment (field-independent basis, Debye-Ang):
   XX=           -109.0881   YY=            -92.0889   ZZ=            -93.8399
   XY=             -9.7495   XZ=              8.1131   YZ=              0.0144

 Normal termination of Gaussian 16 at Wed May  5 23:51:43 2021.
