 Gaussian 16, Revision A.03,
 Gaussian 16:  EM64L-G16RevA.03 25-Dec-2016

 -------------
 #p 6-31g* mp2
 -------------

 ------------------------------------------------------
 Input file generated by CHIRIPA (05-May-2021 14:55:21)
 ------------------------------------------------------
 Symbolic Z-matrix:
 Charge =  0 Multiplicity = 1

                         Standard orientation:
 ---------------------------------------------------------------------
 Center     Atomic      Atomic             Coordinates (Angstroms)
 Number     Number       Type             X           Y           Z
 ---------------------------------------------------------------------
      1          6           0        4.222515    0.585714   -0.799861
      2          6           0        3.570723    1.165097    0.293759
      3          6           0        2.444057    0.555263    0.853467
      4          6           0        1.994280   -0.638742    0.291912
      5          6           0        2.621981   -1.240654   -0.797576
      6          6           0        3.746902   -0.613198   -1.341084
      7          1           0        5.097058    1.066292   -1.228363
      8          1           0        3.937862    2.096142    0.716144
      9          1           0        1.920318    0.982044    1.700210
     10          1           0        2.232522   -2.169254   -1.196878
     11          1           0        4.251085   -1.065435   -2.190393
     12          7           0        0.802453   -1.293673    0.875874
     13          8           0        0.426020   -2.345181    0.362779
     14          8           0        0.267299   -0.743100    1.835622
     15          6           0       -3.101784    0.055889    0.075154
     16          6           0       -3.609524   -0.972548   -0.936034
     17          6           0       -4.202172   -2.214361   -0.269355
     18          1           0       -2.344425   -0.413900    0.717534
     19          1           0       -3.930015    0.352109    0.733702
     20          1           0       -2.780913   -1.265707   -1.593360
     21          1           0       -4.365624   -0.500202   -1.576204
     22          1           0       -5.046271   -1.941415    0.372205
     23          1           0       -3.452556   -2.711269    0.354952
     24          1           0       -4.558940   -2.936314   -1.010543
     25          6           0       -2.506428    1.302963   -0.576065
     26          6           0       -1.998688    2.331399    0.435125
     27          6           0       -1.406040    3.573212   -0.231555
     28          1           0       -1.678198    1.006744   -1.234612
     29          1           0       -3.263787    1.772751   -1.218444
     30          1           0       -1.242589    1.859053    1.075295
     31          1           0       -2.827300    2.624558    1.092451
     32          1           0       -2.155656    4.070121   -0.855861
     33          1           0       -0.561942    3.300267   -0.873115
     34          1           0       -1.049273    4.295166    0.509635
 ---------------------------------------------------------------------

 SCF Done:  E(RHF) =  -669.537062863     A.U. after   15 cycles
 E2 =    -0.2092740894D+01 EUMP2 =    -0.67162980375655D+03

 The electronic state is 1-A.
 Alpha  occ. eigenvalues --  -20.61173 -20.61163 -15.86155 -11.31402 -11.27949
 Alpha  occ. eigenvalues --  -11.27946 -11.27670 -11.26937 -11.26926 -11.20897
 Alpha  occ. eigenvalues --  -11.20727 -11.20595 -11.20499 -11.20077 -11.19883
 Alpha  occ. eigenvalues --   -1.60203  -1.39761  -1.19557  -1.08977  -1.07488
 Alpha  occ. eigenvalues --   -1.04939  -1.02659  -0.95831  -0.95124  -0.86344
 Alpha  occ. eigenvalues --   -0.86139  -0.82668  -0.78747  -0.77733  -0.77242
 Alpha  occ. eigenvalues --   -0.72374  -0.71515  -0.70663  -0.65214  -0.64940
 Alpha  occ. eigenvalues --   -0.64104  -0.62286  -0.60054  -0.58531  -0.56722
 Alpha  occ. eigenvalues --   -0.55447  -0.54416  -0.53272  -0.53028  -0.51863
 Alpha  occ. eigenvalues --   -0.51545  -0.49277  -0.49146  -0.48924  -0.47061
 Alpha  occ. eigenvalues --   -0.45806  -0.45349  -0.44817  -0.44375  -0.42885
 Alpha  occ. eigenvalues --   -0.37527  -0.36533
 Alpha virt. eigenvalues --    0.04718   0.11094   0.16207   0.21114   0.23519
 Alpha virt. eigenvalues --    0.25050   0.26879   0.27416   0.27900   0.28768
 Alpha virt. eigenvalues --    0.28973   0.30943   0.31663   0.32344   0.32371

 Mulliken charges:
               1
     1  C   -0.170236
     2  C   -0.218509
     3  C   -0.170890
     4  C    0.158845
     5  C   -0.170800
     6  C   -0.218578
     7  H    0.226561
     8  H    0.224626
     9  H    0.276654
    10  H    0.276018
    11  H    0.224283
    12  N    0.488270
    13  O   -0.458596
    14  O   -0.459257
    15  C   -0.311333
    16  C   -0.296633
    17  C   -0.477875
    18  H    0.176897
    19  H    0.145214
    20  H    0.151036
    21  H    0.145069
    22  H    0.150948
    23  H    0.168306
    24  H    0.154870
    25  C   -0.296282
    26  C   -0.304460
    27  C   -0.475399
    28  H    0.142818
    29  H    0.145787
    30  H    0.160564
    31  H    0.151412
    32  H    0.154474
    33  H    0.150503
    34  H    0.155694
 Sum of Mulliken charges =  -0.00000

 Dipole moment (field-independent basis, Debye):
    X=              4.4781    Y=              2.0868    Z=             -1.8893  Tot=              5.2894
 Quadrupole moment (field-independent basis, Debye-Ang):
   XX=            -78.5611   YY=            -96.5488   ZZ=            -94.3282
   XY=              1.1179   XZ=             -3.6976   YZ=              5.2089

 Normal termination of Gaussian 16 at Thu May  6 19:10:42 2021.
