 Gaussian 16, Revision A.03,
 Gaussian 16:  EM64L-G16RevA.03 25-Dec-2016

 -------------
 #p 6-31g* mp2
 -------------

 ------------------------------------------------------
 Input file generated by CHIRIPA (05-May-2021 14:55:25)
 ------------------------------------------------------
 Symbolic Z-matrix:
 Charge =  0 Multiplicity = 1

                         Standard orientation:
 ---------------------------------------------------------------------
 Center     Atomic      Atomic             Coordinates (Angstroms)
 Number     Number       Type             X           Y           Z
 ---------------------------------------------------------------------
      1          6           0        4.852064   -0.995414   -1.178785
      2          6           0        3.732589   -1.812233   -0.988778
      3          6           0        2.678567   -1.393376   -0.171378
      4          6           0        2.777547   -0.146153    0.443382
      5          6           0        3.879673    0.690404    0.273733
      6          6           0        4.921910    0.251100   -0.548035
      7          1           0        5.666276   -1.328734   -1.815457
      8          1           0        3.675627   -2.780782   -1.477363
      9          1           0        1.800228   -2.005665   -0.006935
     10          1           0        3.907811    1.650746    0.774102
     11          1           0        5.790085    0.887556   -0.693778
     12          7           0        1.667939    0.308095    1.311038
     13          8           0        1.779323    1.411252    1.841393
     14          8           0        0.707854   -0.447623    1.444324
     15          6           0       -4.030394   -0.413112   -0.182281
     16          6           0       -5.545355   -0.499156    0.006067
     17          6           0       -6.012286   -1.897805    0.410482
     18          1           0       -3.720358   -1.139749   -0.945708
     19          1           0       -3.534286   -0.710437    0.751993
     20          1           0       -6.038479   -0.200428   -0.927853
     21          1           0       -5.851846    0.227904    0.768997
     22          1           0       -5.547137   -2.201440    1.353903
     23          1           0       -5.734831   -2.632206   -0.352587
     24          1           0       -7.098395   -1.936709    0.539762
     25          6           0       -3.548290    0.978920   -0.586695
     26          6           0       -2.033329    1.064965   -0.775043
     27          6           0       -1.566399    2.463613   -1.179458
     28          1           0       -4.044399    1.276246   -1.520970
     29          1           0       -3.858327    1.705558    0.176732
     30          1           0       -1.726839    0.337904   -1.537973
     31          1           0       -1.540205    0.766237    0.158876
     32          1           0       -1.843853    3.198014   -0.416389
     33          1           0       -2.031547    2.767248   -2.122880
     34          1           0       -0.480290    2.502518   -1.308738
 ---------------------------------------------------------------------

 SCF Done:  E(RHF) =  -669.536351291     A.U. after   15 cycles
 E2 =    -0.2091255397D+01 EUMP2 =    -0.67162760668768D+03

 The electronic state is 1-A.
 Alpha  occ. eigenvalues --  -20.60965 -20.60949 -15.85980 -11.31288 -11.27849
 Alpha  occ. eigenvalues --  -11.27844 -11.27587 -11.26854 -11.26844 -11.20954
 Alpha  occ. eigenvalues --  -11.20572 -11.20528 -11.20500 -11.20428 -11.20202
 Alpha  occ. eigenvalues --   -1.60013  -1.39569  -1.19455  -1.08863  -1.07586
 Alpha  occ. eigenvalues --   -1.04848  -1.02717  -0.95706  -0.95203  -0.86250
 Alpha  occ. eigenvalues --   -0.86221  -0.82541  -0.78781  -0.77598  -0.77375
 Alpha  occ. eigenvalues --   -0.72201  -0.71323  -0.70564  -0.65110  -0.64852
 Alpha  occ. eigenvalues --   -0.64210  -0.62195  -0.60104  -0.58578  -0.56808
 Alpha  occ. eigenvalues --   -0.55355  -0.54492  -0.53181  -0.52940  -0.51918
 Alpha  occ. eigenvalues --   -0.51629  -0.49168  -0.48964  -0.48958  -0.47120
 Alpha  occ. eigenvalues --   -0.45833  -0.45178  -0.44924  -0.44520  -0.42972
 Alpha  occ. eigenvalues --   -0.37432  -0.36449
 Alpha virt. eigenvalues --    0.04900   0.11206   0.16384   0.21336   0.23695
 Alpha virt. eigenvalues --    0.25037   0.27253   0.27523   0.28061   0.28521
 Alpha virt. eigenvalues --    0.28744   0.30896   0.32186   0.32347   0.32567

 Mulliken charges:
               1
     1  C   -0.170517
     2  C   -0.218625
     3  C   -0.170490
     4  C    0.158485
     5  C   -0.170876
     6  C   -0.218599
     7  H    0.225998
     8  H    0.223853
     9  H    0.276155
    10  H    0.275875
    11  H    0.223827
    12  N    0.488209
    13  O   -0.459075
    14  O   -0.459436
    15  C   -0.298830
    16  C   -0.299090
    17  C   -0.475292
    18  H    0.145595
    19  H    0.156997
    20  H    0.149378
    21  H    0.151993
    22  H    0.156311
    23  H    0.153001
    24  H    0.158037
    25  C   -0.297369
    26  C   -0.311126
    27  C   -0.473048
    28  H    0.144450
    29  H    0.149971
    30  H    0.143309
    31  H    0.178818
    32  H    0.157548
    33  H    0.149258
    34  H    0.155304
 Sum of Mulliken charges =  -0.00000

 Dipole moment (field-independent basis, Debye):
    X=              4.1451    Y=             -1.6362    Z=             -2.8700  Tot=              5.3006
 Quadrupole moment (field-independent basis, Debye-Ang):
   XX=            -73.2474   YY=            -91.9142   ZZ=            -97.4559
   XY=             -3.1688   XZ=             -6.7021   YZ=              1.4977

 Normal termination of Gaussian 16 at Wed May  5 17:40:35 2021.
