 Gaussian 16, Revision A.03,
 Gaussian 16:  EM64L-G16RevA.03 25-Dec-2016

 -------------
 #p 6-31g* mp2
 -------------

 ------------------------------------------------------
 Input file generated by CHIRIPA (05-May-2021 14:53:16)
 ------------------------------------------------------
 Symbolic Z-matrix:
 Charge =  0 Multiplicity = 1

                         Standard orientation:
 ---------------------------------------------------------------------
 Center     Atomic      Atomic             Coordinates (Angstroms)
 Number     Number       Type             X           Y           Z
 ---------------------------------------------------------------------
      1          6           0       -4.286001    0.422773    0.161379
      2          6           0       -5.721327    0.082402   -0.241077
      3          6           0       -6.595973    1.324003   -0.417748
      4          1           0       -4.301001    0.998607    1.096866
      5          1           0       -3.844148    1.078089   -0.601984
      6          1           0       -6.159879   -0.573199    0.522124
      7          1           0       -5.702897   -0.492854   -1.175613
      8          1           0       -6.184549    1.977848   -1.193518
      9          1           0       -6.644128    1.897046    0.513865
     10          1           0       -7.617813    1.057625   -0.705404
     11          6           0       -3.399335   -0.808081    0.341794
     12          6           0       -1.964009   -0.467709    0.744251
     13          6           0       -1.089362   -1.709311    0.920922
     14          1           0       -3.841187   -1.463396    1.105157
     15          1           0       -3.384334   -1.383915   -0.593692
     16          1           0       -1.982438    0.107546    1.678787
     17          1           0       -1.525456    0.187891   -0.018951
     18          1           0       -1.041208   -2.282353   -0.010692
     19          1           0       -1.500786   -2.363155    1.696692
     20          1           0       -0.067522   -1.442933    1.208578
     21          6           0        3.482181    2.589279    0.236852
     22          6           0        2.335550    2.216853   -0.472412
     23          6           0        2.059493    0.868581   -0.718392
     24          6           0        2.955670   -0.085261   -0.238452
     25          6           0        4.106445    0.254188    0.471324
     26          6           0        4.362417    1.608487    0.705630
     27          1           0        3.688828    3.638990    0.423401
     28          1           0        1.650174    2.976389   -0.837663
     29          1           0        1.179184    0.552370   -1.264729
     30          1           0        4.770974   -0.525708    0.822868
     31          1           0        5.253679    1.894795    1.256743
     32          7           0        2.674053   -1.515805   -0.492681
     33          8           0        3.479364   -2.336933   -0.059251
     34          8           0        1.653342   -1.788852   -1.120560
 ---------------------------------------------------------------------

 SCF Done:  E(RHF) =  -669.535380504     A.U. after   15 cycles
 E2 =    -0.2092198070D+01 EUMP2 =    -0.67162757857451D+03

 The electronic state is 1-A.
 Alpha  occ. eigenvalues --  -20.60854 -20.60828 -15.85869 -11.31236 -11.27800
 Alpha  occ. eigenvalues --  -11.27797 -11.27540 -11.26814 -11.26803 -11.21480
 Alpha  occ. eigenvalues --  -11.21264 -11.21248 -11.21073 -11.21017 -11.20187
 Alpha  occ. eigenvalues --   -1.59907  -1.39462  -1.19405  -1.08802  -1.08189
 Alpha  occ. eigenvalues --   -1.04804  -1.03216  -0.95683  -0.95583  -0.86635
 Alpha  occ. eigenvalues --   -0.86203  -0.82473  -0.79296  -0.78009  -0.77521
 Alpha  occ. eigenvalues --   -0.72108  -0.71240  -0.70511  -0.65062  -0.64847
 Alpha  occ. eigenvalues --   -0.64779  -0.62157  -0.60600  -0.59036  -0.57260
 Alpha  occ. eigenvalues --   -0.55307  -0.54892  -0.53134  -0.52896  -0.52315
 Alpha  occ. eigenvalues --   -0.52050  -0.49562  -0.48870  -0.48840  -0.47602
 Alpha  occ. eigenvalues --   -0.46358  -0.45542  -0.45485  -0.44802  -0.43426
 Alpha  occ. eigenvalues --   -0.37383  -0.36401
 Alpha virt. eigenvalues --    0.04982   0.11195   0.16471   0.20872   0.23019
 Alpha virt. eigenvalues --    0.24195   0.26193   0.27287   0.27711   0.28224
 Alpha virt. eigenvalues --    0.28662   0.30743   0.31493   0.31930   0.32043

 Mulliken charges:
               1
     1  C   -0.297333
     2  C   -0.299542
     3  C   -0.475444
     4  H    0.148111
     5  H    0.145908
     6  H    0.152477
     7  H    0.152771
     8  H    0.153813
     9  H    0.154375
    10  H    0.160300
    11  C   -0.298449
    12  C   -0.299636
    13  C   -0.469879
    14  H    0.150187
    15  H    0.152225
    16  H    0.147957
    17  H    0.141837
    18  H    0.172165
    19  H    0.150244
    20  H    0.153826
    21  C   -0.170658
    22  C   -0.218580
    23  C   -0.171520
    24  C    0.156941
    25  C   -0.170944
    26  C   -0.218518
    27  H    0.225833
    28  H    0.223798
    29  H    0.277368
    30  H    0.275762
    31  H    0.223638
    32  N    0.488241
    33  O   -0.459629
    34  O   -0.457645
 Sum of Mulliken charges =  -0.00000

 Dipole moment (field-independent basis, Debye):
    X=              1.1099    Y=              4.9092    Z=              0.8278  Tot=              5.1007
 Quadrupole moment (field-independent basis, Debye-Ang):
   XX=            -86.3398   YY=            -96.2518   ZZ=            -93.8689
   XY=             14.7076   XZ=              4.5521   YZ=             -1.7731

 Normal termination of Gaussian 16 at Wed May  5 18:42:12 2021.
