 Gaussian 16, Revision A.03,
 Gaussian 16:  EM64L-G16RevA.03 25-Dec-2016

 -------------
 #p 6-31g* mp2
 -------------

 ------------------------------------------------------
 Input file generated by CHIRIPA (05-May-2021 14:57:24)
 ------------------------------------------------------
 Symbolic Z-matrix:
 Charge =  0 Multiplicity = 1

                         Standard orientation:
 ---------------------------------------------------------------------
 Center     Atomic      Atomic             Coordinates (Angstroms)
 Number     Number       Type             X           Y           Z
 ---------------------------------------------------------------------
      1          6           0       -4.443178    2.221856    0.911446
      2          6           0       -4.940197    1.744449   -0.305755
      3          6           0       -4.496094    0.524537   -0.824539
      4          6           0       -3.550007   -0.195291   -0.096490
      5          6           0       -3.035818    0.253707    1.118952
      6          6           0       -3.494248    1.476275    1.618667
      7          1           0       -4.793733    3.170544    1.307043
      8          1           0       -5.677208    2.321348   -0.857159
      9          1           0       -4.864106    0.131426   -1.764459
     10          1           0       -2.301757   -0.343801    1.645789
     11          1           0       -3.106500    1.844571    2.564212
     12          7           0       -3.072271   -1.488163   -0.635610
     13          8           0       -2.238236   -2.103399    0.025077
     14          8           0       -3.540903   -1.861800   -1.708651
     15          6           0        1.932441   -1.730765    0.752082
     16          6           0        1.553242   -0.701330   -0.115669
     17          6           0        2.484717    0.253296   -0.534708
     18          6           0        3.792735    0.147814   -0.064333
     19          6           0        4.201197   -0.866066    0.800823
     20          6           0        3.252880   -1.809709    1.206756
     21          1           0        1.202308   -2.468075    1.072511
     22          1           0        0.528472   -0.637540   -0.470382
     23          1           0        2.218204    1.060637   -1.205967
     24          1           0        5.230115   -0.903509    1.137491
     25          1           0        3.550206   -2.608093    1.880718
     26          7           0        4.787761    1.152620   -0.501013
     27          8           0        5.933900    1.037616   -0.072322
     28          8           0        4.402682    2.036165   -1.263707
 ---------------------------------------------------------------------

 SCF Done:  E(RHF) =  -868.340007489     A.U. after   16 cycles
 E2 =    -0.2598715491D+01 EUMP2 =    -0.87093872297999D+03

 The electronic state is 1-A.
 Alpha  occ. eigenvalues --  -20.61897 -20.61823 -20.60449 -20.60444 -15.86880
 Alpha  occ. eigenvalues --  -15.85498 -11.31988 -11.30731 -11.28545 -11.28486
 Alpha  occ. eigenvalues --  -11.28173 -11.27462 -11.27436 -11.27300 -11.27267
 Alpha  occ. eigenvalues --  -11.26867 -11.26254 -11.26139  -1.60918  -1.59528
 Alpha  occ. eigenvalues --   -1.40482  -1.39086  -1.20127  -1.18874  -1.09562
 Alpha  occ. eigenvalues --   -1.08265  -1.05484  -1.04259  -0.96442  -0.95128
 Alpha  occ. eigenvalues --   -0.86894  -0.85638  -0.83282  -0.81973  -0.78371
 Alpha  occ. eigenvalues --   -0.77062  -0.73104  -0.72231  -0.71716  -0.71216
 Alpha  occ. eigenvalues --   -0.70851  -0.69907  -0.65776  -0.65471  -0.64506
 Alpha  occ. eigenvalues --   -0.64220  -0.62835  -0.61605  -0.55972  -0.54657
 Alpha  occ. eigenvalues --   -0.53831  -0.53564  -0.52601  -0.52328  -0.49878
 Alpha  occ. eigenvalues --   -0.49823  -0.48482  -0.48461  -0.45921  -0.44521
 Alpha  occ. eigenvalues --   -0.38081  -0.37077  -0.36815  -0.35882
 Alpha virt. eigenvalues --    0.04120   0.05465   0.10549   0.11780   0.15650
 Alpha virt. eigenvalues --    0.17009   0.20646   0.22026   0.26544   0.27205
 Alpha virt. eigenvalues --    0.28004   0.28928   0.30584   0.31523   0.31848

 Mulliken charges:
               1
     1  C   -0.169680
     2  C   -0.218139
     3  C   -0.170515
     4  C    0.156548
     5  C   -0.173175
     6  C   -0.217781
     7  H    0.229122
     8  H    0.226626
     9  H    0.277284
    10  H    0.272331
    11  H    0.226413
    12  N    0.488177
    13  O   -0.470237
    14  O   -0.453293
    15  C   -0.174022
    16  C   -0.222482
    17  C   -0.172566
    18  C    0.157910
    19  C   -0.172093
    20  C   -0.219462
    21  H    0.236617
    22  H    0.229584
    23  H    0.273049
    24  H    0.273656
    25  H    0.222165
    26  N    0.488179
    27  O   -0.461873
    28  O   -0.462343
 Sum of Mulliken charges =  -0.00000

 Dipole moment (field-independent basis, Debye):
    X=             -5.6513    Y=              1.0385    Z=              3.4260  Tot=              6.6897
 Quadrupole moment (field-independent basis, Debye-Ang):
   XX=           -115.6954   YY=           -107.4034   ZZ=           -101.4349
   XY=            -32.9875   XZ=              4.5468   YZ=             -2.0973

 Normal termination of Gaussian 16 at Wed May  5 22:43:58 2021.
