 Gaussian 16, Revision A.03,
 Gaussian 16:  EM64L-G16RevA.03 25-Dec-2016

 -------------
 #p 6-31g* mp2
 -------------

 ------------------------------------------------------
 Input file generated by CHIRIPA (05-May-2021 14:51:09)
 ------------------------------------------------------
 Symbolic Z-matrix:
 Charge =  0 Multiplicity = 1

                         Standard orientation:
 ---------------------------------------------------------------------
 Center     Atomic      Atomic             Coordinates (Angstroms)
 Number     Number       Type             X           Y           Z
 ---------------------------------------------------------------------
      1          6           0        3.857097    0.240366   -0.231536
      2          6           0        2.810717    0.614250    0.818838
      3          6           0        1.549912    1.224731    0.206075
      4          1           0        4.124811    1.136271   -0.808277
      5          1           0        3.414024   -0.469183   -0.944012
      6          1           0        3.256055    1.321818    1.529920
      7          1           0        2.545604   -0.282610    1.393271
      8          1           0        1.079787    0.521266   -0.488706
      9          1           0        1.794275    2.134810   -0.351281
     10          1           0        0.815319    1.484554    0.974661
     11          6           0        5.123267   -0.371160    0.365603
     12          6           0        6.169647   -0.745044   -0.684771
     13          6           0        7.430452   -1.355525   -0.072008
     14          1           0        5.566340    0.338389    1.078079
     15          1           0        4.855553   -1.267065    0.942343
     16          1           0        6.434760    0.151816   -1.259205
     17          1           0        5.724310   -1.452612   -1.395853
     18          1           0        7.186090   -2.265604    0.485348
     19          1           0        7.900577   -0.652060    0.622773
     20          1           0        8.165045   -1.615348   -0.840594
     21          6           0       -4.216981    0.760482   -0.227191
     22          6           0       -2.720324    0.902805    0.051641
     23          6           0       -2.188528    2.298920   -0.273707
     24          1           0       -4.410168    0.990950   -1.283840
     25          1           0       -4.765316    1.509069    0.361318
     26          1           0       -2.175087    0.153261   -0.536165
     27          1           0       -2.530652    0.671785    1.107704
     28          1           0       -2.706383    3.057054    0.322664
     29          1           0       -2.348797    2.535584   -1.330545
     30          1           0       -1.116712    2.378502   -0.066978
     31          6           0       -4.763383   -0.629688    0.093124
     32          6           0       -6.260040   -0.772011   -0.185707
     33          6           0       -6.791837   -2.168126    0.139640
     34          1           0       -4.215048   -1.378275   -0.495385
     35          1           0       -4.570196   -0.860156    1.149773
     36          1           0       -6.449712   -0.540991   -1.241771
     37          1           0       -6.805278   -0.022468    0.402098
     38          1           0       -6.631568   -2.404790    1.196478
     39          1           0       -6.273981   -2.926260   -0.456731
     40          1           0       -7.863652   -2.247708   -0.067089
 ---------------------------------------------------------------------

 SCF Done:  E(RHF) =  -470.732928686     A.U. after   11 cycles
 E2 =    -0.1582579081D+01 EUMP2 =    -0.47231550776662D+03

 The electronic state is 1-A.
 Alpha  occ. eigenvalues --  -11.21621 -11.21611 -11.21573 -11.21521 -11.21420
 Alpha  occ. eigenvalues --  -11.21361 -11.21358 -11.21295 -11.21110 -11.21079
 Alpha  occ. eigenvalues --  -11.21052 -11.20876  -1.08449  -1.08374  -1.03565
 Alpha  occ. eigenvalues --   -1.03451  -0.96051  -0.95870  -0.87092  -0.86868
 Alpha  occ. eigenvalues --   -0.79635  -0.79515  -0.78260  -0.78190  -0.65077
 Alpha  occ. eigenvalues --   -0.65006  -0.60953  -0.60856  -0.59651  -0.59087
 Alpha  occ. eigenvalues --   -0.57660  -0.57467  -0.55293  -0.55191  -0.53051
 Alpha  occ. eigenvalues --   -0.52461  -0.52423  -0.52087  -0.49945  -0.49852
 Alpha  occ. eigenvalues --   -0.47934  -0.47840  -0.46654  -0.46558  -0.45801
 Alpha  occ. eigenvalues --   -0.45740  -0.45717  -0.45655  -0.43939  -0.43548
 Alpha virt. eigenvalues --    0.22156   0.22986   0.23499   0.24878   0.26379
 Alpha virt. eigenvalues --    0.26716   0.26860   0.27482   0.27673   0.29039
 Alpha virt. eigenvalues --    0.30090   0.31052   0.31306   0.31591   0.32147

 Mulliken charges:
               1
     1  C   -0.298647
     2  C   -0.300331
     3  C   -0.478347
     4  H    0.149714
     5  H    0.149510
     6  H    0.152033
     7  H    0.152232
     8  H    0.156866
     9  H    0.155497
    10  H    0.161833
    11  C   -0.298337
    12  C   -0.299619
    13  C   -0.475712
    14  H    0.149570
    15  H    0.149699
    16  H    0.151969
    17  H    0.151926
    18  H    0.155197
    19  H    0.155205
    20  H    0.160288
    21  C   -0.298153
    22  C   -0.298861
    23  C   -0.484810
    24  H    0.149546
    25  H    0.149385
    26  H    0.151705
    27  H    0.150926
    28  H    0.153745
    29  H    0.154215
    30  H    0.172366
    31  C   -0.298159
    32  C   -0.299596
    33  C   -0.475663
    34  H    0.149249
    35  H    0.149453
    36  H    0.151890
    37  H    0.151887
    38  H    0.155098
    39  H    0.155071
    40  H    0.160159
 Sum of Mulliken charges =  -0.00000

 Dipole moment (field-independent basis, Debye):
    X=              0.0561    Y=              0.0021    Z=              0.0025  Tot=              0.0562
 Quadrupole moment (field-independent basis, Debye-Ang):
   XX=            -86.0154   YY=            -84.9815   ZZ=            -83.9873
   XY=              0.3240   XZ=             -0.3578   YZ=              0.6956

 Normal termination of Gaussian 16 at Thu May  6 06:55:09 2021.
