 Gaussian 16, Revision A.03,
 Gaussian 16:  EM64L-G16RevA.03 25-Dec-2016

 -------------
 #p 6-31g* mp2
 -------------

 ------------------------------------------------------
 Input file generated by CHIRIPA (05-May-2021 14:53:17)
 ------------------------------------------------------
 Symbolic Z-matrix:
 Charge =  0 Multiplicity = 1

                         Standard orientation:
 ---------------------------------------------------------------------
 Center     Atomic      Atomic             Coordinates (Angstroms)
 Number     Number       Type             X           Y           Z
 ---------------------------------------------------------------------
      1          6           0       -4.319931   -0.282358    0.419694
      2          6           0       -3.034624    0.347164   -0.118521
      3          6           0       -1.812631    0.023348    0.741519
      4          1           0       -4.489753    0.067590    1.447138
      5          1           0       -4.189795   -1.371876    0.478075
      6          1           0       -3.167632    1.435045   -0.177175
      7          1           0       -2.867944   -0.004173   -1.144872
      8          1           0       -1.651877   -1.058477    0.790664
      9          1           0       -1.953268    0.388919    1.763860
     10          1           0       -0.904879    0.483264    0.338627
     11          6           0       -5.550296    0.032332   -0.429365
     12          6           0       -6.835602   -0.597190    0.108850
     13          6           0       -8.057595   -0.273374   -0.751191
     14          1           0       -5.680432    1.121850   -0.487747
     15          1           0       -5.380473   -0.317616   -1.456809
     16          1           0       -7.002282   -0.245853    1.135200
     17          1           0       -6.702595   -1.685071    0.167503
     18          1           0       -7.916959   -0.638945   -1.773531
     19          1           0       -8.218349    0.808451   -0.800336
     20          1           0       -8.965347   -0.733290   -0.348298
     21          6           0        2.203939    1.956410    0.431744
     22          6           0        3.327056    2.188561   -0.369027
     23          6           0        4.248782    1.166069   -0.612915
     24          6           0        4.015229   -0.082030   -0.037596
     25          6           0        2.905817   -0.344429    0.764676
     26          6           0        1.997269    0.692884    0.995047
     27          1           0        1.493040    2.756463    0.615952
     28          1           0        3.490116    3.168834   -0.807798
     29          1           0        5.126712    1.318349   -1.228925
     30          1           0        2.770209   -1.332123    1.188336
     31          1           0        1.125927    0.509715    1.617348
     32          7           0        4.984044   -1.172341   -0.288635
     33          8           0        4.755541   -2.263046    0.229812
     34          8           0        5.953558   -0.915578   -0.999093
 ---------------------------------------------------------------------

 SCF Done:  E(RHF) =  -669.535277106     A.U. after   15 cycles
 E2 =    -0.2091312401D+01 EUMP2 =    -0.67162658950693D+03

 The electronic state is 1-A.
 Alpha  occ. eigenvalues --  -20.60746 -20.60741 -15.85799 -11.31168 -11.27732
 Alpha  occ. eigenvalues --  -11.27713 -11.27472 -11.26753 -11.26682 -11.22294
 Alpha  occ. eigenvalues --  -11.21977 -11.21951 -11.21917 -11.21793 -11.21362
 Alpha  occ. eigenvalues --   -1.59821  -1.39375  -1.19336  -1.08942  -1.08732
 Alpha  occ. eigenvalues --   -1.04737  -1.04077  -0.96552  -0.95566  -0.87592
 Alpha  occ. eigenvalues --   -0.86127  -0.82394  -0.80158  -0.78727  -0.77440
 Alpha  occ. eigenvalues --   -0.72017  -0.71144  -0.70443  -0.65567  -0.64986
 Alpha  occ. eigenvalues --   -0.64767  -0.62119  -0.61470  -0.59908  -0.58138
 Alpha  occ. eigenvalues --   -0.55828  -0.55241  -0.53489  -0.53064  -0.52924
 Alpha  occ. eigenvalues --   -0.52614  -0.50484  -0.48774  -0.48772  -0.48462
 Alpha  occ. eigenvalues --   -0.47166  -0.46277  -0.46180  -0.44780  -0.44321
 Alpha  occ. eigenvalues --   -0.37309  -0.36317
 Alpha virt. eigenvalues --    0.05083   0.11185   0.16573   0.20994   0.22444
 Alpha virt. eigenvalues --    0.23894   0.26044   0.26237   0.27044   0.27958
 Alpha virt. eigenvalues --    0.28624   0.29992   0.30909   0.31517   0.31858

 Mulliken charges:
               1
     1  C   -0.299074
     2  C   -0.299261
     3  C   -0.484531
     4  H    0.149567
     5  H    0.151333
     6  H    0.151021
     7  H    0.155546
     8  H    0.159026
     9  H    0.152275
    10  H    0.159140
    11  C   -0.298727
    12  C   -0.300020
    13  C   -0.475975
    14  H    0.149373
    15  H    0.150908
    16  H    0.152033
    17  H    0.152934
    18  H    0.155913
    19  H    0.155186
    20  H    0.161363
    21  C   -0.173434
    22  C   -0.218200
    23  C   -0.171125
    24  C    0.158620
    25  C   -0.173155
    26  C   -0.220310
    27  H    0.225904
    28  H    0.223306
    29  H    0.275501
    30  H    0.275804
    31  H    0.231861
    32  N    0.488084
    33  O   -0.460361
    34  O   -0.460524
 Sum of Mulliken charges =  -0.00000

 Dipole moment (field-independent basis, Debye):
    X=             -3.5454    Y=              3.8111    Z=              0.8535  Tot=              5.2747
 Quadrupole moment (field-independent basis, Debye-Ang):
   XX=           -121.5828   YY=            -93.2026   ZZ=            -93.8225
   XY=             17.8726   XZ=              1.4282   YZ=             -1.7015

 Normal termination of Gaussian 16 at Thu May  6 06:00:13 2021.
