 Gaussian 16, Revision A.03,
 Gaussian 16:  EM64L-G16RevA.03 25-Dec-2016

 -------------
 #p 6-31g* mp2
 -------------

 ------------------------------------------------------
 Input file generated by CHIRIPA (05-May-2021 14:53:17)
 ------------------------------------------------------
 Symbolic Z-matrix:
 Charge =  0 Multiplicity = 1

                         Standard orientation:
 ---------------------------------------------------------------------
 Center     Atomic      Atomic             Coordinates (Angstroms)
 Number     Number       Type             X           Y           Z
 ---------------------------------------------------------------------
      1          6           0       -4.421938    0.547964    0.201218
      2          6           0       -4.275353    1.677796   -0.818574
      3          6           0       -5.277859    2.810272   -0.594355
      4          1           0       -5.444515    0.149295    0.152813
      5          1           0       -4.293683    0.957517    1.212757
      6          1           0       -4.402473    1.265986   -1.827965
      7          1           0       -3.252949    2.073694   -0.767869
      8          1           0       -5.148154    3.248211    0.400626
      9          1           0       -6.304210    2.435914   -0.665492
     10          1           0       -5.155373    3.607252   -1.334409
     11          6           0       -3.426611   -0.591554   -0.009853
     12          6           0       -3.573195   -1.721387    1.009940
     13          6           0       -2.570690   -2.853863    0.785720
     14          1           0       -3.554866   -1.001108   -1.021392
     15          1           0       -2.404033   -0.192885    0.038552
     16          1           0       -4.595599   -2.117284    0.959235
     17          1           0       -3.446075   -1.309576    2.019330
     18          1           0       -1.544339   -2.479504    0.856858
     19          1           0       -2.700394   -3.291802   -0.209261
     20          1           0       -2.693175   -3.650843    1.525774
     21          6           0        4.811852    1.666403    0.697854
     22          6           0        3.544990    1.658963    1.290751
     23          6           0        2.569797    0.749530    0.870660
     24          6           0        2.897041   -0.142428   -0.149445
     25          6           0        4.150204   -0.159714   -0.759832
     26          6           0        5.109891    0.758641   -0.323743
     27          1           0        5.563382    2.376338    1.030406
     28          1           0        3.310727    2.362789    2.084346
     29          1           0        1.581055    0.721976    1.312303
     30          1           0        4.354199   -0.873474   -1.548724
     31          1           0        6.092916    0.762136   -0.786013
     32          7           0        1.872856   -1.109927   -0.602644
     33          8           0        2.186090   -1.885484   -1.503218
     34          8           0        0.776259   -1.074377   -0.048707
 ---------------------------------------------------------------------

 SCF Done:  E(RHF) =  -669.536211870     A.U. after   15 cycles
 E2 =    -0.2091142115D+01 EUMP2 =    -0.67162735398537D+03

 The electronic state is 1-A.
 Alpha  occ. eigenvalues --  -20.61001 -20.60990 -15.86034 -11.31335 -11.27899
 Alpha  occ. eigenvalues --  -11.27890 -11.27629 -11.26899 -11.26889 -11.21013
 Alpha  occ. eigenvalues --  -11.20641 -11.20624 -11.20476 -11.20243 -11.19492
 Alpha  occ. eigenvalues --   -1.60054  -1.39613  -1.19501  -1.08907  -1.07529
 Alpha  occ. eigenvalues --   -1.04895  -1.02603  -0.95754  -0.95030  -0.86297
 Alpha  occ. eigenvalues --   -0.86041  -0.82591  -0.78711  -0.77650  -0.77271
 Alpha  occ. eigenvalues --   -0.72259  -0.71365  -0.70610  -0.65160  -0.64898
 Alpha  occ. eigenvalues --   -0.64169  -0.62244  -0.60003  -0.58463  -0.56630
 Alpha  occ. eigenvalues --   -0.55399  -0.54310  -0.53227  -0.52987  -0.51760
 Alpha  occ. eigenvalues --   -0.51431  -0.49133  -0.49006  -0.48836  -0.46981
 Alpha  occ. eigenvalues --   -0.45757  -0.45021  -0.44821  -0.44692  -0.42862
 Alpha  occ. eigenvalues --   -0.37478  -0.36496
 Alpha virt. eigenvalues --    0.04871   0.11160   0.16362   0.21245   0.23657
 Alpha virt. eigenvalues --    0.25230   0.27120   0.27398   0.28005   0.28619
 Alpha virt. eigenvalues --    0.29034   0.30854   0.32098   0.32426   0.32639

 Mulliken charges:
               1
     1  C   -0.297593
     2  C   -0.298425
     3  C   -0.475013
     4  H    0.147353
     5  H    0.145463
     6  H    0.152421
     7  H    0.150239
     8  H    0.152874
     9  H    0.154656
    10  H    0.157947
    11  C   -0.300511
    12  C   -0.298306
    13  C   -0.484515
    14  H    0.149520
    15  H    0.160630
    16  H    0.146296
    17  H    0.145764
    18  H    0.181589
    19  H    0.153972
    20  H    0.151273
    21  C   -0.170534
    22  C   -0.218480
    23  C   -0.170624
    24  C    0.157504
    25  C   -0.170386
    26  C   -0.218568
    27  H    0.226164
    28  H    0.223937
    29  H    0.275091
    30  H    0.276035
    31  H    0.223988
    32  N    0.493994
    33  O   -0.457872
    34  O   -0.465882
 Sum of Mulliken charges =  -0.00000

 Dipole moment (field-independent basis, Debye):
    X=              3.9972    Y=              3.3754    Z=              1.5123  Tot=              5.4459
 Quadrupole moment (field-independent basis, Debye-Ang):
   XX=            -73.2787   YY=            -96.7184   ZZ=            -93.2604
   XY=              9.0834   XZ=              2.3870   YZ=              1.3206

 Normal termination of Gaussian 16 at Wed May  5 22:01:01 2021.
