 Gaussian 16, Revision A.03,
 Gaussian 16:  EM64L-G16RevA.03 25-Dec-2016

 -------------
 #p 6-31g* mp2
 -------------

 ------------------------------------------------------
 Input file generated by CHIRIPA (05-May-2021 14:55:24)
 ------------------------------------------------------
 Symbolic Z-matrix:
 Charge =  0 Multiplicity = 1

                         Standard orientation:
 ---------------------------------------------------------------------
 Center     Atomic      Atomic             Coordinates (Angstroms)
 Number     Number       Type             X           Y           Z
 ---------------------------------------------------------------------
      1          6           0        0.463738   -1.128169    0.326903
      2          6           0        0.889833    0.069386    0.910706
      3          6           0        2.219568    0.484058    0.790710
      4          6           0        3.100349   -0.326938    0.076707
      5          6           0        2.706181   -1.525375   -0.516311
      6          6           0        1.371671   -1.920331   -0.383490
      7          1           0       -0.571087   -1.442639    0.425101
      8          1           0        0.186922    0.686600    1.462983
      9          1           0        2.576225    1.406503    1.232646
     10          1           0        3.430086   -2.119451   -1.060786
     11          1           0        1.043568   -2.850856   -0.837930
     12          7           0        4.510607    0.101621   -0.057116
     13          8           0        5.266982   -0.630761   -0.691271
     14          8           0        4.832890    1.161791    0.474682
     15          6           0       -4.390812    0.256651   -0.166304
     16          6           0       -4.540998   -1.213184    0.227415
     17          6           0       -5.986866   -1.703140    0.142575
     18          1           0       -5.026548    0.871124    0.485776
     19          1           0       -4.766416    0.395136   -1.189601
     20          1           0       -4.163944   -1.349120    1.249164
     21          1           0       -3.904683   -1.824210   -0.425552
     22          1           0       -6.370603   -1.596332   -0.877199
     23          1           0       -6.631337   -1.118542    0.807031
     24          1           0       -6.071299   -2.756284    0.428264
     25          6           0       -2.951067    0.761127   -0.086529
     26          6           0       -2.800882    2.230963   -0.480249
     27          6           0       -1.355012    2.720919   -0.395408
     28          1           0       -2.575463    0.622642    0.936768
     29          1           0       -2.315331    0.146655   -0.738609
     30          1           0       -3.437196    2.841989    0.172718
     31          1           0       -3.177935    2.366899   -1.501997
     32          1           0       -0.710542    2.136321   -1.059864
     33          1           0       -0.971276    2.614110    0.624366
     34          1           0       -1.270580    3.774063   -0.681098
 ---------------------------------------------------------------------

 SCF Done:  E(RHF) =  -669.534538586     A.U. after   15 cycles
 E2 =    -0.2093273874D+01 EUMP2 =    -0.67162781245932D+03

 The electronic state is 1-A.
 Alpha  occ. eigenvalues --  -20.60693 -20.60688 -15.85745 -11.31094 -11.27654
 Alpha  occ. eigenvalues --  -11.27636 -11.27330 -11.26671 -11.26609 -11.22602
 Alpha  occ. eigenvalues --  -11.22559 -11.22473 -11.22318 -11.21887 -11.21852
 Alpha  occ. eigenvalues --   -1.59769  -1.39323  -1.19258  -1.09436  -1.08648
 Alpha  occ. eigenvalues --   -1.04674  -1.04426  -0.96887  -0.95490  -0.87902
 Alpha  occ. eigenvalues --   -0.86060  -0.82326  -0.80520  -0.79312  -0.77373
 Alpha  occ. eigenvalues --   -0.71963  -0.71092  -0.70344  -0.66064  -0.64903
 Alpha  occ. eigenvalues --   -0.64685  -0.62095  -0.61768  -0.60232  -0.58528
 Alpha  occ. eigenvalues --   -0.56173  -0.55154  -0.53537  -0.53387  -0.52968
 Alpha  occ. eigenvalues --   -0.52702  -0.50819  -0.48830  -0.48720  -0.48688
 Alpha  occ. eigenvalues --   -0.47537  -0.46773  -0.46727  -0.44733  -0.44716
 Alpha  occ. eigenvalues --   -0.37203  -0.36233
 Alpha virt. eigenvalues --    0.05124   0.11344   0.16533   0.19641   0.22410
 Alpha virt. eigenvalues --    0.22962   0.24810   0.25303   0.26576   0.28466
 Alpha virt. eigenvalues --    0.29469   0.30319   0.31054   0.31512   0.31748

 Mulliken charges:
               1
     1  C   -0.175125
     2  C   -0.216024
     3  C   -0.173124
     4  C    0.158475
     5  C   -0.171369
     6  C   -0.219578
     7  H    0.230006
     8  H    0.226618
     9  H    0.275240
    10  H    0.275047
    11  H    0.222803
    12  N    0.488073
    13  O   -0.460825
    14  O   -0.460561
    15  C   -0.297888
    16  C   -0.301605
    17  C   -0.475948
    18  H    0.153044
    19  H    0.153403
    20  H    0.150111
    21  H    0.148117
    22  H    0.157559
    23  H    0.157736
    24  H    0.161904
    25  C   -0.303900
    26  C   -0.300066
    27  C   -0.478018
    28  H    0.141382
    29  H    0.150209
    30  H    0.154588
    31  H    0.156219
    32  H    0.162399
    33  H    0.145443
    34  H    0.165655
 Sum of Mulliken charges =  -0.00000

 Dipole moment (field-independent basis, Debye):
    X=             -5.2085    Y=             -1.4143    Z=              0.3743  Tot=              5.4101
 Quadrupole moment (field-independent basis, Debye-Ang):
   XX=           -126.1614   YY=            -90.5831   ZZ=            -92.9078
   XY=             -4.6346   XZ=              0.5401   YZ=              2.3638

 Normal termination of Gaussian 16 at Thu May  6 03:08:50 2021.
