 Gaussian 16, Revision A.03,
 Gaussian 16:  EM64L-G16RevA.03 25-Dec-2016

 -------------
 #p 6-31g* mp2
 -------------

 ------------------------------------------------------
 Input file generated by CHIRIPA (05-May-2021 14:55:19)
 ------------------------------------------------------
 Symbolic Z-matrix:
 Charge =  0 Multiplicity = 1

                         Standard orientation:
 ---------------------------------------------------------------------
 Center     Atomic      Atomic             Coordinates (Angstroms)
 Number     Number       Type             X           Y           Z
 ---------------------------------------------------------------------
      1          6           0        5.236050   -1.088767    0.560228
      2          6           0        5.129830    0.279893    0.291887
      3          6           0        3.907927    0.833490   -0.101854
      4          6           0        2.807625   -0.014572   -0.217683
      5          6           0        2.881602   -1.382067    0.042651
      6          6           0        4.113575   -1.913924    0.434974
      7          1           0        6.189165   -1.510371    0.865545
      8          1           0        5.999889    0.923120    0.388332
      9          1           0        3.797591    1.889651   -0.315789
     10          1           0        1.996697   -1.997990   -0.062225
     11          1           0        4.193121   -2.977202    0.642722
     12          7           0        1.508720    0.559989   -0.633769
     13          8           0        0.554201   -0.208495   -0.728439
     14          8           0        1.469753    1.767934   -0.857348
     15          6           0       -3.879321    0.896526    0.087140
     16          6           0       -2.660169    1.607825    0.675109
     17          6           0       -2.697720    3.121083    0.459624
     18          1           0       -3.939475    1.113839   -0.988081
     19          1           0       -4.790602    1.309958    0.541050
     20          1           0       -1.751386    1.192213    0.221239
     21          1           0       -2.602800    1.388637    1.749019
     22          1           0       -3.587338    3.554884    0.927596
     23          1           0       -2.731087    3.357343   -0.608865
     24          1           0       -1.816820    3.609542    0.887739
     25          6           0       -3.856231   -0.616804    0.294575
     26          6           0       -5.075383   -1.328103   -0.293394
     27          6           0       -5.037831   -2.841361   -0.077909
     28          1           0       -2.944950   -1.030236   -0.159335
     29          1           0       -3.796076   -0.834117    1.369796
     30          1           0       -5.132752   -1.108916   -1.367304
     31          1           0       -5.984166   -0.912492    0.160476
     32          1           0       -5.004465   -3.077623    0.990580
     33          1           0       -4.148214   -3.275163   -0.545881
     34          1           0       -5.918732   -3.329821   -0.506024
 ---------------------------------------------------------------------

 SCF Done:  E(RHF) =  -669.536848076     A.U. after   15 cycles
 E2 =    -0.2091437144D+01 EUMP2 =    -0.67162828522041D+03

 The electronic state is 1-A.
 Alpha  occ. eigenvalues --  -20.61098 -20.61082 -15.86096 -11.31372 -11.27924
 Alpha  occ. eigenvalues --  -11.27920 -11.27653 -11.26918 -11.26909 -11.20705
 Alpha  occ. eigenvalues --  -11.20372 -11.20201 -11.20067 -11.19880 -11.19630
 Alpha  occ. eigenvalues --   -1.60132  -1.39690  -1.19531  -1.08945  -1.07197
 Alpha  occ. eigenvalues --   -1.04918  -1.02322  -0.95794  -0.94817  -0.86321
 Alpha  occ. eigenvalues --   -0.85844  -0.82630  -0.78414  -0.77690  -0.76964
 Alpha  occ. eigenvalues --   -0.72308  -0.71437  -0.70639  -0.65186  -0.64921
 Alpha  occ. eigenvalues --   -0.63818  -0.62265  -0.59710  -0.58218  -0.56408
 Alpha  occ. eigenvalues --   -0.55425  -0.54111  -0.53252  -0.53009  -0.51540
 Alpha  occ. eigenvalues --   -0.51248  -0.49161  -0.49068  -0.48747  -0.46726
 Alpha  occ. eigenvalues --   -0.45435  -0.45130  -0.44542  -0.44244  -0.42574
 Alpha  occ. eigenvalues --   -0.37505  -0.36516
 Alpha virt. eigenvalues --    0.04811   0.11141   0.16316   0.21275   0.24054
 Alpha virt. eigenvalues --    0.25510   0.27204   0.27797   0.28166   0.28809
 Alpha virt. eigenvalues --    0.29121   0.30863   0.32388   0.32533   0.32914

 Mulliken charges:
               1
     1  C   -0.170370
     2  C   -0.218629
     3  C   -0.170642
     4  C    0.158751
     5  C   -0.170506
     6  C   -0.218596
     7  H    0.226301
     8  H    0.224105
     9  H    0.276053
    10  H    0.275973
    11  H    0.224156
    12  N    0.488895
    13  O   -0.460260
    14  O   -0.458371
    15  C   -0.296070
    16  C   -0.312943
    17  C   -0.472613
    18  H    0.149598
    19  H    0.142922
    20  H    0.182353
    21  H    0.142207
    22  H    0.146578
    23  H    0.156093
    24  H    0.159518
    25  C   -0.300509
    26  C   -0.298654
    27  C   -0.474915
    28  H    0.160087
    29  H    0.144595
    30  H    0.151529
    31  H    0.148983
    32  H    0.152687
    33  H    0.154657
    34  H    0.157034
 Sum of Mulliken charges =  -0.00000

 Dipole moment (field-independent basis, Debye):
    X=              5.0407    Y=             -2.0561    Z=              1.3359  Tot=              5.6055
 Quadrupole moment (field-independent basis, Debye-Ang):
   XX=            -69.8525   YY=            -92.4369   ZZ=            -95.6992
   XY=             -3.7682   XZ=              3.1247   YZ=              0.0288

 Normal termination of Gaussian 16 at Thu May  6 06:04:45 2021.
