 Gaussian 16, Revision A.03,
 Gaussian 16:  EM64L-G16RevA.03 25-Dec-2016

 -------------
 #p 6-31g* mp2
 -------------

 ------------------------------------------------------
 Input file generated by CHIRIPA (05-May-2021 14:51:14)
 ------------------------------------------------------
 Symbolic Z-matrix:
 Charge =  0 Multiplicity = 1

                         Standard orientation:
 ---------------------------------------------------------------------
 Center     Atomic      Atomic             Coordinates (Angstroms)
 Number     Number       Type             X           Y           Z
 ---------------------------------------------------------------------
      1          6           0       -5.302464   -0.516484    0.234561
      2          6           0       -6.734219   -0.451092   -0.298155
      3          6           0       -7.640763   -1.521581    0.310140
      4          1           0       -4.886282   -1.512020    0.028050
      5          1           0       -5.319932   -0.405598    1.327627
      6          1           0       -6.713939   -0.560683   -1.390032
      7          1           0       -7.146974    0.544467   -0.090523
      8          1           0       -7.690741   -1.411200    1.398221
      9          1           0       -7.255245   -2.522629    0.091329
     10          1           0       -8.659495   -1.456590   -0.084602
     11          6           0       -4.384115    0.547405   -0.364189
     12          6           0       -2.952360    0.482013    0.168527
     13          6           0       -2.045815    1.552502   -0.439769
     14          1           0       -4.366647    0.436519   -1.457256
     15          1           0       -4.800297    1.542941   -0.157679
     16          1           0       -2.539604   -0.513546   -0.039105
     17          1           0       -2.972640    0.591604    1.260403
     18          1           0       -2.431333    2.553550   -0.220957
     19          1           0       -1.995837    1.442121   -1.527850
     20          1           0       -1.027083    1.487511   -0.045026
     21          6           0        5.562894   -0.085607    0.311149
     22          6           0        6.405896   -1.034484   -0.541472
     23          6           0        7.843079   -1.164386   -0.036077
     24          1           0        6.038768    0.904479    0.325988
     25          1           0        5.556329   -0.444844    1.349562
     26          1           0        6.409731   -0.674328   -1.578240
     27          1           0        5.927859   -2.022375   -0.554439
     28          1           0        7.857603   -1.545693    0.990079
     29          1           0        8.342212   -0.189987   -0.039538
     30          1           0        8.427897   -1.847357   -0.660095
     31          6           0        4.123684    0.054685   -0.181520
     32          6           0        3.280682    1.003563    0.671101
     33          6           0        1.843499    1.133465    0.165705
     34          1           0        4.130249    0.413923   -1.219932
     35          1           0        3.647811   -0.935400   -0.196359
     36          1           0        3.758719    1.991454    0.684069
     37          1           0        3.276847    0.643407    1.707869
     38          1           0        1.344366    0.159066    0.169168
     39          1           0        1.828976    1.514772   -0.860450
     40          1           0        1.258681    1.816436    0.789723
 ---------------------------------------------------------------------

 SCF Done:  E(RHF) =  -470.733045079     A.U. after   11 cycles
 E2 =    -0.1582359996D+01 EUMP2 =    -0.47231540507541D+03

 The electronic state is 1-A.
 Alpha  occ. eigenvalues --  -11.21619 -11.21610 -11.21566 -11.21511 -11.21419
 Alpha  occ. eigenvalues --  -11.21360 -11.21349 -11.21285 -11.21113 -11.21078
 Alpha  occ. eigenvalues --  -11.21045 -11.20867  -1.08447  -1.08366  -1.03559
 Alpha  occ. eigenvalues --   -1.03448  -0.96040  -0.95871  -0.87097  -0.86854
 Alpha  occ. eigenvalues --   -0.79659  -0.79483  -0.78258  -0.78182  -0.65075
 Alpha  occ. eigenvalues --   -0.64998  -0.60948  -0.60853  -0.59566  -0.59129
 Alpha  occ. eigenvalues --   -0.57618  -0.57510  -0.55288  -0.55188  -0.53057
 Alpha  occ. eigenvalues --   -0.52449  -0.52400  -0.52127  -0.49941  -0.49844
 Alpha  occ. eigenvalues --   -0.47936  -0.47827  -0.46643  -0.46558  -0.45800
 Alpha  occ. eigenvalues --   -0.45725  -0.45720  -0.45652  -0.43973  -0.43503
 Alpha virt. eigenvalues --    0.22534   0.22960   0.23637   0.24752   0.26611
 Alpha virt. eigenvalues --    0.26696   0.26905   0.27502   0.27574   0.28950
 Alpha virt. eigenvalues --    0.30354   0.31139   0.31475   0.31750   0.32039

 Mulliken charges:
               1
     1  C   -0.298133
     2  C   -0.299573
     3  C   -0.475656
     4  H    0.149424
     5  H    0.149325
     6  H    0.151858
     7  H    0.151867
     8  H    0.155098
     9  H    0.155085
    10  H    0.160127
    11  C   -0.298269
    12  C   -0.298670
    13  C   -0.486409
    14  H    0.149350
    15  H    0.149452
    16  H    0.151192
    17  H    0.151188
    18  H    0.153685
    19  H    0.154168
    20  H    0.174767
    21  C   -0.298352
    22  C   -0.299622
    23  C   -0.475712
    24  H    0.149713
    25  H    0.149556
    26  H    0.151960
    27  H    0.151940
    28  H    0.155196
    29  H    0.155206
    30  H    0.160286
    31  C   -0.298633
    32  C   -0.300181
    33  C   -0.477917
    34  H    0.149627
    35  H    0.149677
    36  H    0.152139
    37  H    0.152030
    38  H    0.155764
    39  H    0.156849
    40  H    0.160597
 Sum of Mulliken charges =  -0.00000

 Dipole moment (field-independent basis, Debye):
    X=              0.0643    Y=              0.0065    Z=              0.0022  Tot=              0.0646
 Quadrupole moment (field-independent basis, Debye-Ang):
   XX=            -86.6235   YY=            -84.3149   ZZ=            -84.0514
   XY=             -0.2407   XZ=             -0.3786   YZ=              0.3301

 Normal termination of Gaussian 16 at Wed May  5 18:24:35 2021.
