 Gaussian 16, Revision A.03,
 Gaussian 16:  EM64L-G16RevA.03 25-Dec-2016

 -------------
 #p 6-31g* mp2
 -------------

 ------------------------------------------------------
 Input file generated by CHIRIPA (05-May-2021 14:51:09)
 ------------------------------------------------------
 Symbolic Z-matrix:
 Charge =  0 Multiplicity = 1

                         Standard orientation:
 ---------------------------------------------------------------------
 Center     Atomic      Atomic             Coordinates (Angstroms)
 Number     Number       Type             X           Y           Z
 ---------------------------------------------------------------------
      1          6           0        4.205320    0.628121    0.330661
      2          6           0        2.950726    0.977547   -0.470513
      3          6           0        2.108835    2.066816    0.194699
      4          1           0        3.910679    0.302155    1.337576
      5          1           0        4.813013    1.534304    0.460806
      6          1           0        2.346260    0.070688   -0.600295
      7          1           0        3.248377    1.302536   -1.475700
      8          1           0        2.690763    2.986972    0.309914
      9          1           0        1.783520    1.748124    1.190293
     10          1           0        1.216947    2.301029   -0.394826
     11          6           0        5.057295   -0.459298   -0.321555
     12          6           0        6.311889   -0.808723    0.479619
     13          6           0        7.153780   -1.897992   -0.185593
     14          1           0        4.449603   -1.365480   -0.451700
     15          1           0        5.351936   -0.133331   -1.328470
     16          1           0        6.014238   -1.133712    1.484806
     17          1           0        6.916355    0.098136    0.609401
     18          1           0        7.479095   -1.579300   -1.181187
     19          1           0        6.571853   -2.818148   -0.300808
     20          1           0        8.045668   -2.132205    0.403931
     21          6           0       -4.139152    0.491733   -0.100842
     22          6           0       -2.678198    0.077579    0.078255
     23          6           0       -1.705674    1.241055   -0.117484
     24          1           0       -4.272397    0.917967   -1.104592
     25          1           0       -4.376028    1.292883    0.612912
     26          1           0       -2.444536   -0.723508   -0.634682
     27          1           0       -2.548458   -0.347895    1.081628
     28          1           0       -1.910426    2.039653    0.602875
     29          1           0       -1.805915    1.661907   -1.123185
     30          1           0       -0.666955    0.922700    0.015081
     31          6           0       -5.123463   -0.660557    0.091736
     32          6           0       -6.584417   -0.246403   -0.087361
     33          6           0       -7.556942   -1.409878    0.108378
     34          1           0       -4.886587   -1.461707   -0.622018
     35          1           0       -4.990218   -1.086792    1.095487
     36          1           0       -6.714157    0.179071   -1.090734
     37          1           0       -6.818079    0.554683    0.625575
     38          1           0       -7.456701   -1.830730    1.114080
     39          1           0       -7.352188   -2.208478   -0.611981
     40          1           0       -8.595660   -1.091524   -0.024187
 ---------------------------------------------------------------------

 SCF Done:  E(RHF) =  -470.732816773     A.U. after   11 cycles
 E2 =    -0.1582450614D+01 EUMP2 =    -0.47231526738635D+03

 The electronic state is 1-A.
 Alpha  occ. eigenvalues --  -11.21595 -11.21593 -11.21592 -11.21574 -11.21396
 Alpha  occ. eigenvalues --  -11.21388 -11.21336 -11.21328 -11.21067 -11.21064
 Alpha  occ. eigenvalues --  -11.20988 -11.20981  -1.08424  -1.08407  -1.03545
 Alpha  occ. eigenvalues --   -1.03481  -0.96036  -0.95889  -0.87089  -0.86872
 Alpha  occ. eigenvalues --   -0.79639  -0.79515  -0.78234  -0.78224  -0.65055
 Alpha  occ. eigenvalues --   -0.65042  -0.60944  -0.60904  -0.59634  -0.59089
 Alpha  occ. eigenvalues --   -0.57683  -0.57445  -0.55273  -0.55228  -0.53014
 Alpha  occ. eigenvalues --   -0.52452  -0.52391  -0.52162  -0.49926  -0.49866
 Alpha  occ. eigenvalues --   -0.47904  -0.47873  -0.46630  -0.46593  -0.45775
 Alpha  occ. eigenvalues --   -0.45766  -0.45703  -0.45692  -0.43949  -0.43534
 Alpha virt. eigenvalues --    0.22014   0.23013   0.23557   0.24974   0.26573
 Alpha virt. eigenvalues --    0.26663   0.27159   0.27414   0.27596   0.28931
 Alpha virt. eigenvalues --    0.30207   0.31334   0.31432   0.31681   0.32270

 Mulliken charges:
               1
     1  C   -0.298176
     2  C   -0.301409
     3  C   -0.480756
     4  H    0.149596
     5  H    0.149711
     6  H    0.151890
     7  H    0.152142
     8  H    0.155245
     9  H    0.154640
    10  H    0.166957
    11  C   -0.298256
    12  C   -0.299645
    13  C   -0.475698
    14  H    0.149441
    15  H    0.149642
    16  H    0.151915
    17  H    0.151937
    18  H    0.155170
    19  H    0.155160
    20  H    0.160232
    21  C   -0.298491
    22  C   -0.299937
    23  C   -0.481290
    24  H    0.149551
    25  H    0.149493
    26  H    0.151551
    27  H    0.151589
    28  H    0.155275
    29  H    0.153959
    30  H    0.168747
    31  C   -0.298211
    32  C   -0.299595
    33  C   -0.475684
    34  H    0.149423
    35  H    0.149538
    36  H    0.151917
    37  H    0.151920
    38  H    0.155139
    39  H    0.155144
    40  H    0.160223
 Sum of Mulliken charges =  -0.00000

 Dipole moment (field-independent basis, Debye):
    X=              0.0105    Y=              0.0160    Z=             -0.0012  Tot=              0.0192
 Quadrupole moment (field-independent basis, Debye-Ang):
   XX=            -85.8845   YY=            -85.3683   ZZ=            -83.6587
   XY=              0.3163   XZ=             -0.0137   YZ=             -0.3572

 Normal termination of Gaussian 16 at Wed May  5 15:07:10 2021.
