 Gaussian 16, Revision A.03,
 Gaussian 16:  EM64L-G16RevA.03 25-Dec-2016

 -------------
 #p 6-31g* mp2
 -------------

 ------------------------------------------------------
 Input file generated by CHIRIPA (05-May-2021 14:53:16)
 ------------------------------------------------------
 Symbolic Z-matrix:
 Charge =  0 Multiplicity = 1

                         Standard orientation:
 ---------------------------------------------------------------------
 Center     Atomic      Atomic             Coordinates (Angstroms)
 Number     Number       Type             X           Y           Z
 ---------------------------------------------------------------------
      1          6           0       -2.956019    0.909350   -0.104279
      2          6           0       -2.789598    2.189657    0.714931
      3          6           0       -1.443679    2.874271    0.474935
      4          1           0       -2.140871    0.215307    0.142264
      5          1           0       -2.850564    1.148879   -1.171471
      6          1           0       -2.896711    1.948014    1.780178
      7          1           0       -3.605345    2.880656    0.466550
      8          1           0       -1.331197    3.143606   -0.580246
      9          1           0       -0.618537    2.205665    0.740845
     10          1           0       -1.345864    3.787336    1.070422
     11          6           0       -4.296549    0.213493    0.124828
     12          6           0       -4.462970   -1.066814   -0.694382
     13          6           0       -5.808889   -1.751428   -0.454386
     14          1           0       -4.402004   -0.026036    1.192020
     15          1           0       -5.111697    0.907536   -0.121715
     16          1           0       -3.647223   -1.757813   -0.446001
     17          1           0       -4.355857   -0.825171   -1.759629
     18          1           0       -6.634031   -1.082822   -0.720296
     19          1           0       -5.921371   -2.020763    0.600795
     20          1           0       -5.906704   -2.664493   -1.049873
     21          6           0        4.421228    1.444684   -0.552792
     22          6           0        4.918930    0.166739   -0.277706
     23          6           0        4.048234   -0.884252    0.025368
     24          6           0        2.679494   -0.620680    0.044639
     25          6           0        2.152980    0.641611   -0.224982
     26          6           0        3.042273    1.677629   -0.525600
     27          1           0        5.104830    2.255303   -0.787273
     28          1           0        5.989368   -0.017082   -0.298100
     29          1           0        4.406501   -1.883261    0.242261
     30          1           0        1.080897    0.794171   -0.197029
     31          1           0        2.652917    2.669085   -0.738823
     32          7           0        1.747883   -1.725392    0.364190
     33          8           0        0.546257   -1.467284    0.374731
     34          8           0        2.236953   -2.828457    0.598061
 ---------------------------------------------------------------------

 SCF Done:  E(RHF) =  -669.536048785     A.U. after   15 cycles
 E2 =    -0.2091679638D+01 EUMP2 =    -0.67162772842240D+03

 The electronic state is 1-A.
 Alpha  occ. eigenvalues --  -20.60860 -20.60854 -15.85905 -11.31200 -11.27772
 Alpha  occ. eigenvalues --  -11.27730 -11.27505 -11.26780 -11.26753 -11.21497
 Alpha  occ. eigenvalues --  -11.21402 -11.20963 -11.20907 -11.20849 -11.20528
 Alpha  occ. eigenvalues --   -1.59926  -1.39482  -1.19371  -1.08781  -1.08030
 Alpha  occ. eigenvalues --   -1.04765  -1.03241  -0.95723  -0.95623  -0.86758
 Alpha  occ. eigenvalues --   -0.86166  -0.82457  -0.79314  -0.77810  -0.77487
 Alpha  occ. eigenvalues --   -0.72126  -0.71243  -0.70491  -0.65027  -0.64801
 Alpha  occ. eigenvalues --   -0.64619  -0.62144  -0.60623  -0.59109  -0.57309
 Alpha  occ. eigenvalues --   -0.55301  -0.54994  -0.53100  -0.52880  -0.52449
 Alpha  occ. eigenvalues --   -0.52135  -0.49680  -0.48883  -0.48870  -0.47621
 Alpha  occ. eigenvalues --   -0.46294  -0.45354  -0.45194  -0.44900  -0.43444
 Alpha  occ. eigenvalues --   -0.37355  -0.36363
 Alpha virt. eigenvalues --    0.05001   0.11264   0.16514   0.20385   0.23202
 Alpha virt. eigenvalues --    0.24146   0.26046   0.26990   0.27703   0.28324
 Alpha virt. eigenvalues --    0.29709   0.30503   0.31508   0.31929   0.32275

 Mulliken charges:
               1
     1  C   -0.308892
     2  C   -0.297756
     3  C   -0.481999
     4  H    0.170670
     5  H    0.145178
     6  H    0.154666
     7  H    0.151298
     8  H    0.151790
     9  H    0.152072
    10  H    0.160841
    11  C   -0.297648
    12  C   -0.301900
    13  C   -0.475622
    14  H    0.150563
    15  H    0.146182
    16  H    0.162910
    17  H    0.149370
    18  H    0.152298
    19  H    0.155456
    20  H    0.160121
    21  C   -0.170570
    22  C   -0.218809
    23  C   -0.170460
    24  C    0.158740
    25  C   -0.178902
    26  C   -0.221358
    27  H    0.225714
    28  H    0.223471
    29  H    0.275461
    30  H    0.286322
    31  H    0.224950
    32  N    0.490473
    33  O   -0.465010
    34  O   -0.459617
 Sum of Mulliken charges =  -0.00000

 Dipole moment (field-independent basis, Debye):
    X=              3.3208    Y=              3.7646    Z=             -1.0812  Tot=              5.1351
 Quadrupole moment (field-independent basis, Debye-Ang):
   XX=            -75.3191   YY=            -98.3364   ZZ=            -95.1693
   XY=              5.2373   XZ=             -2.3453   YZ=              0.1075

 Normal termination of Gaussian 16 at Thu May  6 18:53:06 2021.
