 Gaussian 16, Revision A.03,
 Gaussian 16:  EM64L-G16RevA.03 25-Dec-2016

 -------------
 #p 6-31g* mp2
 -------------

 ------------------------------------------------------
 Input file generated by CHIRIPA (05-May-2021 14:53:17)
 ------------------------------------------------------
 Symbolic Z-matrix:
 Charge =  0 Multiplicity = 1

                         Standard orientation:
 ---------------------------------------------------------------------
 Center     Atomic      Atomic             Coordinates (Angstroms)
 Number     Number       Type             X           Y           Z
 ---------------------------------------------------------------------
      1          6           0       -2.418145    0.392466    0.118267
      2          6           0       -3.842553   -0.004392   -0.271029
      3          6           0       -4.189493   -1.436623    0.136573
      4          1           0       -1.709383   -0.305070   -0.348688
      5          1           0       -2.297575    0.280010    1.204642
      6          1           0       -3.960817    0.110101   -1.356165
      7          1           0       -4.547995    0.694285    0.196752
      8          1           0       -4.099397   -1.561224    1.220528
      9          1           0       -3.508882   -2.148727   -0.341213
     10          1           0       -5.212212   -1.699389   -0.151282
     11          6           0       -2.056436    1.821533   -0.282560
     12          6           0       -0.632028    2.218390    0.106735
     13          6           0       -0.285088    3.650622   -0.300866
     14          1           0       -2.177006    1.933988   -1.368936
     15          1           0       -2.765198    2.519068    0.184394
     16          1           0        0.073414    1.519714   -0.361045
     17          1           0       -0.513764    2.103898    1.191872
     18          1           0       -0.965699    4.362725    0.176919
     19          1           0       -0.375184    3.775222   -1.384821
     20          1           0        0.737631    3.913388   -0.013011
     21          6           0        3.338942    1.090958    0.160618
     22          6           0        2.576601    0.752722    1.283540
     23          6           0        1.691840   -0.328933    1.241496
     24          6           0        1.594066   -1.053923    0.054854
     25          6           0        2.340037   -0.741743   -1.080646
     26          6           0        3.218439    0.343963   -1.015818
     27          1           0        4.023775    1.932786    0.202128
     28          1           0        2.668124    1.331066    2.198519
     29          1           0        1.089690   -0.612678    2.096085
     30          1           0        2.227084   -1.337035   -1.978581
     31          1           0        3.809228    0.604346   -1.889439
     32          7           0        0.660775   -2.201166   -0.001717
     33          8           0        0.592972   -2.824037   -1.059106
     34          8           0        0.014735   -2.455782    1.012404
 ---------------------------------------------------------------------

 SCF Done:  E(RHF) =  -669.534238057     A.U. after   15 cycles
 E2 =    -0.2095846113D+01 EUMP2 =    -0.67163008417001D+03

 The electronic state is 1-A.
 Alpha  occ. eigenvalues --  -20.60873 -20.60854 -15.85899 -11.31232 -11.27853
 Alpha  occ. eigenvalues --  -11.27782 -11.27579 -11.26861 -11.26796 -11.21495
 Alpha  occ. eigenvalues --  -11.21223 -11.21141 -11.21025 -11.20912 -11.20164
 Alpha  occ. eigenvalues --   -1.59939  -1.39489  -1.19446  -1.08834  -1.08111
 Alpha  occ. eigenvalues --   -1.04836  -1.03178  -0.95670  -0.95627  -0.86641
 Alpha  occ. eigenvalues --   -0.86229  -0.82499  -0.79296  -0.77914  -0.77538
 Alpha  occ. eigenvalues --   -0.72125  -0.71268  -0.70541  -0.65086  -0.64835
 Alpha  occ. eigenvalues --   -0.64746  -0.62179  -0.60595  -0.59109  -0.57241
 Alpha  occ. eigenvalues --   -0.55335  -0.54911  -0.53296  -0.52921  -0.52307
 Alpha  occ. eigenvalues --   -0.52010  -0.49544  -0.48890  -0.48882  -0.47518
 Alpha  occ. eigenvalues --   -0.46282  -0.45522  -0.45333  -0.44724  -0.43443
 Alpha  occ. eigenvalues --   -0.37415  -0.36360
 Alpha virt. eigenvalues --    0.04966   0.11162   0.16390   0.21109   0.23118
 Alpha virt. eigenvalues --    0.24611   0.26215   0.26882   0.27633   0.28345
 Alpha virt. eigenvalues --    0.28724   0.30906   0.31667   0.31781   0.32528

 Mulliken charges:
               1
     1  C   -0.297461
     2  C   -0.299862
     3  C   -0.476627
     4  H    0.150513
     5  H    0.149953
     6  H    0.150329
     7  H    0.148441
     8  H    0.156184
     9  H    0.167734
    10  H    0.156001
    11  C   -0.298299
    12  C   -0.301203
    13  C   -0.474096
    14  H    0.148609
    15  H    0.147870
    16  H    0.159552
    17  H    0.144099
    18  H    0.155036
    19  H    0.155099
    20  H    0.152147
    21  C   -0.171053
    22  C   -0.214599
    23  C   -0.168231
    24  C    0.156100
    25  C   -0.173471
    26  C   -0.218008
    27  H    0.226130
    28  H    0.223659
    29  H    0.275623
    30  H    0.275902
    31  H    0.224002
    32  N    0.488697
    33  O   -0.460952
    34  O   -0.457817
 Sum of Mulliken charges =  -0.00000

 Dipole moment (field-independent basis, Debye):
    X=              3.3625    Y=              3.8370    Z=              0.2252  Tot=              5.1069
 Quadrupole moment (field-independent basis, Debye-Ang):
   XX=            -84.7362   YY=           -105.2183   ZZ=            -89.5361
   XY=              2.6827   XZ=             -1.1899   YZ=              1.4578

 Normal termination of Gaussian 16 at Thu May  6 12:17:43 2021.
