 Gaussian 16, Revision A.03,
 Gaussian 16:  EM64L-G16RevA.03 25-Dec-2016

 -------------
 #p 6-31g* mp2
 -------------

 ------------------------------------------------------
 Input file generated by CHIRIPA (05-May-2021 14:53:13)
 ------------------------------------------------------
 Symbolic Z-matrix:
 Charge =  0 Multiplicity = 1

                         Standard orientation:
 ---------------------------------------------------------------------
 Center     Atomic      Atomic             Coordinates (Angstroms)
 Number     Number       Type             X           Y           Z
 ---------------------------------------------------------------------
      1          6           0       -3.077146   -0.287044    0.294644
      2          6           0       -4.398011   -0.990975    0.607346
      3          6           0       -4.212904   -2.468818    0.953048
      4          1           0       -2.583690   -0.801595   -0.541230
      5          1           0       -2.405920   -0.380964    1.159531
      6          1           0       -5.067055   -0.894564   -0.257351
      7          1           0       -4.888470   -0.474573    1.442447
      8          1           0       -3.566262   -2.581420    1.829276
      9          1           0       -3.745861   -3.003797    0.119820
     10          1           0       -5.169695   -2.952545    1.173091
     11          6           0       -3.245796    1.190977   -0.052831
     12          6           0       -1.924931    1.894907   -0.365534
     13          6           0       -2.110038    3.372750   -0.711236
     14          1           0       -3.917021    1.284896   -0.917719
     15          1           0       -3.739251    1.705527    0.783042
     16          1           0       -1.434471    1.378505   -1.200635
     17          1           0       -1.255887    1.798496    0.499163
     18          1           0       -2.577080    3.907729    0.121993
     19          1           0       -2.756680    3.485352   -1.587464
     20          1           0       -1.153247    3.856477   -0.931279
     21          6           0        3.641071    1.608344    0.976534
     22          6           0        2.461763    1.808031    0.251359
     23          6           0        1.804368    0.728595   -0.346303
     24          6           0        2.356675   -0.542723   -0.197998
     25          6           0        3.530059   -0.773881    0.518260
     26          6           0        4.170522    0.320296    1.107439
     27          1           0        4.145175    2.452601    1.437517
     28          1           0        2.048291    2.807236    0.148042
     29          1           0        0.889986    0.854771   -0.913226
     30          1           0        3.918057   -1.781628    0.603825
     31          1           0        5.086241    0.162238    1.670041
     32          7           0        1.669682   -1.693277   -0.826225
     33          8           0        2.176671   -2.803441   -0.680855
     34          8           0        0.637236   -1.463128   -1.452105
 ---------------------------------------------------------------------

 SCF Done:  E(RHF) =  -669.535750409     A.U. after   15 cycles
 E2 =    -0.2092281098D+01 EUMP2 =    -0.67162803150751D+03

 The electronic state is 1-A.
 Alpha  occ. eigenvalues --  -20.60791 -20.60786 -15.85833 -11.31141 -11.27734
 Alpha  occ. eigenvalues --  -11.27654 -11.27475 -11.26739 -11.26717 -11.21882
 Alpha  occ. eigenvalues --  -11.21471 -11.21317 -11.21192 -11.20911 -11.20543
 Alpha  occ. eigenvalues --   -1.59856  -1.39412  -1.19325  -1.08733  -1.08281
 Alpha  occ. eigenvalues --   -1.04723  -1.03442  -0.95861  -0.95572  -0.86883
 Alpha  occ. eigenvalues --   -0.86123  -0.82407  -0.79591  -0.78045  -0.77415
 Alpha  occ. eigenvalues --   -0.72055  -0.71172  -0.70439  -0.64995  -0.64904
 Alpha  occ. eigenvalues --   -0.64716  -0.62100  -0.60828  -0.59290  -0.57466
 Alpha  occ. eigenvalues --   -0.55235  -0.55121  -0.53062  -0.52855  -0.52606
 Alpha  occ. eigenvalues --   -0.52252  -0.49788  -0.48814  -0.48809  -0.47830
 Alpha  occ. eigenvalues --   -0.46588  -0.45579  -0.45432  -0.44783  -0.43654
 Alpha  occ. eigenvalues --   -0.37315  -0.36311
 Alpha virt. eigenvalues --    0.05046   0.11318   0.16500   0.20316   0.23158
 Alpha virt. eigenvalues --    0.24121   0.25861   0.26529   0.27270   0.28355
 Alpha virt. eigenvalues --    0.29564   0.30274   0.31500   0.31826   0.32634

 Mulliken charges:
               1
     1  C   -0.303370
     2  C   -0.299757
     3  C   -0.476167
     4  H    0.166823
     5  H    0.147006
     6  H    0.151355
     7  H    0.148634
     8  H    0.154392
     9  H    0.161918
    10  H    0.158037
    11  C   -0.296596
    12  C   -0.311433
    13  C   -0.474340
    14  H    0.150942
    15  H    0.148229
    16  H    0.158494
    17  H    0.148953
    18  H    0.156823
    19  H    0.159435
    20  H    0.150911
    21  C   -0.170368
    22  C   -0.223869
    23  C   -0.174093
    24  C    0.155968
    25  C   -0.170134
    26  C   -0.219215
    27  H    0.225465
    28  H    0.224239
    29  H    0.287604
    30  H    0.275389
    31  H    0.223223
    32  N    0.488002
    33  O   -0.460038
    34  O   -0.462462
 Sum of Mulliken charges =  -0.00000

 Dipole moment (field-independent basis, Debye):
    X=              2.3564    Y=              3.9201    Z=              2.1409  Tot=              5.0501
 Quadrupole moment (field-independent basis, Debye-Ang):
   XX=            -81.1850   YY=            -99.0008   ZZ=            -94.9045
   XY=              5.9764   XZ=              6.7590   YZ=             -2.6203

 Normal termination of Gaussian 16 at Thu May  6 12:03:28 2021.
