 Gaussian 16, Revision A.03,
 Gaussian 16:  EM64L-G16RevA.03 25-Dec-2016

 -------------
 #p 6-31g* mp2
 -------------

 ------------------------------------------------------
 Input file generated by CHIRIPA (05-May-2021 14:57:24)
 ------------------------------------------------------
 Symbolic Z-matrix:
 Charge =  0 Multiplicity = 1

                         Standard orientation:
 ---------------------------------------------------------------------
 Center     Atomic      Atomic             Coordinates (Angstroms)
 Number     Number       Type             X           Y           Z
 ---------------------------------------------------------------------
      1          6           0        3.234081   -1.474005    1.390793
      2          6           0        3.233561   -1.606856   -0.001641
      3          6           0        2.799241   -0.555953   -0.814978
      4          6           0        2.370175    0.618990   -0.199592
      5          6           0        2.358856    0.781853    1.184835
      6          6           0        2.797497   -0.282176    1.978550
      7          1           0        3.573150   -2.295470    2.014991
      8          1           0        3.572071   -2.531289   -0.460856
      9          1           0        2.788393   -0.631889   -1.895503
     10          1           0        2.015650    1.715561    1.613572
     11          1           0        2.796807   -0.176182    3.059665
     12          7           0        1.908093    1.738482   -1.050249
     13          8           0        1.534951    2.763319   -0.483583
     14          8           0        1.927804    1.569905   -2.267554
     15          6           0       -4.027173    1.360452    0.862555
     16          6           0       -4.402168    0.516181   -0.187735
     17          6           0       -3.534310   -0.481797   -0.640954
     18          6           0       -2.293502   -0.608013   -0.018254
     19          6           0       -1.891022    0.217635    1.030367
     20          6           0       -2.775004    1.208751    1.467187
     21          1           0       -4.707609    2.133040    1.208257
     22          1           0       -5.373994    0.631688   -0.659177
     23          1           0       -3.799150   -1.149097   -1.452120
     24          1           0       -0.915671    0.078199    1.480551
     25          1           0       -2.481109    1.862987    2.283058
     26          7           0       -1.366203   -1.660895   -0.489376
     27          8           0       -0.278612   -1.751580    0.075918
     28          8           0       -1.744538   -2.375523   -1.415015
 ---------------------------------------------------------------------

 SCF Done:  E(RHF) =  -868.338370641     A.U. after   16 cycles
 E2 =    -0.2601805199D+01 EUMP2 =    -0.87094017583943D+03

 The electronic state is 1-A.
 Alpha  occ. eigenvalues --  -20.60801 -20.60795 -20.60325 -20.60292 -15.85822
 Alpha  occ. eigenvalues --  -15.85352 -11.31035 -11.30426 -11.27592 -11.27582
 Alpha  occ. eigenvalues --  -11.27303 -11.27104 -11.26889 -11.26680 -11.26577
 Alpha  occ. eigenvalues --  -11.26567 -11.26085 -11.25847  -1.59873  -1.59393
 Alpha  occ. eigenvalues --   -1.39432  -1.38955  -1.19192  -1.18568  -1.08621
 Alpha  occ. eigenvalues --   -1.08031  -1.04578  -1.03966  -0.95487  -0.94921
 Alpha  occ. eigenvalues --   -0.85988  -0.85400  -0.82328  -0.81784  -0.77398
 Alpha  occ. eigenvalues --   -0.76863  -0.72083  -0.71588  -0.71203  -0.70688
 Alpha  occ. eigenvalues --   -0.70315  -0.69747  -0.64858  -0.64594  -0.64269
 Alpha  occ. eigenvalues --   -0.64020  -0.61945  -0.61364  -0.55094  -0.54507
 Alpha  occ. eigenvalues --   -0.52902  -0.52703  -0.52193  -0.52106  -0.48845
 Alpha  occ. eigenvalues --   -0.48795  -0.48356  -0.48313  -0.44866  -0.44423
 Alpha  occ. eigenvalues --   -0.37162  -0.36482  -0.36159  -0.35451
 Alpha virt. eigenvalues --    0.05081   0.05702   0.11439   0.12134   0.16663
 Alpha virt. eigenvalues --    0.17222   0.21493   0.22145   0.27162   0.28006
 Alpha virt. eigenvalues --    0.28456   0.29100   0.31064   0.31588   0.32437

 Mulliken charges:
               1
     1  C   -0.165012
     2  C   -0.204728
     3  C   -0.158357
     4  C    0.162866
     5  C   -0.180387
     6  C   -0.217810
     7  H    0.223398
     8  H    0.223876
     9  H    0.274987
    10  H    0.266824
    11  H    0.217395
    12  N    0.486868
    13  O   -0.467982
    14  O   -0.459935
    15  C   -0.169344
    16  C   -0.218028
    17  C   -0.169511
    18  C    0.157748
    19  C   -0.171322
    20  C   -0.215690
    21  H    0.225984
    22  H    0.223516
    23  H    0.275186
    24  H    0.273185
    25  H    0.222820
    26  N    0.489370
    27  O   -0.465155
    28  O   -0.460762
 Sum of Mulliken charges =  -0.00000

 Dipole moment (field-independent basis, Debye):
    X=             -1.6588    Y=             -0.5126    Z=              4.4791  Tot=              4.8038
 Quadrupole moment (field-independent basis, Debye-Ang):
   XX=            -80.3479   YY=           -113.5994   ZZ=           -101.3369
   XY=            -15.6132   XZ=              4.5352   YZ=              5.3180

 Normal termination of Gaussian 16 at Thu May  6 19:39:02 2021.
