 Gaussian 16, Revision A.03,
 Gaussian 16:  EM64L-G16RevA.03 25-Dec-2016

 -------------
 #p 6-31g* mp2
 -------------

 ------------------------------------------------------
 Input file generated by CHIRIPA (05-May-2021 14:51:13)
 ------------------------------------------------------
 Symbolic Z-matrix:
 Charge =  0 Multiplicity = 1

                         Standard orientation:
 ---------------------------------------------------------------------
 Center     Atomic      Atomic             Coordinates (Angstroms)
 Number     Number       Type             X           Y           Z
 ---------------------------------------------------------------------
      1          6           0        2.805014   -0.280411    0.634986
      2          6           0        2.731007   -1.806258    0.569411
      3          6           0        1.550698   -2.375267    1.357379
      4          1           0        2.879035    0.031929    1.685657
      5          1           0        1.867175    0.142158    0.248608
      6          1           0        3.669252   -2.225794    0.954511
      7          1           0        2.657346   -2.115011   -0.481238
      8          1           0        0.604386   -1.984451    0.969619
      9          1           0        1.622041   -2.095863    2.413525
     10          1           0        1.516860   -3.467541    1.296947
     11          6           0        3.979755    0.303341   -0.147921
     12          6           0        4.053762    1.829188   -0.082345
     13          6           0        5.234071    2.398196   -0.870313
     14          1           0        4.917594   -0.119229    0.238457
     15          1           0        3.905734   -0.008999   -1.198592
     16          1           0        4.127423    2.137941    0.968303
     17          1           0        3.115517    2.248724   -0.467445
     18          1           0        5.162727    2.118793   -1.926460
     19          1           0        6.180383    2.007380   -0.482553
     20          1           0        5.267909    3.490471   -0.809882
     21          6           0       -3.322045   -0.675452   -0.614484
     22          6           0       -1.916528   -1.271524   -0.529595
     23          6           0       -1.791607   -2.599768   -1.276561
     24          1           0       -4.044289   -1.396156   -0.207179
     25          1           0       -3.587746   -0.529618   -1.670670
     26          1           0       -1.653015   -1.414903    0.526160
     27          1           0       -1.197525   -0.549241   -0.936973
     28          1           0       -2.028392   -2.468903   -2.337414
     29          1           0       -2.486470   -3.339483   -0.865967
     30          1           0       -0.778841   -3.008101   -1.202865
     31          6           0       -3.462724    0.652523    0.127418
     32          6           0       -4.868240    1.248595    0.042529
     33          6           0       -4.993162    2.576838    0.789495
     34          1           0       -3.197022    0.506689    1.183605
     35          1           0       -2.740480    1.373226   -0.279886
     36          1           0       -5.587245    0.526311    0.449907
     37          1           0       -5.131753    1.391974   -1.013226
     38          1           0       -4.298299    3.316554    0.378901
     39          1           0       -4.756378    2.445973    1.850347
     40          1           0       -6.005928    2.985171    0.715799
 ---------------------------------------------------------------------

 SCF Done:  E(RHF) =  -470.733056848     A.U. after   11 cycles
 E2 =    -0.1583127493D+01 EUMP2 =    -0.47231618434039D+03

 The electronic state is 1-A.
 Alpha  occ. eigenvalues --  -11.21662 -11.21620 -11.21593 -11.21570 -11.21438
 Alpha  occ. eigenvalues --  -11.21384 -11.21377 -11.21323 -11.21096 -11.21083
 Alpha  occ. eigenvalues --  -11.21066 -11.20969  -1.08471  -1.08403  -1.03590
 Alpha  occ. eigenvalues --   -1.03483  -0.96036  -0.95925  -0.87024  -0.86969
 Alpha  occ. eigenvalues --   -0.79689  -0.79526  -0.78312  -0.78191  -0.65105
 Alpha  occ. eigenvalues --   -0.65038  -0.61039  -0.60884  -0.59376  -0.59317
 Alpha  occ. eigenvalues --   -0.57708  -0.57504  -0.55332  -0.55164  -0.52719
 Alpha  occ. eigenvalues --   -0.52630  -0.52431  -0.52371  -0.49988  -0.49849
 Alpha  occ. eigenvalues --   -0.48071  -0.47794  -0.46736  -0.46525  -0.45906
 Alpha  occ. eigenvalues --   -0.45759  -0.45718  -0.45543  -0.43821  -0.43753
 Alpha virt. eigenvalues --    0.21047   0.23074   0.23502   0.25153   0.25926
 Alpha virt. eigenvalues --    0.26251   0.27008   0.27467   0.28164   0.29077
 Alpha virt. eigenvalues --    0.30665   0.31171   0.31259   0.31878   0.32077

 Mulliken charges:
               1
     1  C   -0.299133
     2  C   -0.299196
     3  C   -0.486185
     4  H    0.149605
     5  H    0.150330
     6  H    0.151746
     7  H    0.151379
     8  H    0.167591
     9  H    0.154465
    10  H    0.159512
    11  C   -0.298298
    12  C   -0.299579
    13  C   -0.475690
    14  H    0.149535
    15  H    0.149505
    16  H    0.151982
    17  H    0.151721
    18  H    0.155106
    19  H    0.155205
    20  H    0.160195
    21  C   -0.297423
    22  C   -0.304323
    23  C   -0.477977
    24  H    0.150039
    25  H    0.149586
    26  H    0.154653
    27  H    0.151575
    28  H    0.155295
    29  H    0.155683
    30  H    0.162860
    31  C   -0.298485
    32  C   -0.299693
    33  C   -0.475730
    34  H    0.149901
    35  H    0.149444
    36  H    0.152053
    37  H    0.151931
    38  H    0.155181
    39  H    0.155314
    40  H    0.160321
 Sum of Mulliken charges =  -0.00000

 Dipole moment (field-independent basis, Debye):
    X=             -0.0431    Y=              0.0010    Z=              0.0009  Tot=              0.0431
 Quadrupole moment (field-independent basis, Debye-Ang):
   XX=            -85.1163   YY=            -85.8183   ZZ=            -83.8902
   XY=             -0.0347   XZ=              0.7778   YZ=             -0.6388

 Normal termination of Gaussian 16 at Thu May  6 00:49:15 2021.
