 Gaussian 16, Revision A.03,
 Gaussian 16:  EM64L-G16RevA.03 25-Dec-2016

 -------------
 #p 6-31g* mp2
 -------------

 ------------------------------------------------------
 Input file generated by CHIRIPA (05-May-2021 14:57:22)
 ------------------------------------------------------
 Symbolic Z-matrix:
 Charge =  0 Multiplicity = 1

                         Standard orientation:
 ---------------------------------------------------------------------
 Center     Atomic      Atomic             Coordinates (Angstroms)
 Number     Number       Type             X           Y           Z
 ---------------------------------------------------------------------
      1          6           0        2.180560    2.446399   -0.678115
      2          6           0        3.441275    2.143824   -0.153172
      3          6           0        3.795850    0.820245    0.124251
      4          6           0        2.861005   -0.180401   -0.136634
      5          6           0        1.597126    0.089158   -0.659355
      6          6           0        1.264125    1.419910   -0.929089
      7          1           0        1.913497    3.477374   -0.890637
      8          1           0        4.155005    2.938968    0.042740
      9          1           0        4.764974    0.557850    0.530903
     10          1           0        0.906869   -0.724989   -0.844092
     11          1           0        0.284315    1.651944   -1.336740
     12          7           0        3.224958   -1.585412    0.152992
     13          8           0        2.383439   -2.448823   -0.085762
     14          8           0        4.344853   -1.796644    0.613269
     15          6           0       -2.513469    2.405730    0.681277
     16          6           0       -3.623410    1.963932   -0.046299
     17          6           0       -3.792947    0.604982   -0.327473
     18          6           0       -2.828821   -0.288685    0.136327
     19          6           0       -1.712205    0.120550    0.863642
     20          6           0       -1.563085    1.484253    1.133130
     21          1           0       -2.389700    3.463242    0.895161
     22          1           0       -4.363085    2.677304   -0.398472
     23          1           0       -4.642736    0.235656   -0.888610
     24          1           0       -0.991656   -0.614377    1.201442
     25          1           0       -0.700096    1.824498    1.698398
     26          7           0       -2.997494   -1.729861   -0.155152
     27          8           0       -2.133918   -2.497087    0.264655
     28          8           0       -3.990082   -2.064940   -0.797902
 ---------------------------------------------------------------------

 SCF Done:  E(RHF) =  -868.335749399     A.U. after   16 cycles
 E2 =    -0.2603585907D+01 EUMP2 =    -0.87093933530557D+03

 The electronic state is 1-A.
 Alpha  occ. eigenvalues --  -20.61083 -20.61052 -20.60851 -20.60815 -15.86118
 Alpha  occ. eigenvalues --  -15.85889 -11.31739 -11.31491 -11.28268 -11.28237
 Alpha  occ. eigenvalues --  -11.28070 -11.28033 -11.27982 -11.27836 -11.27376
 Alpha  occ. eigenvalues --  -11.27326 -11.27145 -11.27060  -1.60143  -1.59913
 Alpha  occ. eigenvalues --   -1.39685  -1.39455  -1.19933  -1.19667  -1.09278
 Alpha  occ. eigenvalues --   -1.09029  -1.05392  -1.05030  -0.96065  -0.95819
 Alpha  occ. eigenvalues --   -0.86750  -0.86433  -0.82884  -0.82610  -0.77908
 Alpha  occ. eigenvalues --   -0.77610  -0.72315  -0.72089  -0.71486  -0.71254
 Alpha  occ. eigenvalues --   -0.71030  -0.70731  -0.65546  -0.65370  -0.65285
 Alpha  occ. eigenvalues --   -0.65007  -0.62718  -0.62344  -0.55832  -0.55594
 Alpha  occ. eigenvalues --   -0.53924  -0.53407  -0.53307  -0.53001  -0.49106
 Alpha  occ. eigenvalues --   -0.49069  -0.48880  -0.48838  -0.45027  -0.44806
 Alpha  occ. eigenvalues --   -0.38059  -0.37691  -0.37450  -0.36051
 Alpha virt. eigenvalues --    0.04396   0.05063   0.10021   0.11469   0.15802
 Alpha virt. eigenvalues --    0.16595   0.20719   0.21281   0.26525   0.27028
 Alpha virt. eigenvalues --    0.27434   0.28233   0.30197   0.30824   0.31498

 Mulliken charges:
               1
     1  C   -0.177492
     2  C   -0.218060
     3  C   -0.172387
     4  C    0.158387
     5  C   -0.182284
     6  C   -0.218203
     7  H    0.223145
     8  H    0.223714
     9  H    0.276701
    10  H    0.282807
    11  H    0.228367
    12  N    0.486992
    13  O   -0.453038
    14  O   -0.460668
    15  C   -0.177860
    16  C   -0.218396
    17  C   -0.172324
    18  C    0.157561
    19  C   -0.181018
    20  C   -0.218576
    21  H    0.224918
    22  H    0.224946
    23  H    0.277637
    24  H    0.282509
    25  H    0.228027
    26  N    0.487073
    27  O   -0.453490
    28  O   -0.458988
 Sum of Mulliken charges =  -0.00000

 Dipole moment (field-independent basis, Debye):
    X=             -0.7534    Y=              9.7894    Z=              0.0283  Tot=              9.8184
 Quadrupole moment (field-independent basis, Debye-Ang):
   XX=           -108.0189   YY=           -109.9651   ZZ=           -103.8667
   XY=              0.3820   XZ=             -1.6524   YZ=             -0.0758

 Normal termination of Gaussian 16 at Fri May  7 00:12:14 2021.
