 Gaussian 16, Revision A.03,
 Gaussian 16:  EM64L-G16RevA.03 25-Dec-2016

 -------------
 #p 6-31g* mp2
 -------------

 ------------------------------------------------------
 Input file generated by CHIRIPA (05-May-2021 14:53:13)
 ------------------------------------------------------
 Symbolic Z-matrix:
 Charge =  0 Multiplicity = 1

                         Standard orientation:
 ---------------------------------------------------------------------
 Center     Atomic      Atomic             Coordinates (Angstroms)
 Number     Number       Type             X           Y           Z
 ---------------------------------------------------------------------
      1          6           0       -3.912878    1.054439   -0.007362
      2          6           0       -2.466157    1.028449    0.486915
      3          6           0       -1.739624    2.354317    0.258842
      4          1           0       -3.923505    1.300574   -1.077993
      5          1           0       -4.453444    1.862611    0.504537
      6          1           0       -1.928844    0.219677   -0.024749
      7          1           0       -2.458962    0.782159    1.556450
      8          1           0       -2.250300    3.168576    0.783050
      9          1           0       -1.717171    2.602899   -0.807133
     10          1           0       -0.707098    2.313536    0.619517
     11          6           0       -4.652370   -0.263899    0.213687
     12          6           0       -6.099091   -0.237909   -0.280590
     13          6           0       -6.825623   -1.563778   -0.052518
     14          1           0       -4.111804   -1.072071   -0.298213
     15          1           0       -4.641743   -0.510034    1.284317
     16          1           0       -6.106286    0.008381   -1.350126
     17          1           0       -6.636404    0.570862    0.231073
     18          1           0       -6.848077   -1.812359    1.013458
     19          1           0       -6.314948   -2.378037   -0.576725
     20          1           0       -7.858150   -1.522997   -0.413193
     21          6           0        5.767169    0.367126    0.133907
     22          6           0        4.802033    1.320088   -0.207991
     23          6           0        3.457481    0.956867   -0.329641
     24          6           0        3.111711   -0.374151   -0.101333
     25          6           0        4.050004   -1.346720    0.240727
     26          6           0        5.388743   -0.960895    0.356781
     27          1           0        6.809391    0.658064    0.226234
     28          1           0        5.093032    2.352176   -0.381657
     29          1           0        2.689748    1.674228   -0.593075
     30          1           0        3.729451   -2.367879    0.407753
     31          1           0        6.136126   -1.703116    0.622435
     32          7           0        1.691372   -0.770642   -0.227157
     33          8           0        1.412474   -1.949751   -0.020871
     34          8           0        0.883902    0.105206   -0.529680
 ---------------------------------------------------------------------

 SCF Done:  E(RHF) =  -669.536143432     A.U. after   15 cycles
 E2 =    -0.2091577352D+01 EUMP2 =    -0.67162772078468D+03

 The electronic state is 1-A.
 Alpha  occ. eigenvalues --  -20.61022 -20.61008 -15.86032 -11.31330 -11.27889
 Alpha  occ. eigenvalues --  -11.27885 -11.27622 -11.26890 -11.26880 -11.20762
 Alpha  occ. eigenvalues --  -11.20349 -11.20322 -11.20160 -11.19914 -11.19672
 Alpha  occ. eigenvalues --   -1.60071  -1.39628  -1.19495  -1.08906  -1.07277
 Alpha  occ. eigenvalues --   -1.04887  -1.02353  -0.95756  -0.94854  -0.86289
 Alpha  occ. eigenvalues --   -0.85892  -0.82586  -0.78454  -0.77642  -0.77035
 Alpha  occ. eigenvalues --   -0.72267  -0.71379  -0.70604  -0.65154  -0.64890
 Alpha  occ. eigenvalues --   -0.63908  -0.62234  -0.59744  -0.58243  -0.56425
 Alpha  occ. eigenvalues --   -0.55392  -0.54164  -0.53220  -0.52977  -0.51571
 Alpha  occ. eigenvalues --   -0.51284  -0.49097  -0.49003  -0.48800  -0.46754
 Alpha  occ. eigenvalues --   -0.45472  -0.45033  -0.44615  -0.44395  -0.42623
 Alpha  occ. eigenvalues --   -0.37473  -0.36487
 Alpha virt. eigenvalues --    0.04865   0.11167   0.16353   0.21224   0.23953
 Alpha virt. eigenvalues --    0.25301   0.27119   0.27753   0.27909   0.28740
 Alpha virt. eigenvalues --    0.29166   0.30740   0.31847   0.32489   0.32883

 Mulliken charges:
               1
     1  C   -0.297810
     2  C   -0.305246
     3  C   -0.470842
     4  H    0.147137
     5  H    0.143397
     6  H    0.179212
     7  H    0.144616
     8  H    0.144119
     9  H    0.151426
    10  H    0.161944
    11  C   -0.297974
    12  C   -0.298690
    13  C   -0.475121
    14  H    0.153306
    15  H    0.147665
    16  H    0.150564
    17  H    0.149379
    18  H    0.153997
    19  H    0.155567
    20  H    0.157220
    21  C   -0.170489
    22  C   -0.218568
    23  C   -0.171154
    24  C    0.157500
    25  C   -0.170558
    26  C   -0.218607
    27  H    0.226147
    28  H    0.224117
    29  H    0.276442
    30  H    0.275914
    31  H    0.223934
    32  N    0.491253
    33  O   -0.458770
    34  O   -0.461030
 Sum of Mulliken charges =  -0.00000

 Dipole moment (field-independent basis, Debye):
    X=              5.4099    Y=              1.2198    Z=              0.3702  Tot=              5.5581
 Quadrupole moment (field-independent basis, Debye-Ang):
   XX=            -65.6001   YY=            -92.6788   ZZ=            -94.7579
   XY=              1.0078   XZ=              1.2239   YZ=             -1.3490

 Normal termination of Gaussian 16 at Thu May  6 04:09:46 2021.
