 Gaussian 16, Revision A.03,
 Gaussian 16:  EM64L-G16RevA.03 25-Dec-2016

 -------------
 #p 6-31g* mp2
 -------------

 ------------------------------------------------------
 Input file generated by CHIRIPA (05-May-2021 14:51:11)
 ------------------------------------------------------
 Symbolic Z-matrix:
 Charge =  0 Multiplicity = 1

                         Standard orientation:
 ---------------------------------------------------------------------
 Center     Atomic      Atomic             Coordinates (Angstroms)
 Number     Number       Type             X           Y           Z
 ---------------------------------------------------------------------
      1          6           0        2.792307   -0.236250    0.619847
      2          6           0        1.669376   -1.228421    0.315532
      3          6           0        0.437117   -1.014562    1.195075
      4          1           0        3.075132   -0.325493    1.677671
      5          1           0        2.415542    0.786742    0.482265
      6          1           0        2.048544   -2.249274    0.452308
      7          1           0        1.389323   -1.136940   -0.741737
      8          1           0        0.032038   -0.007512    1.052377
      9          1           0        0.695004   -1.126166    2.253206
     10          1           0       -0.353224   -1.734500    0.960743
     11          6           0        4.030983   -0.437341   -0.251343
     12          6           0        5.153915    0.554830    0.052972
     13          6           0        6.386174    0.340971   -0.826571
     14          1           0        4.407749   -1.460333   -0.113760
     15          1           0        3.748159   -0.348098   -1.309167
     16          1           0        5.433967    0.463349    1.110241
     17          1           0        4.774747    1.575683   -0.083803
     18          1           0        6.128287    0.452575   -1.884701
     19          1           0        6.791253   -0.666079   -0.683872
     20          1           0        7.176514    1.060909   -0.592239
     21          6           0       -3.598600    1.050965    0.011815
     22          6           0       -2.487414    2.065274   -0.260994
     23          6           0       -2.876439    3.489512    0.136500
     24          1           0       -4.503013    1.351597   -0.534631
     25          1           0       -3.855460    1.077346    1.079862
     26          1           0       -2.231767    2.036004   -1.327954
     27          1           0       -1.585484    1.762088    0.286013
     28          1           0       -3.111743    3.540740    1.204493
     29          1           0       -3.761698    3.816212   -0.418645
     30          1           0       -2.067659    4.198236   -0.067079
     31          6           0       -3.224690   -0.377373   -0.380320
     32          6           0       -4.335877   -1.391683   -0.107511
     33          6           0       -3.946852   -2.815921   -0.505004
     34          1           0       -2.967831   -0.403755   -1.448366
     35          1           0       -2.320278   -0.678006    0.166126
     36          1           0       -5.237806   -1.088497   -0.654517
     37          1           0       -4.591524   -1.362413    0.959449
     38          1           0       -3.061592   -3.142621    0.050140
     39          1           0       -3.711547   -2.867149   -1.572998
     40          1           0       -4.755632   -3.524645   -0.301425
 ---------------------------------------------------------------------

 SCF Done:  E(RHF) =  -470.732444478     A.U. after   11 cycles
 E2 =    -0.1583737485D+01 EUMP2 =    -0.47231618196306D+03

 The electronic state is 1-A.
 Alpha  occ. eigenvalues --  -11.21641 -11.21616 -11.21598 -11.21541 -11.21431
 Alpha  occ. eigenvalues --  -11.21370 -11.21332 -11.21206 -11.21136 -11.21081
 Alpha  occ. eigenvalues --  -11.21069 -11.21059  -1.08464  -1.08373  -1.03568
 Alpha  occ. eigenvalues --   -1.03502  -0.96040  -0.95932  -0.87061  -0.86956
 Alpha  occ. eigenvalues --   -0.79650  -0.79567  -0.78290  -0.78160  -0.65159
 Alpha  occ. eigenvalues --   -0.64965  -0.60992  -0.60898  -0.59451  -0.59270
 Alpha  occ. eigenvalues --   -0.57647  -0.57541  -0.55382  -0.55181  -0.52794
 Alpha  occ. eigenvalues --   -0.52646  -0.52464  -0.52325  -0.50007  -0.49884
 Alpha  occ. eigenvalues --   -0.48039  -0.47804  -0.46774  -0.46563  -0.45857
 Alpha  occ. eigenvalues --   -0.45775  -0.45695  -0.45426  -0.43761  -0.43716
 Alpha virt. eigenvalues --    0.21166   0.22991   0.23290   0.24115   0.26001
 Alpha virt. eigenvalues --    0.26646   0.27080   0.27261   0.27743   0.29148
 Alpha virt. eigenvalues --    0.30011   0.31548   0.31813   0.31919   0.32368

 Mulliken charges:
               1
     1  C   -0.298839
     2  C   -0.299309
     3  C   -0.485221
     4  H    0.149667
     5  H    0.149710
     6  H    0.152138
     7  H    0.153122
     8  H    0.160946
     9  H    0.155534
    10  H    0.162992
    11  C   -0.298361
    12  C   -0.299693
    13  C   -0.475726
    14  H    0.149608
    15  H    0.149853
    16  H    0.151934
    17  H    0.152004
    18  H    0.155236
    19  H    0.155206
    20  H    0.160303
    21  C   -0.297318
    22  C   -0.305152
    23  C   -0.475329
    24  H    0.149295
    25  H    0.149255
    26  H    0.151665
    27  H    0.155982
    28  H    0.155327
    29  H    0.155358
    30  H    0.159829
    31  C   -0.308761
    32  C   -0.299050
    33  C   -0.476447
    34  H    0.148048
    35  H    0.162838
    36  H    0.151521
    37  H    0.151651
    38  H    0.154691
    39  H    0.155184
    40  H    0.160308
 Sum of Mulliken charges =  -0.00000

 Dipole moment (field-independent basis, Debye):
    X=              0.0471    Y=             -0.0089    Z=              0.0140  Tot=              0.0499
 Quadrupole moment (field-independent basis, Debye-Ang):
   XX=            -85.6159   YY=            -85.5781   ZZ=            -83.7912
   XY=             -0.1553   XZ=              1.1339   YZ=             -0.8828

 Normal termination of Gaussian 16 at Thu May  6 03:50:25 2021.
