 Gaussian 16, Revision A.03,
 Gaussian 16:  EM64L-G16RevA.03 25-Dec-2016

 -------------
 #p 6-31g* mp2
 -------------

 ------------------------------------------------------
 Input file generated by CHIRIPA (05-May-2021 14:57:22)
 ------------------------------------------------------
 Symbolic Z-matrix:
 Charge =  0 Multiplicity = 1

                         Standard orientation:
 ---------------------------------------------------------------------
 Center     Atomic      Atomic             Coordinates (Angstroms)
 Number     Number       Type             X           Y           Z
 ---------------------------------------------------------------------
      1          6           0       -3.747303   -2.019205    0.117705
      2          6           0       -2.912157   -1.630298   -0.934817
      3          6           0       -2.467282   -0.308871   -1.037128
      4          6           0       -2.878853    0.601612   -0.065058
      5          6           0       -3.710368    0.244782    0.995389
      6          6           0       -4.143045   -1.082076    1.077756
      7          1           0       -4.088154   -3.047831    0.189437
      8          1           0       -2.603220   -2.355939   -1.681843
      9          1           0       -1.820245    0.019252   -1.841550
     10          1           0       -4.001489    0.990749    1.724909
     11          1           0       -4.791578   -1.381272    1.896250
     12          7           0       -2.414341    2.003422   -0.162813
     13          8           0       -2.791155    2.786468    0.706374
     14          8           0       -1.682237    2.292571   -1.106770
     15          6           0        5.168633    0.806193    0.336674
     16          6           0        4.626190    0.638096   -0.941615
     17          6           0        3.400586   -0.012366   -1.112915
     18          6           0        2.741444   -0.484342    0.021130
     19          6           0        3.255984   -0.332273    1.307759
     20          6           0        4.483007    0.321327    1.455309
     21          1           0        6.121261    1.312706    0.460519
     22          1           0        5.156440    1.013621   -1.812167
     23          1           0        2.957784   -0.156098   -2.091019
     24          1           0        2.704050   -0.717440    2.156542
     25          1           0        4.901878    0.450448    2.449250
     26          7           0        1.443201   -1.174617   -0.147647
     27          8           0        0.882213   -1.581291    0.867512
     28          8           0        1.011209   -1.295911   -1.291897
 ---------------------------------------------------------------------

 SCF Done:  E(RHF) =  -868.339918413     A.U. after   16 cycles
 E2 =    -0.2599177529D+01 EUMP2 =    -0.87093909594197D+03

 The electronic state is 1-A.
 Alpha  occ. eigenvalues --  -20.61047 -20.61022 -20.59867 -20.59862 -15.86061
 Alpha  occ. eigenvalues --  -15.84907 -11.31176 -11.29912 -11.27730 -11.27718
 Alpha  occ. eigenvalues --  -11.27438 -11.26698 -11.26681 -11.26542 -11.26351
 Alpha  occ. eigenvalues --  -11.26201 -11.25518 -11.25322  -1.60092  -1.58950
 Alpha  occ. eigenvalues --   -1.39656  -1.38512  -1.19329  -1.18066  -1.08776
 Alpha  occ. eigenvalues --   -1.07552  -1.04702  -1.03410  -0.95654  -0.94438
 Alpha  occ. eigenvalues --   -0.86115  -0.84857  -0.82502  -0.81280  -0.77569
 Alpha  occ. eigenvalues --   -0.76355  -0.72309  -0.71394  -0.71142  -0.70452
 Alpha  occ. eigenvalues --   -0.70262  -0.69222  -0.64996  -0.64715  -0.63740
 Alpha  occ. eigenvalues --   -0.63450  -0.62059  -0.60778  -0.55228  -0.54002
 Alpha  occ. eigenvalues --   -0.53034  -0.52801  -0.51768  -0.51531  -0.49060
 Alpha  occ. eigenvalues --   -0.49019  -0.47905  -0.47867  -0.45113  -0.43997
 Alpha  occ. eigenvalues --   -0.37297  -0.36285  -0.36057  -0.34934
 Alpha virt. eigenvalues --    0.04929   0.06169   0.11372   0.12670   0.16479
 Alpha virt. eigenvalues --    0.17719   0.21486   0.22677   0.27408   0.28303
 Alpha virt. eigenvalues --    0.28655   0.29527   0.31058   0.32173   0.32570

 Mulliken charges:
               1
     1  C   -0.169129
     2  C   -0.209618
     3  C   -0.160556
     4  C    0.155225
     5  C   -0.171853
     6  C   -0.218464
     7  H    0.221672
     8  H    0.225679
     9  H    0.278672
    10  H    0.270135
    11  H    0.217968
    12  N    0.487929
    13  O   -0.465533
    14  O   -0.464178
    15  C   -0.169594
    16  C   -0.218046
    17  C   -0.167997
    18  C    0.159429
    19  C   -0.169823
    20  C   -0.218233
    21  H    0.226257
    22  H    0.224263
    23  H    0.275180
    24  H    0.274894
    25  H    0.223740
    26  N    0.489943
    27  O   -0.459496
    28  O   -0.468464
 Sum of Mulliken charges =  -0.00000

 Dipole moment (field-independent basis, Debye):
    X=              3.2708    Y=             -2.6586    Z=              0.8415  Tot=              4.2982
 Quadrupole moment (field-independent basis, Debye-Ang):
   XX=            -70.7222   YY=           -114.5449   ZZ=            -96.7530
   XY=             18.0382   XZ=             -1.4956   YZ=              0.6818

 Normal termination of Gaussian 16 at Fri May  7 07:55:01 2021.
