 Gaussian 16, Revision A.03,
 Gaussian 16:  EM64L-G16RevA.03 25-Dec-2016

 -------------
 #p 6-31g* mp2
 -------------

 ------------------------------------------------------
 Input file generated by CHIRIPA (05-May-2021 14:57:24)
 ------------------------------------------------------
 Symbolic Z-matrix:
 Charge =  0 Multiplicity = 1

                         Standard orientation:
 ---------------------------------------------------------------------
 Center     Atomic      Atomic             Coordinates (Angstroms)
 Number     Number       Type             X           Y           Z
 ---------------------------------------------------------------------
      1          6           0       -1.559185    1.770286    0.792303
      2          6           0       -2.745920    2.332831    0.310925
      3          6           0       -3.781000    1.516408   -0.154490
      4          6           0       -3.594698    0.135231   -0.123979
      5          6           0       -2.424111   -0.455306    0.349607
      6          6           0       -1.402345    0.380463    0.810077
      7          1           0       -0.760281    2.412017    1.151928
      8          1           0       -2.870503    3.411858    0.295938
      9          1           0       -4.710130    1.925388   -0.532472
     10          1           0       -2.329195   -1.534381    0.352068
     11          1           0       -0.481801   -0.059196    1.183364
     12          7           0       -4.683443   -0.739320   -0.614075
     13          8           0       -4.494595   -1.953228   -0.576659
     14          8           0       -5.705034   -0.194325   -1.026349
     15          6           0        1.883128   -1.459361    1.663732
     16          6           0        2.217977   -2.066049    0.448691
     17          6           0        3.066015   -1.421487   -0.456804
     18          6           0        3.563381   -0.165290   -0.113462
     19          6           0        3.248249    0.465153    1.089254
     20          6           0        2.398424   -0.197921    1.979579
     21          1           0        1.223657   -1.967261    2.361250
     22          1           0        1.819275   -3.045643    0.200749
     23          1           0        3.341558   -1.868238   -1.404385
     24          1           0        3.661324    1.442252    1.308487
     25          1           0        2.140084    0.275644    2.922469
     26          7           0        4.462106    0.526877   -1.064039
     27          8           0        4.887090    1.633090   -0.737975
     28          8           0        4.724525   -0.049922   -2.117166
 ---------------------------------------------------------------------

 SCF Done:  E(RHF) =  -868.336978805     A.U. after   16 cycles
 E2 =    -0.2601449465D+01 EUMP2 =    -0.87093842826979D+03

 The electronic state is 1-A.
 Alpha  occ. eigenvalues --  -20.61528 -20.61515 -20.61035 -20.61021 -15.86584
 Alpha  occ. eigenvalues --  -15.86082 -11.32173 -11.31453 -11.28786 -11.28706
 Alpha  occ. eigenvalues --  -11.28556 -11.28033 -11.27985 -11.27883 -11.27777
 Alpha  occ. eigenvalues --  -11.27735 -11.27010 -11.26922  -1.60594  -1.60105
 Alpha  occ. eigenvalues --   -1.40141  -1.39659  -1.20382  -1.19610  -1.09758
 Alpha  occ. eigenvalues --   -1.09002  -1.05794  -1.05014  -0.96538  -0.95845
 Alpha  occ. eigenvalues --   -0.87187  -0.86411  -0.83347  -0.82678  -0.78341
 Alpha  occ. eigenvalues --   -0.77735  -0.72796  -0.72301  -0.71920  -0.71487
 Alpha  occ. eigenvalues --   -0.71427  -0.70734  -0.66025  -0.65780  -0.65260
 Alpha  occ. eigenvalues --   -0.65039  -0.63106  -0.62399  -0.56309  -0.55537
 Alpha  occ. eigenvalues --   -0.54261  -0.53864  -0.53341  -0.52939  -0.49573
 Alpha  occ. eigenvalues --   -0.49539  -0.49062  -0.49052  -0.45497  -0.45064
 Alpha  occ. eigenvalues --   -0.38377  -0.37588  -0.37404  -0.36613
 Alpha virt. eigenvalues --    0.04132   0.04802   0.10154   0.11036   0.15497
 Alpha virt. eigenvalues --    0.16301   0.19998   0.21736   0.26207   0.26518
 Alpha virt. eigenvalues --    0.28137   0.28314   0.29988   0.31380   0.31650

 Mulliken charges:
               1
     1  C   -0.174200
     2  C   -0.217672
     3  C   -0.171328
     4  C    0.159659
     5  C   -0.175234
     6  C   -0.223719
     7  H    0.224327
     8  H    0.224678
     9  H    0.276425
    10  H    0.270859
    11  H    0.230878
    12  N    0.488187
    13  O   -0.461992
    14  O   -0.459071
    15  C   -0.186007
    16  C   -0.216567
    17  C   -0.168822
    18  C    0.160595
    19  C   -0.171233
    20  C   -0.224301
    21  H    0.229487
    22  H    0.229246
    23  H    0.280390
    24  H    0.277446
    25  H    0.225495
    26  N    0.487887
    27  O   -0.459069
    28  O   -0.456344
 Sum of Mulliken charges =  -0.00000

 Dipole moment (field-independent basis, Debye):
    X=              0.9703    Y=              0.6178    Z=              4.9247  Tot=              5.0572
 Quadrupole moment (field-independent basis, Debye-Ang):
   XX=           -153.7481   YY=            -97.0772   ZZ=           -105.0045
   XY=            -21.4569   XZ=              6.4033   YZ=              1.4530

 Normal termination of Gaussian 16 at Thu May  6 13:01:51 2021.
