 Gaussian 16, Revision A.03,
 Gaussian 16:  EM64L-G16RevA.03 25-Dec-2016

 -------------
 #p 6-31g* mp2
 -------------

 ------------------------------------------------------
 Input file generated by CHIRIPA (05-May-2021 14:55:21)
 ------------------------------------------------------
 Symbolic Z-matrix:
 Charge =  0 Multiplicity = 1

                         Standard orientation:
 ---------------------------------------------------------------------
 Center     Atomic      Atomic             Coordinates (Angstroms)
 Number     Number       Type             X           Y           Z
 ---------------------------------------------------------------------
      1          6           0       -0.499020    0.068375    0.388269
      2          6           0       -1.043484    0.249815   -0.887332
      3          6           0       -2.423852    0.159169   -1.089604
      4          6           0       -3.234015   -0.115507    0.011068
      5          6           0       -2.721653   -0.301267    1.294139
      6          6           0       -1.338363   -0.206103    1.473021
      7          1           0        0.574418    0.140545    0.536314
      8          1           0       -0.394053    0.463090   -1.731606
      9          1           0       -2.871919    0.295235   -2.066405
     10          1           0       -3.394470   -0.512693    2.116352
     11          1           0       -0.918309   -0.347473    2.464795
     12          7           0       -4.696896   -0.213862   -0.190687
     13          8           0       -5.389178   -0.456846    0.795386
     14          8           0       -5.123520   -0.046105   -1.331076
     15          6           0        3.564002    0.764302   -0.382546
     16          6           0        3.539055    1.964779    0.564143
     17          6           0        3.002567    3.232048   -0.102192
     18          1           0        4.180461    1.008855   -1.258399
     19          1           0        2.547533    0.580479   -0.757238
     20          1           0        4.555028    2.145426    0.938015
     21          1           0        2.922740    1.717271    1.437935
     22          1           0        1.979751    3.075718   -0.459977
     23          1           0        3.621314    3.506306   -0.962737
     24          1           0        2.993462    4.077798    0.592419
     25          6           0        4.097858   -0.510101    0.269086
     26          6           0        4.122806   -1.710577   -0.677603
     27          6           0        4.659294   -2.977846   -0.011268
     28          1           0        5.114327   -0.326277    0.643777
     29          1           0        3.481399   -0.754653    1.144938
     30          1           0        4.739120   -1.463069   -1.551395
     31          1           0        3.106832   -1.891224   -1.051476
     32          1           0        4.040547   -3.252104    0.849277
     33          1           0        5.682109   -2.821516    0.346517
     34          1           0        4.668399   -3.823596   -0.705879
 ---------------------------------------------------------------------

 SCF Done:  E(RHF) =  -669.535397028     A.U. after   15 cycles
 E2 =    -0.2091919408D+01 EUMP2 =    -0.67162731643646D+03

 The electronic state is 1-A.
 Alpha  occ. eigenvalues --  -20.60757 -20.60751 -15.85811 -11.31181 -11.27753
 Alpha  occ. eigenvalues --  -11.27749 -11.27467 -11.26769 -11.26758 -11.22731
 Alpha  occ. eigenvalues --  -11.22646 -11.22531 -11.22461 -11.22018 -11.21813
 Alpha  occ. eigenvalues --   -1.59832  -1.39385  -1.19354  -1.09547  -1.08746
 Alpha  occ. eigenvalues --   -1.04759  -1.04510  -0.96956  -0.95583  -0.87962
 Alpha  occ. eigenvalues --   -0.86158  -0.82417  -0.80577  -0.79358  -0.77461
 Alpha  occ. eigenvalues --   -0.72029  -0.71155  -0.70520  -0.66200  -0.65005
 Alpha  occ. eigenvalues --   -0.64750  -0.62111  -0.61909  -0.60316  -0.58560
 Alpha  occ. eigenvalues --   -0.56304  -0.55204  -0.53594  -0.53360  -0.53084
 Alpha  occ. eigenvalues --   -0.52851  -0.50897  -0.48878  -0.48788  -0.48783
 Alpha  occ. eigenvalues --   -0.47637  -0.46862  -0.46845  -0.44801  -0.44790
 Alpha  occ. eigenvalues --   -0.37332  -0.36365
 Alpha virt. eigenvalues --    0.05066   0.11268   0.16527   0.17895   0.22747
 Alpha virt. eigenvalues --    0.23625   0.24603   0.25331   0.26887   0.27994
 Alpha virt. eigenvalues --    0.29846   0.30574   0.30893   0.31116   0.31619

 Mulliken charges:
               1
     1  C   -0.177816
     2  C   -0.221968
     3  C   -0.170548
     4  C    0.158254
     5  C   -0.170559
     6  C   -0.219758
     7  H    0.236270
     8  H    0.223880
     9  H    0.275684
    10  H    0.275570
    11  H    0.223498
    12  N    0.488025
    13  O   -0.460409
    14  O   -0.460407
    15  C   -0.302709
    16  C   -0.301427
    17  C   -0.476005
    18  H    0.156724
    19  H    0.138229
    20  H    0.157663
    21  H    0.147303
    22  H    0.152515
    23  H    0.158362
    24  H    0.164811
    25  C   -0.299517
    26  C   -0.300078
    27  C   -0.476114
    28  H    0.154916
    29  H    0.145031
    30  H    0.154863
    31  H    0.149718
    32  H    0.155254
    33  H    0.157192
    34  H    0.163553
 Sum of Mulliken charges =  -0.00000

 Dipole moment (field-independent basis, Debye):
    X=              5.4133    Y=              0.3684    Z=              0.6957  Tot=              5.4702
 Quadrupole moment (field-independent basis, Debye-Ang):
   XX=           -126.6474   YY=            -95.9165   ZZ=            -90.0320
   XY=             -0.8994   XZ=             -3.4238   YZ=             -0.8595

 Normal termination of Gaussian 16 at Thu May  6 07:46:56 2021.
