 Gaussian 16, Revision A.03,
 Gaussian 16:  EM64L-G16RevA.03 25-Dec-2016

 -------------
 #p 6-31g* mp2
 -------------

 ------------------------------------------------------
 Input file generated by CHIRIPA (05-May-2021 14:51:09)
 ------------------------------------------------------
 Symbolic Z-matrix:
 Charge =  0 Multiplicity = 1

                         Standard orientation:
 ---------------------------------------------------------------------
 Center     Atomic      Atomic             Coordinates (Angstroms)
 Number     Number       Type             X           Y           Z
 ---------------------------------------------------------------------
      1          6           0        2.952523   -0.332216   -0.732237
      2          6           0        2.228591   -1.626795   -0.360791
      3          6           0        2.471090   -2.750022   -1.369428
      4          1           0        2.623716   -0.008857   -1.729368
      5          1           0        4.030393   -0.531834   -0.808023
      6          1           0        1.152558   -1.424488   -0.284372
      7          1           0        2.559017   -1.947006    0.635653
      8          1           0        3.539026   -2.980550   -1.439930
      9          1           0        2.124575   -2.455063   -2.365183
     10          1           0        1.944356   -3.666109   -1.084481
     11          6           0        2.719812    0.800030    0.266559
     12          6           0        3.443744    2.094609   -0.104888
     13          6           0        3.201245    3.217836    0.903750
     14          1           0        1.641942    0.999649    0.342345
     15          1           0        3.048619    0.476672    1.263690
     16          1           0        3.113318    2.414821   -1.101331
     17          1           0        4.519778    1.892302   -0.181306
     18          1           0        3.547760    2.922877    1.899504
     19          1           0        2.133309    3.448365    0.974252
     20          1           0        3.727980    4.133924    0.618803
     21          6           0       -2.580611   -0.953707    0.236199
     22          6           0       -1.544677   -1.224270    1.327813
     23          6           0       -1.042945   -2.668577    1.321731
     24          1           0       -3.429407   -1.638788    0.367179
     25          1           0       -2.139987   -1.185658   -0.743313
     26          1           0       -1.986669   -0.990560    2.304868
     27          1           0       -0.698335   -0.538336    1.194332
     28          1           0       -0.577201   -2.910561    0.360936
     29          1           0       -1.872855   -3.365354    1.477781
     30          1           0       -0.303290   -2.839952    2.110020
     31          6           0       -3.091724    0.485892    0.229479
     32          6           0       -4.127659    0.756455   -0.862134
     33          6           0       -4.629390    2.200762   -0.856053
     34          1           0       -3.532348    0.717843    1.208992
     35          1           0       -2.242929    1.170974    0.098500
     36          1           0       -4.974000    0.070521   -0.728654
     37          1           0       -3.685666    0.522745   -1.839190
     38          1           0       -3.799480    2.897539   -1.012103
     39          1           0       -5.095135    2.442746    0.104742
     40          1           0       -5.369045    2.372138   -1.644342
 ---------------------------------------------------------------------

 SCF Done:  E(RHF) =  -470.732545001     A.U. after   11 cycles
 E2 =    -0.1584108564D+01 EUMP2 =    -0.47231665356531D+03

 The electronic state is 1-A.
 Alpha  occ. eigenvalues --  -11.21631 -11.21629 -11.21592 -11.21554 -11.21436
 Alpha  occ. eigenvalues --  -11.21435 -11.21377 -11.21366 -11.21095 -11.21092
 Alpha  occ. eigenvalues --  -11.21087 -11.21015  -1.08490  -1.08419  -1.03613
 Alpha  occ. eigenvalues --   -1.03480  -0.96039  -0.95954  -0.87024  -0.86998
 Alpha  occ. eigenvalues --   -0.79643  -0.79576  -0.78307  -0.78238  -0.65293
 Alpha  occ. eigenvalues --   -0.64921  -0.61232  -0.60722  -0.59389  -0.59310
 Alpha  occ. eigenvalues --   -0.57658  -0.57569  -0.55374  -0.55179  -0.52706
 Alpha  occ. eigenvalues --   -0.52659  -0.52464  -0.52365  -0.49992  -0.49885
 Alpha  occ. eigenvalues --   -0.47973  -0.47875  -0.46677  -0.46598  -0.46018
 Alpha  occ. eigenvalues --   -0.45775  -0.45744  -0.45449  -0.43801  -0.43794
 Alpha virt. eigenvalues --    0.20326   0.23084   0.23433   0.24259   0.25574
 Alpha virt. eigenvalues --    0.26493   0.26729   0.27534   0.28814   0.29458
 Alpha virt. eigenvalues --    0.30564   0.30896   0.31656   0.32042   0.32305

 Mulliken charges:
               1
     1  C   -0.297811
     2  C   -0.305684
     3  C   -0.477502
     4  H    0.149013
     5  H    0.149502
     6  H    0.160429
     7  H    0.152094
     8  H    0.155553
     9  H    0.154653
    10  H    0.161295
    11  C   -0.300597
    12  C   -0.299629
    13  C   -0.475711
    14  H    0.150522
    15  H    0.149948
    16  H    0.151836
    17  H    0.152263
    18  H    0.155343
    19  H    0.155107
    20  H    0.160372
    21  C   -0.298808
    22  C   -0.305969
    23  C   -0.477915
    24  H    0.150188
    25  H    0.148896
    26  H    0.152772
    27  H    0.155958
    28  H    0.158248
    29  H    0.154910
    30  H    0.160865
    31  C   -0.298091
    32  C   -0.299659
    33  C   -0.475704
    34  H    0.149877
    35  H    0.148753
    36  H    0.152151
    37  H    0.151810
    38  H    0.155043
    39  H    0.155316
    40  H    0.160364
 Sum of Mulliken charges =  -0.00000

 Dipole moment (field-independent basis, Debye):
    X=              0.0055    Y=             -0.0114    Z=              0.0154  Tot=              0.0199
 Quadrupole moment (field-independent basis, Debye-Ang):
   XX=            -83.7397   YY=            -86.4714   ZZ=            -84.5218
   XY=              0.4572   XZ=             -0.0145   YZ=             -0.8032

 Normal termination of Gaussian 16 at Thu May  6 00:34:09 2021.
