 Gaussian 16, Revision A.03,
 Gaussian 16:  EM64L-G16RevA.03 25-Dec-2016

 -------------
 #p 6-31g* mp2
 -------------

 ------------------------------------------------------
 Input file generated by CHIRIPA (05-May-2021 14:57:26)
 ------------------------------------------------------
 Symbolic Z-matrix:
 Charge =  0 Multiplicity = 1

                         Standard orientation:
 ---------------------------------------------------------------------
 Center     Atomic      Atomic             Coordinates (Angstroms)
 Number     Number       Type             X           Y           Z
 ---------------------------------------------------------------------
      1          6           0        5.194060   -1.841763   -0.721636
      2          6           0        4.730336   -0.879436   -1.624635
      3          6           0        3.928386    0.178196   -1.185500
      4          6           0        3.608021    0.243031    0.169658
      5          6           0        4.054595   -0.700249    1.093825
      6          6           0        4.855307   -1.749261    0.632325
      7          1           0        5.816553   -2.660009   -1.071453
      8          1           0        4.991831   -0.948747   -2.676710
      9          1           0        3.555758    0.936883   -1.862966
     10          1           0        3.777217   -0.604525    2.136569
     11          1           0        5.214012   -2.495182    1.335871
     12          7           0        2.759688    1.358136    0.646388
     13          8           0        2.491552    1.392772    1.845363
     14          8           0        2.378965    2.176405   -0.187951
     15          6           0       -1.664835    1.337756   -0.365685
     16          6           0       -1.562442   -0.004405    0.014632
     17          6           0       -2.709861   -0.787923    0.169796
     18          6           0       -3.949214   -0.194306   -0.064540
     19          6           0       -4.083941    1.140150   -0.444496
     20          6           0       -2.923040    1.904750   -0.593633
     21          1           0       -0.768255    1.939064   -0.483879
     22          1           0       -0.586620   -0.447395    0.192327
     23          1           0       -2.659455   -1.829426    0.463309
     24          1           0       -5.070555    1.553767   -0.614590
     25          1           0       -3.005585    2.946834   -0.889088
     26          7           0       -5.171071   -1.013768    0.096536
     27          8           0       -6.251236   -0.467169   -0.115859
     28          8           0       -5.025462   -2.187143    0.432132
 ---------------------------------------------------------------------

 SCF Done:  E(RHF) =  -868.340038687     A.U. after   16 cycles
 E2 =    -0.2598554768D+01 EUMP2 =    -0.87093859345510D+03

 The electronic state is 1-A.
 Alpha  occ. eigenvalues --  -20.62005 -20.61963 -20.60264 -20.60257 -15.87001
 Alpha  occ. eigenvalues --  -15.85314 -11.32096 -11.30509 -11.28628 -11.28610
 Alpha  occ. eigenvalues --  -11.28286 -11.27555 -11.27542 -11.27105 -11.27081
 Alpha  occ. eigenvalues --  -11.26583 -11.26017 -11.25974  -1.61057  -1.59344
 Alpha  occ. eigenvalues --   -1.40611  -1.38902  -1.20236  -1.18660  -1.09678
 Alpha  occ. eigenvalues --   -1.08044  -1.05585  -1.04057  -0.96554  -0.94910
 Alpha  occ. eigenvalues --   -0.86995  -0.85441  -0.83388  -0.81768  -0.78475
 Alpha  occ. eigenvalues --   -0.76878  -0.73212  -0.72385  -0.71534  -0.71318
 Alpha  occ. eigenvalues --   -0.70667  -0.69640  -0.65879  -0.65569  -0.64297
 Alpha  occ. eigenvalues --   -0.64053  -0.62929  -0.61428  -0.56078  -0.54397
 Alpha  occ. eigenvalues --   -0.53936  -0.53661  -0.52376  -0.52143  -0.49991
 Alpha  occ. eigenvalues --   -0.49950  -0.48300  -0.48276  -0.46058  -0.44348
 Alpha  occ. eigenvalues --   -0.38197  -0.37179  -0.36562  -0.35683
 Alpha virt. eigenvalues --    0.03984   0.05682   0.10479   0.11991   0.15532
 Alpha virt. eigenvalues --    0.17236   0.20689   0.22190   0.26635   0.27495
 Alpha virt. eigenvalues --    0.27808   0.29233   0.30414   0.31583   0.32185

 Mulliken charges:
               1
     1  C   -0.169570
     2  C   -0.218337
     3  C   -0.171517
     4  C    0.154629
     5  C   -0.171713
     6  C   -0.218493
     7  H    0.229172
     8  H    0.226427
     9  H    0.275487
    10  H    0.277189
    11  H    0.226792
    12  N    0.486354
    13  O   -0.455720
    14  O   -0.466809
    15  C   -0.175516
    16  C   -0.218330
    17  C   -0.171926
    18  C    0.157045
    19  C   -0.171352
    20  C   -0.220206
    21  H    0.245862
    22  H    0.218706
    23  H    0.271963
    24  H    0.273337
    25  H    0.223501
    26  N    0.488349
    27  O   -0.462142
    28  O   -0.463182
 Sum of Mulliken charges =  -0.00000

 Dipole moment (field-independent basis, Debye):
    X=              7.7875    Y=             -1.0175    Z=             -2.2384  Tot=              8.1664
 Quadrupole moment (field-independent basis, Debye-Ang):
   XX=           -116.6526   YY=           -104.7600   ZZ=           -101.3313
   XY=            -29.4692   XZ=             -2.6442   YZ=             -4.1640

 Normal termination of Gaussian 16 at Thu May  6 16:27:15 2021.
