 Gaussian 16, Revision A.03,
 Gaussian 16:  EM64L-G16RevA.03 25-Dec-2016

 -------------
 #p 6-31g* mp2
 -------------

 ------------------------------------------------------
 Input file generated by CHIRIPA (05-May-2021 14:55:18)
 ------------------------------------------------------
 Symbolic Z-matrix:
 Charge =  0 Multiplicity = 1

                         Standard orientation:
 ---------------------------------------------------------------------
 Center     Atomic      Atomic             Coordinates (Angstroms)
 Number     Number       Type             X           Y           Z
 ---------------------------------------------------------------------
      1          6           0       -2.838601    2.513564   -0.355791
      2          6           0       -3.973279    1.895942   -0.892046
      3          6           0       -4.132044    0.509298   -0.811045
      4          6           0       -3.132040   -0.232470   -0.184100
      5          6           0       -1.990141    0.353623    0.359823
      6          6           0       -1.852392    1.741794    0.267333
      7          1           0       -2.723431    3.591335   -0.423177
      8          1           0       -4.740793    2.492796   -1.376537
      9          1           0       -5.000423    0.005339   -1.217690
     10          1           0       -1.242022   -0.267825    0.836833
     11          1           0       -0.970132    2.218741    0.684687
     12          7           0       -3.288993   -1.701256   -0.092266
     13          8           0       -2.393654   -2.332404    0.465101
     14          8           0       -4.304379   -2.193531   -0.579393
     15          6           0        4.719335    0.055645    0.093402
     16          6           0        5.067113   -0.344507   -1.340792
     17          6           0        6.558042   -0.203182   -1.648936
     18          1           0        5.033597    1.094444    0.263933
     19          1           0        5.299228   -0.564813    0.790647
     20          1           0        4.485707    0.275578   -2.035110
     21          1           0        4.751814   -1.382413   -1.507989
     22          1           0        7.151291   -0.834636   -0.979667
     23          1           0        6.883673    0.832773   -1.509784
     24          1           0        6.784396   -0.494454   -2.679365
     25          6           0        3.232465   -0.080230    0.416639
     26          6           0        2.884686    0.319923    1.850834
     27          6           0        1.393758    0.178597    2.158978
     28          1           0        2.652572    0.540229   -0.280606
     29          1           0        2.918203   -1.119029    0.246108
     30          1           0        3.199987    1.357828    2.018030
     31          1           0        3.466093   -0.300161    2.545152
     32          1           0        1.068127   -0.857358    2.019826
     33          1           0        0.800509    0.810053    1.489709
     34          1           0        1.167404    0.469871    3.189407
 ---------------------------------------------------------------------

 SCF Done:  E(RHF) =  -669.534784458     A.U. after   15 cycles
 E2 =    -0.2092082212D+01 EUMP2 =    -0.67162686667049D+03

 The electronic state is 1-A.
 Alpha  occ. eigenvalues --  -20.60698 -20.60693 -15.85748 -11.31073 -11.27672
 Alpha  occ. eigenvalues --  -11.27575 -11.27423 -11.26683 -11.26651 -11.22146
 Alpha  occ. eigenvalues --  -11.21897 -11.21792 -11.21762 -11.21644 -11.21222
 Alpha  occ. eigenvalues --   -1.59772  -1.39326  -1.19261  -1.08798  -1.08668
 Alpha  occ. eigenvalues --   -1.04674  -1.03939  -0.96422  -0.95501  -0.87455
 Alpha  occ. eigenvalues --   -0.86065  -0.82351  -0.80032  -0.78583  -0.77377
 Alpha  occ. eigenvalues --   -0.71971  -0.71094  -0.70383  -0.65441  -0.64920
 Alpha  occ. eigenvalues --   -0.64685  -0.62144  -0.61284  -0.59770  -0.57982
 Alpha  occ. eigenvalues --   -0.55720  -0.55178  -0.53112  -0.52996  -0.52912
 Alpha  occ. eigenvalues --   -0.52654  -0.50355  -0.48729  -0.48724  -0.48303
 Alpha  occ. eigenvalues --   -0.47025  -0.46124  -0.46028  -0.44739  -0.44168
 Alpha  occ. eigenvalues --   -0.37254  -0.36263
 Alpha virt. eigenvalues --    0.05142   0.11387   0.16615   0.20468   0.22684
 Alpha virt. eigenvalues --    0.23966   0.25685   0.25994   0.27369   0.27897
 Alpha virt. eigenvalues --    0.28900   0.29920   0.31345   0.31608   0.32557

 Mulliken charges:
               1
     1  C   -0.170340
     2  C   -0.219329
     3  C   -0.170194
     4  C    0.157546
     5  C   -0.175627
     6  C   -0.225712
     7  H    0.225156
     8  H    0.223002
     9  H    0.275183
    10  H    0.285890
    11  H    0.225818
    12  N    0.488129
    13  O   -0.461213
    14  O   -0.460761
    15  C   -0.298635
    16  C   -0.300110
    17  C   -0.475956
    18  H    0.148746
    19  H    0.151203
    20  H    0.151399
    21  H    0.154462
    22  H    0.156009
    23  H    0.154573
    24  H    0.161311
    25  C   -0.299606
    26  C   -0.299232
    27  C   -0.487491
    28  H    0.146582
    29  H    0.155064
    30  H    0.151193
    31  H    0.156672
    32  H    0.166974
    33  H    0.144427
    34  H    0.164866
 Sum of Mulliken charges =  -0.00000

 Dipole moment (field-independent basis, Debye):
    X=              0.7451    Y=              5.0669    Z=             -0.2744  Tot=              5.1287
 Quadrupole moment (field-independent basis, Debye-Ang):
   XX=            -95.2538   YY=            -96.9017   ZZ=            -94.0364
   XY=            -17.2563   XZ=              3.9205   YZ=             -1.4798

 Normal termination of Gaussian 16 at Thu May  6 15:41:21 2021.
