 Gaussian 16, Revision A.03,
 Gaussian 16:  EM64L-G16RevA.03 25-Dec-2016

 -------------
 #p 6-31g* mp2
 -------------

 ------------------------------------------------------
 Input file generated by CHIRIPA (05-May-2021 14:57:22)
 ------------------------------------------------------
 Symbolic Z-matrix:
 Charge =  0 Multiplicity = 1

                         Standard orientation:
 ---------------------------------------------------------------------
 Center     Atomic      Atomic             Coordinates (Angstroms)
 Number     Number       Type             X           Y           Z
 ---------------------------------------------------------------------
      1          6           0       -2.104000    1.484746    1.945804
      2          6           0       -3.156213    1.902269    1.124194
      3          6           0       -3.660279    1.056852    0.131352
      4          6           0       -3.085911   -0.205125   -0.012889
      5          6           0       -2.036734   -0.649955    0.790009
      6          6           0       -1.548598    0.212210    1.776388
      7          1           0       -1.718617    2.147991    2.714558
      8          1           0       -3.589488    2.889993    1.253494
      9          1           0       -4.474133    1.354637   -0.518558
     10          1           0       -1.625296   -1.640299    0.637188
     11          1           0       -0.731359   -0.114712    2.413010
     12          7           0       -3.611111   -1.108995   -1.060545
     13          8           0       -3.087807   -2.215959   -1.167419
     14          8           0       -4.536121   -0.693370   -1.754987
     15          6           0        3.521943   -2.203903    0.832670
     16          6           0        2.229867   -1.677463    0.932281
     17          6           0        1.928940   -0.426195    0.386095
     18          6           0        2.948830    0.274651   -0.255724
     19          6           0        4.245851   -0.223024   -0.371243
     20          6           0        4.524045   -1.476286    0.182373
     21          1           0        3.746880   -3.176693    1.259847
     22          1           0        1.449636   -2.240310    1.436747
     23          1           0        0.937212    0.005032    0.448849
     24          1           0        5.002700    0.361536   -0.880054
     25          1           0        5.528384   -1.882644    0.103510
     26          7           0        2.642285    1.600368   -0.837880
     27          8           0        3.558474    2.197986   -1.398314
     28          8           0        1.491631    2.016743   -0.722716
 ---------------------------------------------------------------------

 SCF Done:  E(RHF) =  -868.336834719     A.U. after   16 cycles
 E2 =    -0.2601614658D+01 EUMP2 =    -0.87093844937698D+03

 The electronic state is 1-A.
 Alpha  occ. eigenvalues --  -20.61038 -20.61029 -20.60892 -20.60873 -15.86091
 Alpha  occ. eigenvalues --  -15.85945 -11.31482 -11.31365 -11.28093 -11.28065
 Alpha  occ. eigenvalues --  -11.28029 -11.27901 -11.27842 -11.27677 -11.27180
 Alpha  occ. eigenvalues --  -11.27081 -11.27067 -11.26863  -1.60112  -1.59957
 Alpha  occ. eigenvalues --   -1.39664  -1.39512  -1.19683  -1.19554  -1.09066
 Alpha  occ. eigenvalues --   -1.08916  -1.05163  -1.04964  -0.95893  -0.95747
 Alpha  occ. eigenvalues --   -0.86512  -0.86366  -0.82783  -0.82580  -0.77862
 Alpha  occ. eigenvalues --   -0.77583  -0.72312  -0.72166  -0.71437  -0.71277
 Alpha  occ. eigenvalues --   -0.70801  -0.70629  -0.65357  -0.65231  -0.65176
 Alpha  occ. eigenvalues --   -0.64970  -0.62707  -0.62116  -0.55605  -0.55425
 Alpha  occ. eigenvalues --   -0.53512  -0.53432  -0.53106  -0.52909  -0.49074
 Alpha  occ. eigenvalues --   -0.49060  -0.48929  -0.48913  -0.45065  -0.44908
 Alpha  occ. eigenvalues --   -0.37652  -0.37460  -0.36708  -0.36580
 Alpha virt. eigenvalues --    0.04725   0.04920   0.10757   0.11216   0.16184
 Alpha virt. eigenvalues --    0.16236   0.19200   0.22154   0.24979   0.27792
 Alpha virt. eigenvalues --    0.28185   0.29700   0.30705   0.31424   0.32311

 Mulliken charges:
               1
     1  C   -0.163130
     2  C   -0.215886
     3  C   -0.167024
     4  C    0.161864
     5  C   -0.173813
     6  C   -0.227600
     7  H    0.229299
     8  H    0.226897
     9  H    0.277909
    10  H    0.270257
    11  H    0.219264
    12  N    0.488479
    13  O   -0.462681
    14  O   -0.457938
    15  C   -0.169309
    16  C   -0.223788
    17  C   -0.180525
    18  C    0.157253
    19  C   -0.168940
    20  C   -0.219009
    21  H    0.227213
    22  H    0.217267
    23  H    0.285115
    24  H    0.276796
    25  H    0.225051
    26  N    0.487055
    27  O   -0.459397
    28  O   -0.460681
 Sum of Mulliken charges =  -0.00000

 Dipole moment (field-independent basis, Debye):
    X=              2.7786    Y=             -1.2323    Z=              5.6571  Tot=              6.4220
 Quadrupole moment (field-independent basis, Debye-Ang):
   XX=           -102.2815   YY=           -106.9239   ZZ=           -106.5584
   XY=            -26.8954   XZ=             -6.4644   YZ=              0.0323

 Normal termination of Gaussian 16 at Wed May  5 22:36:50 2021.
