 Gaussian 16, Revision A.03,
 Gaussian 16:  EM64L-G16RevA.03 25-Dec-2016

 -------------
 #p 6-31g* mp2
 -------------

 ------------------------------------------------------
 Input file generated by CHIRIPA (05-May-2021 14:55:25)
 ------------------------------------------------------
 Symbolic Z-matrix:
 Charge =  0 Multiplicity = 1

                         Standard orientation:
 ---------------------------------------------------------------------
 Center     Atomic      Atomic             Coordinates (Angstroms)
 Number     Number       Type             X           Y           Z
 ---------------------------------------------------------------------
      1          6           0        4.909101    0.806763    1.029517
      2          6           0        3.615820    1.262526    1.305604
      3          6           0        2.504767    0.634629    0.734767
      4          6           0        2.724568   -0.451186   -0.111391
      5          6           0        4.000714   -0.928712   -0.405856
      6          6           0        5.097089   -0.285476    0.176172
      7          1           0        5.766493    1.300486    1.477303
      8          1           0        3.466820    2.110550    1.967948
      9          1           0        1.492626    0.966785    0.931393
     10          1           0        4.117567   -1.776412   -1.070060
     11          1           0        6.100324   -0.641595   -0.040034
     12          7           0        1.556115   -1.124031   -0.721634
     13          8           0        1.776505   -2.078653   -1.463768
     14          8           0        0.442017   -0.684045   -0.446253
     15          6           0       -4.245194    0.104295    0.474614
     16          6           0       -4.384949   -1.400596    0.242762
     17          6           0       -5.411409   -2.049088    1.172079
     18          1           0       -3.959514    0.282772    1.520309
     19          1           0       -5.224080    0.582669    0.332008
     20          1           0       -3.405801   -1.875806    0.384407
     21          1           0       -4.670142   -1.575520   -0.802552
     22          1           0       -6.400005   -1.601948    1.025985
     23          1           0       -5.128482   -1.903939    2.219689
     24          1           0       -5.495274   -3.124912    0.989243
     25          6           0       -3.222693    0.766854   -0.446927
     26          6           0       -3.082938    2.271745   -0.215075
     27          6           0       -2.056478    2.920237   -1.144393
     28          1           0       -2.243807    0.288480   -0.304321
     29          1           0       -3.508372    0.588376   -1.492622
     30          1           0       -2.797745    2.446670    0.830238
     31          1           0       -4.062085    2.746955   -0.356721
     32          1           0       -2.339405    2.775088   -2.192002
     33          1           0       -1.067881    2.473097   -0.998298
     34          1           0       -1.972613    3.996061   -0.961556
 ---------------------------------------------------------------------

 SCF Done:  E(RHF) =  -669.536237059     A.U. after   15 cycles
 E2 =    -0.2091209081D+01 EUMP2 =    -0.67162744614045D+03

 The electronic state is 1-A.
 Alpha  occ. eigenvalues --  -20.60988 -20.60975 -15.86027 -11.31324 -11.27889
 Alpha  occ. eigenvalues --  -11.27880 -11.27616 -11.26888 -11.26878 -11.20848
 Alpha  occ. eigenvalues --  -11.20621 -11.20458 -11.20426 -11.20317 -11.20153
 Alpha  occ. eigenvalues --   -1.60045  -1.39603  -1.19490  -1.08897  -1.07480
 Alpha  occ. eigenvalues --   -1.04884  -1.02702  -0.95744  -0.95151  -0.86286
 Alpha  occ. eigenvalues --   -0.86176  -0.82582  -0.78753  -0.77648  -0.77236
 Alpha  occ. eigenvalues --   -0.72253  -0.71358  -0.70600  -0.65151  -0.64887
 Alpha  occ. eigenvalues --   -0.64104  -0.62234  -0.60111  -0.58522  -0.56754
 Alpha  occ. eigenvalues --   -0.55388  -0.54440  -0.53216  -0.52976  -0.51901
 Alpha  occ. eigenvalues --   -0.51575  -0.49135  -0.49004  -0.48967  -0.47074
 Alpha  occ. eigenvalues --   -0.45778  -0.45029  -0.44832  -0.44623  -0.42911
 Alpha  occ. eigenvalues --   -0.37467  -0.36484
 Alpha virt. eigenvalues --    0.04887   0.11164   0.16390   0.21004   0.23538
 Alpha virt. eigenvalues --    0.24743   0.26769   0.27433   0.27961   0.28830
 Alpha virt. eigenvalues --    0.29003   0.30688   0.31626   0.32373   0.32635

 Mulliken charges:
               1
     1  C   -0.170541
     2  C   -0.218451
     3  C   -0.171073
     4  C    0.157452
     5  C   -0.170506
     6  C   -0.218546
     7  H    0.226153
     8  H    0.224116
     9  H    0.275573
    10  H    0.275948
    11  H    0.223945
    12  N    0.497303
    13  O   -0.458282
    14  O   -0.469942
    15  C   -0.296918
    16  C   -0.300644
    17  C   -0.475198
    18  H    0.145308
    19  H    0.144752
    20  H    0.160868
    21  H    0.151510
    22  H    0.152323
    23  H    0.152606
    24  H    0.158995
    25  C   -0.311075
    26  C   -0.297820
    27  C   -0.476022
    28  H    0.179025
    29  H    0.147900
    30  H    0.145714
    31  H    0.148365
    32  H    0.156099
    33  H    0.157317
    34  H    0.153745
 Sum of Mulliken charges =  -0.00000

 Dipole moment (field-independent basis, Debye):
    X=              4.4237    Y=              2.2010    Z=              2.0799  Tot=              5.3609
 Quadrupole moment (field-independent basis, Debye-Ang):
   XX=            -71.7713   YY=            -96.2672   ZZ=            -94.7822
   XY=              2.2370   XZ=              5.1424   YZ=              0.9657

 Normal termination of Gaussian 16 at Thu May  6 11:05:55 2021.
