 Gaussian 16, Revision A.03,
 Gaussian 16:  EM64L-G16RevA.03 25-Dec-2016

 -------------
 #p 6-31g* mp2
 -------------

 ------------------------------------------------------
 Input file generated by CHIRIPA (05-May-2021 14:53:18)
 ------------------------------------------------------
 Symbolic Z-matrix:
 Charge =  0 Multiplicity = 1

                         Standard orientation:
 ---------------------------------------------------------------------
 Center     Atomic      Atomic             Coordinates (Angstroms)
 Number     Number       Type             X           Y           Z
 ---------------------------------------------------------------------
      1          6           0        2.954711   -1.284546   -0.123310
      2          6           0        1.586350   -1.598931    0.482277
      3          6           0        1.200432   -3.071403    0.338451
      4          1           0        2.950608   -1.561855   -1.186338
      5          1           0        3.715228   -1.912842    0.360687
      6          1           0        0.828841   -0.969239   -0.001753
      7          1           0        1.593650   -1.320664    1.543940
      8          1           0        1.934483   -3.712525    0.837182
      9          1           0        1.165329   -3.359103   -0.717294
     10          1           0        0.218828   -3.273952    0.778097
     11          6           0        3.354529    0.183578    0.012649
     12          6           0        4.722890    0.497962   -0.592938
     13          6           0        5.108808    1.970435   -0.449113
     14          1           0        2.594012    0.811874   -0.471348
     15          1           0        3.358632    0.460886    1.075676
     16          1           0        4.715590    0.219695   -1.654602
     17          1           0        5.480399   -0.131730   -0.108909
     18          1           0        5.143911    2.258135    0.606632
     19          1           0        4.374757    2.611556   -0.947844
     20          1           0        6.090412    2.172984   -0.888759
     21          6           0       -1.809826    2.814619    0.544397
     22          6           0       -1.199266    1.761508    1.233379
     23          6           0       -1.554188    0.436383    0.963893
     24          6           0       -2.527843    0.199536   -0.005224
     25          6           0       -3.154296    1.227229   -0.708569
     26          6           0       -2.783675    2.544594   -0.422673
     27          1           0       -1.528017    3.840994    0.760114
     28          1           0       -0.442648    1.968236    1.984937
     29          1           0       -1.097517   -0.397914    1.482373
     30          1           0       -3.905232    0.989785   -1.452299
     31          1           0       -3.259522    3.360461   -0.959308
     32          7           0       -2.911893   -1.199207   -0.299203
     33          8           0       -3.772469   -1.381387   -1.157605
     34          8           0       -2.345062   -2.086876    0.334346
 ---------------------------------------------------------------------

 SCF Done:  E(RHF) =  -669.535343624     A.U. after   15 cycles
 E2 =    -0.2093155634D+01 EUMP2 =    -0.67162849925728D+03

 The electronic state is 1-A.
 Alpha  occ. eigenvalues --  -20.60876 -20.60870 -15.85912 -11.31214 -11.27795
 Alpha  occ. eigenvalues --  -11.27740 -11.27528 -11.26792 -11.26768 -11.21756
 Alpha  occ. eigenvalues --  -11.21545 -11.21487 -11.21331 -11.21307 -11.20360
 Alpha  occ. eigenvalues --   -1.59938  -1.39495  -1.19395  -1.08799  -1.08461
 Alpha  occ. eigenvalues --   -1.04789  -1.03471  -0.95890  -0.95629  -0.86887
 Alpha  occ. eigenvalues --   -0.86189  -0.82477  -0.79583  -0.78336  -0.77507
 Alpha  occ. eigenvalues --   -0.72146  -0.71257  -0.70501  -0.65109  -0.65042
 Alpha  occ. eigenvalues --   -0.64781  -0.62155  -0.60872  -0.59254  -0.57481
 Alpha  occ. eigenvalues --   -0.55293  -0.55170  -0.53143  -0.52871  -0.52505
 Alpha  occ. eigenvalues --   -0.52293  -0.49828  -0.48895  -0.48887  -0.47840
 Alpha  occ. eigenvalues --   -0.46629  -0.45823  -0.45763  -0.44884  -0.43692
 Alpha  occ. eigenvalues --   -0.37372  -0.36341
 Alpha virt. eigenvalues --    0.04969   0.11196   0.16451   0.20994   0.22859
 Alpha virt. eigenvalues --    0.24228   0.26024   0.26827   0.27217   0.28110
 Alpha virt. eigenvalues --    0.28985   0.30875   0.31371   0.31645   0.31961

 Mulliken charges:
               1
     1  C   -0.296915
     2  C   -0.305681
     3  C   -0.481510
     4  H    0.151843
     5  H    0.150108
     6  H    0.152831
     7  H    0.141065
     8  H    0.149851
     9  H    0.156475
    10  H    0.183491
    11  C   -0.298415
    12  C   -0.299411
    13  C   -0.475572
    14  H    0.148056
    15  H    0.144810
    16  H    0.153418
    17  H    0.152949
    18  H    0.153425
    19  H    0.153498
    20  H    0.161212
    21  C   -0.170580
    22  C   -0.220655
    23  C   -0.171709
    24  C    0.156464
    25  C   -0.170773
    26  C   -0.218840
    27  H    0.225882
    28  H    0.224581
    29  H    0.282847
    30  H    0.275520
    31  H    0.223477
    32  N    0.491599
    33  O   -0.459448
    34  O   -0.463893
 Sum of Mulliken charges =  -0.00000

 Dipole moment (field-independent basis, Debye):
    X=              1.2186    Y=              4.8259    Z=              0.9851  Tot=              5.0739
 Quadrupole moment (field-independent basis, Debye-Ang):
   XX=           -100.1729   YY=            -93.4787   ZZ=            -92.1225
   XY=            -13.9757   XZ=              0.1463   YZ=             -1.2353

 Normal termination of Gaussian 16 at Thu May  6 10:45:03 2021.
