 Gaussian 16, Revision A.03,
 Gaussian 16:  EM64L-G16RevA.03 25-Dec-2016

 -------------
 #p 6-31g* mp2
 -------------

 ------------------------------------------------------
 Input file generated by CHIRIPA (05-May-2021 14:51:13)
 ------------------------------------------------------
 Symbolic Z-matrix:
 Charge =  0 Multiplicity = 1

                         Standard orientation:
 ---------------------------------------------------------------------
 Center     Atomic      Atomic             Coordinates (Angstroms)
 Number     Number       Type             X           Y           Z
 ---------------------------------------------------------------------
      1          6           0        2.839885   -0.876554   -0.167280
      2          6           0        1.939413   -1.499954    0.899728
      3          6           0        1.087875   -2.648218    0.357356
      4          1           0        2.217602   -0.513460   -0.996661
      5          1           0        3.494386   -1.654199   -0.584763
      6          1           0        1.287765   -0.721079    1.316049
      7          1           0        2.563897   -1.861434    1.726752
      8          1           0        1.724321   -3.445202   -0.040581
      9          1           0        0.440938   -2.298367   -0.453618
     10          1           0        0.451837   -3.079272    1.136784
     11          6           0        3.697314    0.272743    0.359656
     12          6           0        4.597786    0.896143   -0.707352
     13          6           0        5.449324    2.044407   -0.164980
     14          1           0        3.042813    1.050388    0.777139
     15          1           0        4.319597   -0.090351    1.189037
     16          1           0        3.973302    1.257623   -1.534376
     17          1           0        5.249434    0.117267   -1.123673
     18          1           0        6.096261    1.694556    0.645994
     19          1           0        4.812878    2.841391    0.232957
     20          1           0        6.085362    2.475461   -0.944408
     21          6           0       -3.551960   -0.406279   -0.056019
     22          6           0       -2.547940   -1.485128   -0.463468
     23          6           0       -3.129574   -2.896573   -0.377899
     24          1           0       -3.894562   -0.601677    0.969353
     25          1           0       -4.438728   -0.478155   -0.700901
     26          1           0       -1.662744   -1.410349    0.181086
     27          1           0       -2.207544   -1.287030   -1.487921
     28          1           0       -4.000352   -2.994842   -1.034168
     29          1           0       -3.452456   -3.118863    0.644321
     30          1           0       -2.394974   -3.652109   -0.673514
     31          6           0       -2.985238    1.010091   -0.136356
     32          6           0       -3.989258    2.088939    0.271091
     33          6           0       -3.407625    3.500383    0.185523
     34          1           0       -2.098472    1.081966    0.508525
     35          1           0       -2.642637    1.205489   -1.161729
     36          1           0       -4.329655    1.890841    1.295544
     37          1           0       -4.874455    2.014161   -0.373462
     38          1           0       -3.084743    3.722674   -0.836698
     39          1           0       -2.536847    3.598653    0.841792
     40          1           0       -4.142224    4.255920    0.481138
 ---------------------------------------------------------------------

 SCF Done:  E(RHF) =  -470.732830350     A.U. after   11 cycles
 E2 =    -0.1583079096D+01 EUMP2 =    -0.47231590944673D+03

 The electronic state is 1-A.
 Alpha  occ. eigenvalues --  -11.21617 -11.21617 -11.21599 -11.21537 -11.21412
 Alpha  occ. eigenvalues --  -11.21404 -11.21345 -11.21343 -11.21092 -11.21069
 Alpha  occ. eigenvalues --  -11.21033 -11.21014  -1.08448  -1.08412  -1.03575
 Alpha  occ. eigenvalues --   -1.03480  -0.96022  -0.95930  -0.87007  -0.86979
 Alpha  occ. eigenvalues --   -0.79680  -0.79515  -0.78276  -0.78216  -0.65142
 Alpha  occ. eigenvalues --   -0.64992  -0.61104  -0.60788  -0.59397  -0.59285
 Alpha  occ. eigenvalues --   -0.57632  -0.57559  -0.55343  -0.55169  -0.52715
 Alpha  occ. eigenvalues --   -0.52620  -0.52405  -0.52381  -0.50025  -0.49842
 Alpha  occ. eigenvalues --   -0.47984  -0.47819  -0.46732  -0.46500  -0.45852
 Alpha  occ. eigenvalues --   -0.45755  -0.45707  -0.45593  -0.43785  -0.43770
 Alpha virt. eigenvalues --    0.21331   0.23209   0.23507   0.24721   0.26247
 Alpha virt. eigenvalues --    0.26373   0.27007   0.27518   0.28147   0.29067
 Alpha virt. eigenvalues --    0.30412   0.31374   0.31606   0.31695   0.32272

 Mulliken charges:
               1
     1  C   -0.298361
     2  C   -0.300955
     3  C   -0.481192
     4  H    0.150181
     5  H    0.149594
     6  H    0.151404
     7  H    0.152135
     8  H    0.155112
     9  H    0.162105
    10  H    0.159907
    11  C   -0.298282
    12  C   -0.299675
    13  C   -0.475716
    14  H    0.149463
    15  H    0.149589
    16  H    0.152045
    17  H    0.151907
    18  H    0.155139
    19  H    0.155223
    20  H    0.160263
    21  C   -0.297729
    22  C   -0.305642
    23  C   -0.476558
    24  H    0.149516
    25  H    0.149309
    26  H    0.160205
    27  H    0.150256
    28  H    0.154966
    29  H    0.154768
    30  H    0.161926
    31  C   -0.298225
    32  C   -0.299597
    33  C   -0.475698
    34  H    0.148697
    35  H    0.149344
    36  H    0.152037
    37  H    0.152096
    38  H    0.155095
    39  H    0.154970
    40  H    0.160379
 Sum of Mulliken charges =  -0.00000

 Dipole moment (field-independent basis, Debye):
    X=              0.0058    Y=             -0.0129    Z=             -0.0061  Tot=              0.0154
 Quadrupole moment (field-independent basis, Debye-Ang):
   XX=            -84.7656   YY=            -86.2400   ZZ=            -83.8557
   XY=             -1.3728   XZ=              0.2924   YZ=             -0.4149

 Normal termination of Gaussian 16 at Wed May  5 21:35:18 2021.
