 Gaussian 16, Revision A.03,
 Gaussian 16:  EM64L-G16RevA.03 25-Dec-2016

 -------------
 #p 6-31g* mp2
 -------------

 ------------------------------------------------------
 Input file generated by CHIRIPA (05-May-2021 14:57:23)
 ------------------------------------------------------
 Symbolic Z-matrix:
 Charge =  0 Multiplicity = 1

                         Standard orientation:
 ---------------------------------------------------------------------
 Center     Atomic      Atomic             Coordinates (Angstroms)
 Number     Number       Type             X           Y           Z
 ---------------------------------------------------------------------
      1          6           0       -1.890358    2.565918   -0.540801
      2          6           0       -1.245014    1.438574   -1.059596
      3          6           0       -1.813254    0.168717   -0.921346
      4          6           0       -3.033379    0.062233   -0.255578
      5          6           0       -3.700789    1.166421    0.272268
      6          6           0       -3.114029    2.426489    0.122306
      7          1           0       -1.441742    3.548571   -0.652746
      8          1           0       -0.294608    1.543857   -1.575045
      9          1           0       -1.335214   -0.720811   -1.313310
     10          1           0       -4.647274    1.029863    0.781125
     11          1           0       -3.617472    3.300241    0.526222
     12          7           0       -3.644753   -1.276927   -0.103020
     13          8           0       -4.720468   -1.344054    0.487716
     14          8           0       -3.036657   -2.234075   -0.577069
     15          6           0        0.697228   -0.927872    1.256950
     16          6           0        1.391950    0.174037    1.766537
     17          6           0        2.631284    0.540528    1.233357
     18          6           0        3.148726   -0.220592    0.186344
     19          6           0        2.480732   -1.323724   -0.342971
     20          6           0        1.242874   -1.671924    0.205675
     21          1           0       -0.264944   -1.205467    1.677145
     22          1           0        0.970616    0.753709    2.582933
     23          1           0        3.190445    1.388939    1.608803
     24          1           0        2.926270   -1.882269   -1.157184
     25          1           0        0.705581   -2.528169   -0.192074
     26          7           0        4.459973    0.157714   -0.386296
     27          8           0        4.894285   -0.529130   -1.308390
     28          8           0        5.028588    1.133911    0.097803
 ---------------------------------------------------------------------

 SCF Done:  E(RHF) =  -868.338132792     A.U. after   16 cycles
 E2 =    -0.2602240695D+01 EUMP2 =    -0.87094037348616D+03

 The electronic state is 1-A.
 Alpha  occ. eigenvalues --  -20.61641 -20.61606 -20.61131 -20.61122 -15.86667
 Alpha  occ. eigenvalues --  -15.86185 -11.31871 -11.31549 -11.28406 -11.28389
 Alpha  occ. eigenvalues --  -11.28144 -11.28117 -11.28075 -11.27770 -11.27374
 Alpha  occ. eigenvalues --  -11.27306 -11.27076 -11.27007  -1.60704  -1.60210
 Alpha  occ. eigenvalues --   -1.40262  -1.39762  -1.20035  -1.19723  -1.09442
 Alpha  occ. eigenvalues --   -1.09097  -1.05385  -1.05114  -0.96309  -0.95925
 Alpha  occ. eigenvalues --   -0.86805  -0.86478  -0.83125  -0.82755  -0.78212
 Alpha  occ. eigenvalues --   -0.77816  -0.72876  -0.72394  -0.72052  -0.71545
 Alpha  occ. eigenvalues --   -0.71126  -0.70748  -0.65659  -0.65413  -0.65316
 Alpha  occ. eigenvalues --   -0.65040  -0.62751  -0.62420  -0.55875  -0.55559
 Alpha  occ. eigenvalues --   -0.54035  -0.53462  -0.53172  -0.53155  -0.49652
 Alpha  occ. eigenvalues --   -0.49613  -0.49155  -0.49152  -0.45694  -0.45168
 Alpha  occ. eigenvalues --   -0.38185  -0.37978  -0.36743  -0.36452
 Alpha virt. eigenvalues --    0.04135   0.04834   0.10263   0.11204   0.15755
 Alpha virt. eigenvalues --    0.16252   0.20590   0.21393   0.26090   0.27128
 Alpha virt. eigenvalues --    0.27885   0.28135   0.30290   0.30851   0.31644

 Mulliken charges:
               1
     1  C   -0.172649
     2  C   -0.215489
     3  C   -0.172225
     4  C    0.152993
     5  C   -0.172533
     6  C   -0.219598
     7  H    0.228761
     8  H    0.229157
     9  H    0.273613
    10  H    0.276342
    11  H    0.225278
    12  N    0.487508
    13  O   -0.456869
    14  O   -0.465761
    15  C   -0.167888
    16  C   -0.218609
    17  C   -0.173799
    18  C    0.155949
    19  C   -0.173964
    20  C   -0.231527
    21  H    0.232399
    22  H    0.224112
    23  H    0.275143
    24  H    0.277135
    25  H    0.234914
    26  N    0.487914
    27  O   -0.459461
    28  O   -0.460843
 Sum of Mulliken charges =  -0.00000

 Dipole moment (field-independent basis, Debye):
    X=             -2.5120    Y=              3.4437    Z=              1.5054  Tot=              4.5206
 Quadrupole moment (field-independent basis, Debye-Ang):
   XX=           -145.3004   YY=           -100.3846   ZZ=           -101.4616
   XY=            -19.2923   XZ=              4.6400   YZ=              1.8651

 Normal termination of Gaussian 16 at Thu May  6 16:18:42 2021.
