 Gaussian 16, Revision A.03,
 Gaussian 16:  EM64L-G16RevA.03 25-Dec-2016

 -------------
 #p 6-31g* mp2
 -------------

 ------------------------------------------------------
 Input file generated by CHIRIPA (05-May-2021 14:53:12)
 ------------------------------------------------------
 Symbolic Z-matrix:
 Charge =  0 Multiplicity = 1

                         Standard orientation:
 ---------------------------------------------------------------------
 Center     Atomic      Atomic             Coordinates (Angstroms)
 Number     Number       Type             X           Y           Z
 ---------------------------------------------------------------------
      1          6           0        3.188265   -0.433840    0.373521
      2          6           0        3.043480   -1.734824   -0.416708
      3          6           0        2.892710   -2.960462    0.484886
      4          1           0        4.059444   -0.511130    1.038366
      5          1           0        2.310355   -0.307310    1.022102
      6          1           0        3.920750   -1.858168   -1.064628
      7          1           0        2.172657   -1.654355   -1.079889
      8          1           0        2.007401   -2.863726    1.121653
      9          1           0        3.765426   -3.068697    1.137000
     10          1           0        2.790672   -3.879474   -0.100661
     11          6           0        3.339907    0.800334   -0.513918
     12          6           0        3.484693    2.101318    0.276312
     13          6           0        3.635463    3.326957   -0.625283
     14          1           0        4.217818    0.673804   -1.162499
     15          1           0        2.468728    0.877625   -1.178762
     16          1           0        4.355515    2.020849    0.939492
     17          1           0        2.607423    2.224662    0.924231
     18          1           0        2.762747    3.435192   -1.277397
     19          1           0        4.520771    3.230221   -1.262049
     20          1           0        3.737500    4.245969   -0.039736
     21          6           0       -4.257834    1.713267    0.110746
     22          6           0       -4.489894    0.571737   -0.663578
     23          6           0       -3.550640   -0.463091   -0.702073
     24          6           0       -2.384967   -0.322635    0.049438
     25          6           0       -2.124930    0.802294    0.830595
     26          6           0       -3.078174    1.824706    0.854052
     27          1           0       -4.992903    2.512324    0.134810
     28          1           0       -5.405141    0.482471   -1.241850
     29          1           0       -3.704854   -1.357771   -1.292990
     30          1           0       -1.203159    0.862601    1.396385
     31          1           0       -2.895287    2.710086    1.456297
     32          7           0       -1.383216   -1.411588    0.016645
     33          8           0       -0.364199   -1.263635    0.687727
     34          8           0       -1.636029   -2.392444   -0.679518
 ---------------------------------------------------------------------

 SCF Done:  E(RHF) =  -669.536373813     A.U. after   15 cycles
 E2 =    -0.2092439537D+01 EUMP2 =    -0.67162881335047D+03

 The electronic state is 1-A.
 Alpha  occ. eigenvalues --  -20.61139 -20.61131 -15.86151 -11.31408 -11.27963
 Alpha  occ. eigenvalues --  -11.27955 -11.27683 -11.26951 -11.26941 -11.21103
 Alpha  occ. eigenvalues --  -11.20747 -11.20540 -11.20062 -11.20000 -11.19244
 Alpha  occ. eigenvalues --   -1.60185  -1.39745  -1.19567  -1.08985  -1.07394
 Alpha  occ. eigenvalues --   -1.04953  -1.02437  -0.95838  -0.94904  -0.86357
 Alpha  occ. eigenvalues --   -0.85933  -0.82679  -0.78626  -0.77747  -0.77085
 Alpha  occ. eigenvalues --   -0.72397  -0.71494  -0.70675  -0.65234  -0.64956
 Alpha  occ. eigenvalues --   -0.63997  -0.62302  -0.59797  -0.58395  -0.56495
 Alpha  occ. eigenvalues --   -0.55460  -0.54190  -0.53288  -0.53042  -0.51650
 Alpha  occ. eigenvalues --   -0.51338  -0.49217  -0.49117  -0.48740  -0.46899
 Alpha  occ. eigenvalues --   -0.45689  -0.45165  -0.44620  -0.44440  -0.42701
 Alpha  occ. eigenvalues --   -0.37541  -0.36550
 Alpha virt. eigenvalues --    0.04766   0.11104   0.16262   0.21029   0.23575
 Alpha virt. eigenvalues --    0.25548   0.26478   0.27426   0.28069   0.29010
 Alpha virt. eigenvalues --    0.29078   0.31058   0.32336   0.32437   0.32753

 Mulliken charges:
               1
     1  C   -0.302486
     2  C   -0.292992
     3  C   -0.480452
     4  H    0.142670
     5  H    0.163306
     6  H    0.141933
     7  H    0.158110
     8  H    0.176813
     9  H    0.143528
    10  H    0.155753
    11  C   -0.297211
    12  C   -0.297361
    13  C   -0.474873
    14  H    0.146884
    15  H    0.147205
    16  H    0.151444
    17  H    0.145769
    18  H    0.152507
    19  H    0.155544
    20  H    0.156684
    21  C   -0.170332
    22  C   -0.218578
    23  C   -0.170405
    24  C    0.157253
    25  C   -0.170594
    26  C   -0.218498
    27  H    0.226514
    28  H    0.224266
    29  H    0.276146
    30  H    0.275467
    31  H    0.224433
    32  N    0.493527
    33  O   -0.464679
    34  O   -0.457294
 Sum of Mulliken charges =  -0.00000

 Dipole moment (field-independent basis, Debye):
    X=             -3.9743    Y=              3.7235    Z=              0.1542  Tot=              5.4483
 Quadrupole moment (field-independent basis, Debye-Ang):
   XX=            -76.8311   YY=            -97.8142   ZZ=            -93.6784
   XY=             -6.6609   XZ=              1.8740   YZ=              2.5896

 Normal termination of Gaussian 16 at Wed May  5 23:21:26 2021.
