 Gaussian 16, Revision A.03,
 Gaussian 16:  EM64L-G16RevA.03 25-Dec-2016

 -------------
 #p 6-31g* mp2
 -------------

 ------------------------------------------------------
 Input file generated by CHIRIPA (05-May-2021 14:53:18)
 ------------------------------------------------------
 Symbolic Z-matrix:
 Charge =  0 Multiplicity = 1

                         Standard orientation:
 ---------------------------------------------------------------------
 Center     Atomic      Atomic             Coordinates (Angstroms)
 Number     Number       Type             X           Y           Z
 ---------------------------------------------------------------------
      1          6           0        4.721054   -0.140978   -0.528678
      2          6           0        4.801876   -1.617652   -0.140238
      3          6           0        5.858398   -2.381956   -0.938607
      4          1           0        4.499700   -0.062291   -1.601877
      5          1           0        5.704542    0.325130   -0.377384
      6          1           0        3.818170   -2.080510   -0.290909
      7          1           0        5.022873   -1.692833    0.932201
      8          1           0        6.850434   -1.946798   -0.780166
      9          1           0        5.638886   -2.336677   -2.010225
     10          1           0        5.899212   -3.435483   -0.644881
     11          6           0        3.669345    0.636430    0.260797
     12          6           0        3.588523    2.113105   -0.127644
     13          6           0        2.532000    2.877409    0.670725
     14          1           0        2.685857    0.170323    0.109502
     15          1           0        3.890698    0.557743    1.333996
     16          1           0        3.367525    2.188285   -1.200082
     17          1           0        4.572228    2.575962    0.023027
     18          1           0        2.751513    2.832130    1.742343
     19          1           0        1.539965    2.442250    0.512284
     20          1           0        2.491186    3.930936    0.376999
     21          6           0       -1.348658   -0.436719    1.712857
     22          6           0       -1.213707    0.363898    0.573856
     23          6           0       -2.275809    0.505907   -0.324097
     24          6           0       -3.463972   -0.170026   -0.050835
     25          6           0       -3.629263   -0.974920    1.075271
     26          6           0       -2.553881   -1.102400    1.959493
     27          1           0       -0.518434   -0.541393    2.405075
     28          1           0       -0.278883    0.882049    0.379768
     29          1           0       -2.198542    1.119348   -1.213557
     30          1           0       -4.573449   -1.479062    1.241917
     31          1           0       -2.661538   -1.724837    2.843251
     32          7           0       -4.595402   -0.027378   -0.994190
     33          8           0       -5.631784   -0.633325   -0.730793
     34          8           0       -4.424411    0.687675   -1.979126
 ---------------------------------------------------------------------

 SCF Done:  E(RHF) =  -669.535519518     A.U. after   15 cycles
 E2 =    -0.2091075333D+01 EUMP2 =    -0.67162659485130D+03

 The electronic state is 1-A.
 Alpha  occ. eigenvalues --  -20.60744 -20.60739 -15.85797 -11.31160 -11.27734
 Alpha  occ. eigenvalues --  -11.27730 -11.27468 -11.26743 -11.26726 -11.22454
 Alpha  occ. eigenvalues --  -11.22281 -11.22195 -11.22121 -11.22040 -11.21536
 Alpha  occ. eigenvalues --   -1.59820  -1.39373  -1.19334  -1.09197  -1.08727
 Alpha  occ. eigenvalues --   -1.04740  -1.04275  -0.96737  -0.95562  -0.87751
 Alpha  occ. eigenvalues --   -0.86138  -0.82398  -0.80343  -0.79003  -0.77447
 Alpha  occ. eigenvalues --   -0.72016  -0.71143  -0.70437  -0.65849  -0.64985
 Alpha  occ. eigenvalues --   -0.64755  -0.62147  -0.61622  -0.60101  -0.58337
 Alpha  occ. eigenvalues --   -0.56053  -0.55228  -0.53404  -0.53211  -0.53061
 Alpha  occ. eigenvalues --   -0.52803  -0.50675  -0.48794  -0.48771  -0.48633
 Alpha  occ. eigenvalues --   -0.47369  -0.46539  -0.46452  -0.44779  -0.44525
 Alpha  occ. eigenvalues --   -0.37312  -0.36342
 Alpha virt. eigenvalues --    0.05093   0.11277   0.16578   0.18912   0.22569
 Alpha virt. eigenvalues --    0.23615   0.25089   0.26419   0.27006   0.28235
 Alpha virt. eigenvalues --    0.28848   0.29956   0.31022   0.31409   0.32010

 Mulliken charges:
               1
     1  C   -0.298633
     2  C   -0.300292
     3  C   -0.476138
     4  H    0.151888
     5  H    0.151923
     6  H    0.151579
     7  H    0.151478
     8  H    0.156223
     9  H    0.156754
    10  H    0.161610
    11  C   -0.299363
    12  C   -0.300523
    13  C   -0.479945
    14  H    0.143008
    15  H    0.149667
    16  H    0.154427
    17  H    0.156263
    18  H    0.157261
    19  H    0.146781
    20  H    0.166586
    21  C   -0.173484
    22  C   -0.228024
    23  C   -0.173433
    24  C    0.158933
    25  C   -0.171098
    26  C   -0.218614
    27  H    0.226601
    28  H    0.236749
    29  H    0.275957
    30  H    0.275520
    31  H    0.223350
    32  N    0.488055
    33  O   -0.460589
    34  O   -0.460476
 Sum of Mulliken charges =  -0.00000

 Dipole moment (field-independent basis, Debye):
    X=              4.2081    Y=             -0.4786    Z=              3.3042  Tot=              5.3717
 Quadrupole moment (field-independent basis, Debye-Ang):
   XX=           -120.4590   YY=            -93.3876   ZZ=            -93.6230
   XY=              3.8718   XZ=            -12.9018   YZ=             -2.7691

 Normal termination of Gaussian 16 at Wed May  5 18:50:41 2021.
