 Gaussian 16, Revision A.03,
 Gaussian 16:  EM64L-G16RevA.03 25-Dec-2016

 -------------
 #p 6-31g* mp2
 -------------

 ------------------------------------------------------
 Input file generated by CHIRIPA (05-May-2021 14:51:13)
 ------------------------------------------------------
 Symbolic Z-matrix:
 Charge =  0 Multiplicity = 1

                         Standard orientation:
 ---------------------------------------------------------------------
 Center     Atomic      Atomic             Coordinates (Angstroms)
 Number     Number       Type             X           Y           Z
 ---------------------------------------------------------------------
      1          6           0        4.335719   -0.426589    0.161481
      2          6           0        5.237545    0.648596   -0.445704
      3          6           0        6.724259    0.364133   -0.229940
      4          1           0        4.543059   -0.505290    1.237474
      5          1           0        4.591180   -1.400692   -0.278132
      6          1           0        4.979520    1.620593   -0.006090
      7          1           0        5.027898    0.724879   -1.520341
      8          1           0        7.003358   -0.592200   -0.683958
      9          1           0        6.954705    0.308604    0.838897
     10          1           0        7.350728    1.145183   -0.671934
     11          6           0        2.846560   -0.156252   -0.046006
     12          6           0        1.944735   -1.231437    0.561179
     13          6           0        0.458020   -0.946975    0.345415
     14          1           0        2.591099    0.817850    0.393607
     15          1           0        2.639220   -0.077552   -1.121999
     16          1           0        2.154381   -1.307721    1.635816
     17          1           0        2.202759   -2.203435    0.121565
     18          1           0        0.227574   -0.891445   -0.723422
     19          1           0        0.178921    0.009358    0.799433
     20          1           0       -0.168448   -1.728025    0.787409
     21          6           0       -3.748607    1.011695   -0.257338
     22          6           0       -2.833004    2.039428    0.408562
     23          6           0       -3.160431    3.475786   -0.000658
     24          1           0       -3.668213    1.110976   -1.348496
     25          1           0       -4.792175    1.238742    0.001136
     26          1           0       -1.791371    1.809688    0.150034
     27          1           0       -2.915443    1.937561    1.498261
     28          1           0       -4.190031    3.728902    0.272212
     29          1           0       -3.059573    3.600304   -1.083674
     30          1           0       -2.493893    4.194000    0.486944
     31          6           0       -3.433673   -0.428854    0.141864
     32          6           0       -4.349275   -1.456586   -0.524037
     33          6           0       -4.021848   -2.892944   -0.114816
     34          1           0       -2.390104   -0.655901   -0.116610
     35          1           0       -3.514067   -0.528134    1.233021
     36          1           0       -4.266837   -1.354719   -1.613735
     37          1           0       -5.390908   -1.226847   -0.265510
     38          1           0       -4.122706   -3.017462    0.968200
     39          1           0       -2.992248   -3.146061   -0.387687
     40          1           0       -4.688386   -3.611159   -0.602418
 ---------------------------------------------------------------------

 SCF Done:  E(RHF) =  -470.732995619     A.U. after   11 cycles
 E2 =    -0.1583255380D+01 EUMP2 =    -0.47231625099980D+03

 The electronic state is 1-A.
 Alpha  occ. eigenvalues --  -11.21629 -11.21620 -11.21535 -11.21515 -11.21434
 Alpha  occ. eigenvalues --  -11.21374 -11.21296 -11.21180 -11.21124 -11.21086
 Alpha  occ. eigenvalues --  -11.21029 -11.21023  -1.08463  -1.08334  -1.03565
 Alpha  occ. eigenvalues --   -1.03460  -0.96032  -0.95896  -0.87059  -0.86915
 Alpha  occ. eigenvalues --   -0.79664  -0.79520  -0.78306  -0.78089  -0.65089
 Alpha  occ. eigenvalues --   -0.64972  -0.60984  -0.60846  -0.59421  -0.59245
 Alpha  occ. eigenvalues --   -0.57626  -0.57517  -0.55315  -0.55194  -0.52793
 Alpha  occ. eigenvalues --   -0.52609  -0.52442  -0.52296  -0.49989  -0.49826
 Alpha  occ. eigenvalues --   -0.48003  -0.47815  -0.46707  -0.46502  -0.45959
 Alpha  occ. eigenvalues --   -0.45744  -0.45661  -0.45433  -0.43755  -0.43687
 Alpha virt. eigenvalues --    0.21746   0.22985   0.23889   0.24219   0.25490
 Alpha virt. eigenvalues --    0.26547   0.27071   0.27348   0.27906   0.29677
 Alpha virt. eigenvalues --    0.29814   0.31173   0.31792   0.31932   0.32363

 Mulliken charges:
               1
     1  C   -0.298315
     2  C   -0.299643
     3  C   -0.475725
     4  H    0.149776
     5  H    0.149591
     6  H    0.151982
     7  H    0.151907
     8  H    0.155208
     9  H    0.155233
    10  H    0.160319
    11  C   -0.298482
    12  C   -0.300719
    13  C   -0.480661
    14  H    0.149508
    15  H    0.149436
    16  H    0.152288
    17  H    0.151990
    18  H    0.153559
    19  H    0.159608
    20  H    0.162451
    21  C   -0.297422
    22  C   -0.303093
    23  C   -0.475473
    24  H    0.148886
    25  H    0.148933
    26  H    0.155346
    27  H    0.151358
    28  H    0.155112
    29  H    0.155055
    30  H    0.159742
    31  C   -0.309444
    32  C   -0.298821
    33  C   -0.476322
    34  H    0.165943
    35  H    0.148146
    36  H    0.151245
    37  H    0.151368
    38  H    0.154852
    39  H    0.155280
    40  H    0.159996
 Sum of Mulliken charges =  -0.00000

 Dipole moment (field-independent basis, Debye):
    X=              0.0530    Y=             -0.0118    Z=              0.0088  Tot=              0.0550
 Quadrupole moment (field-independent basis, Debye-Ang):
   XX=            -85.8923   YY=            -85.8124   ZZ=            -83.4261
   XY=              0.1448   XZ=             -0.6313   YZ=              0.7359

 Normal termination of Gaussian 16 at Thu May  6 07:07:48 2021.
