 Gaussian 16, Revision A.03,
 Gaussian 16:  EM64L-G16RevA.03 25-Dec-2016

 -------------
 #p 6-31g* mp2
 -------------

 ------------------------------------------------------
 Input file generated by CHIRIPA (05-May-2021 14:51:11)
 ------------------------------------------------------
 Symbolic Z-matrix:
 Charge =  0 Multiplicity = 1

                         Standard orientation:
 ---------------------------------------------------------------------
 Center     Atomic      Atomic             Coordinates (Angstroms)
 Number     Number       Type             X           Y           Z
 ---------------------------------------------------------------------
      1          6           0       -3.903243   -0.636544   -0.321813
      2          6           0       -4.830488    0.579161   -0.305633
      3          6           0       -6.008745    0.436825   -1.269607
      4          1           0       -3.527220   -0.789359   -1.342694
      5          1           0       -4.482410   -1.534154   -0.064409
      6          1           0       -4.249453    1.474412   -0.561639
      7          1           0       -5.204196    0.729214    0.715367
      8          1           0       -6.612869   -0.439366   -1.012850
      9          1           0       -5.652702    0.310067   -2.297112
     10          1           0       -6.658689    1.316976   -1.241919
     11          6           0       -2.720563   -0.509202    0.636718
     12          6           0       -1.793317   -1.724907    0.620539
     13          6           0       -0.615060   -1.582572    1.584513
     14          1           0       -2.141395    0.388407    0.379314
     15          1           0       -3.096586   -0.356388    1.657600
     16          1           0       -1.419610   -1.874960   -0.400462
     17          1           0       -2.374352   -2.620159    0.876544
     18          1           0       -0.971103   -1.455814    2.612018
     19          1           0       -0.010936   -0.706381    1.327756
     20          1           0        0.034884   -2.462723    1.556824
     21          6           0        3.769999    0.199277   -0.641194
     22          6           0        4.250241   -1.148829   -0.102713
     23          6           0        5.165807   -1.884262   -1.081830
     24          1           0        3.241251    0.040236   -1.590971
     25          1           0        4.642564    0.826548   -0.870447
     26          1           0        3.377002   -1.772859    0.126755
     27          1           0        4.777741   -0.986580    0.845989
     28          1           0        6.054581   -1.284415   -1.302883
     29          1           0        4.645884   -2.075161   -2.026202
     30          1           0        5.497358   -2.845437   -0.676768
     31          6           0        2.853807    0.946469    0.326289
     32          6           0        2.373565    2.294575   -0.212193
     33          6           0        1.457998    3.030009    0.766925
     34          1           0        1.981242    0.319199    0.555541
     35          1           0        3.382555    1.105511    1.276066
     36          1           0        1.846064    2.132327   -1.160894
     37          1           0        3.246804    2.918606   -0.441662
     38          1           0        1.977922    3.220908    1.711296
     39          1           0        0.569224    2.430162    0.987977
     40          1           0        1.126447    3.991184    0.361862
 ---------------------------------------------------------------------

 SCF Done:  E(RHF) =  -470.733363919     A.U. after   11 cycles
 E2 =    -0.1582943427D+01 EUMP2 =    -0.47231630734536D+03

 The electronic state is 1-A.
 Alpha  occ. eigenvalues --  -11.21655 -11.21622 -11.21617 -11.21583 -11.21449
 Alpha  occ. eigenvalues --  -11.21394 -11.21387 -11.21333 -11.21119 -11.21098
 Alpha  occ. eigenvalues --  -11.21087 -11.21061  -1.08473  -1.08428  -1.03571
 Alpha  occ. eigenvalues --   -1.03530  -0.96026  -0.95976  -0.87046  -0.86989
 Alpha  occ. eigenvalues --   -0.79649  -0.79578  -0.78305  -0.78220  -0.65174
 Alpha  occ. eigenvalues --   -0.65004  -0.61026  -0.60878  -0.59395  -0.59339
 Alpha  occ. eigenvalues --   -0.57645  -0.57578  -0.55416  -0.55181  -0.52717
 Alpha  occ. eigenvalues --   -0.52672  -0.52491  -0.52363  -0.50071  -0.49841
 Alpha  occ. eigenvalues --   -0.48027  -0.47859  -0.46796  -0.46566  -0.45912
 Alpha  occ. eigenvalues --   -0.45786  -0.45755  -0.45439  -0.43823  -0.43783
 Alpha virt. eigenvalues --    0.20261   0.23200   0.23654   0.24495   0.25812
 Alpha virt. eigenvalues --    0.26621   0.27109   0.27152   0.28295   0.29504
 Alpha virt. eigenvalues --    0.30128   0.31438   0.31742   0.31815   0.31881

 Mulliken charges:
               1
     1  C   -0.298318
     2  C   -0.299757
     3  C   -0.475739
     4  H    0.149608
     5  H    0.149724
     6  H    0.152131
     7  H    0.152084
     8  H    0.155208
     9  H    0.155171
    10  H    0.160395
    11  C   -0.299009
    12  C   -0.299374
    13  C   -0.483845
    14  H    0.149460
    15  H    0.150092
    16  H    0.151586
    17  H    0.152367
    18  H    0.156099
    19  H    0.161885
    20  H    0.160379
    21  C   -0.297516
    22  C   -0.300057
    23  C   -0.475716
    24  H    0.149201
    25  H    0.149507
    26  H    0.152614
    27  H    0.152035
    28  H    0.155131
    29  H    0.155038
    30  H    0.160238
    31  C   -0.307709
    32  C   -0.299161
    33  C   -0.477138
    34  H    0.158509
    35  H    0.149891
    36  H    0.151291
    37  H    0.152161
    38  H    0.155704
    39  H    0.155444
    40  H    0.160385
 Sum of Mulliken charges =  -0.00000

 Dipole moment (field-independent basis, Debye):
    X=             -0.0127    Y=             -0.0066    Z=              0.0173  Tot=              0.0225
 Quadrupole moment (field-independent basis, Debye-Ang):
   XX=            -85.0282   YY=            -84.8299   ZZ=            -84.8177
   XY=              1.1165   XZ=             -0.2330   YZ=             -0.4990

 Normal termination of Gaussian 16 at Thu May  6 07:03:27 2021.
