 Gaussian 16, Revision A.03,
 Gaussian 16:  EM64L-G16RevA.03 25-Dec-2016

 -------------
 #p 6-31g* mp2
 -------------

 ------------------------------------------------------
 Input file generated by CHIRIPA (05-May-2021 14:55:24)
 ------------------------------------------------------
 Symbolic Z-matrix:
 Charge =  0 Multiplicity = 1

                         Standard orientation:
 ---------------------------------------------------------------------
 Center     Atomic      Atomic             Coordinates (Angstroms)
 Number     Number       Type             X           Y           Z
 ---------------------------------------------------------------------
      1          6           0       -2.555707    2.549258    0.322992
      2          6           0       -3.025153    1.909497   -0.828897
      3          6           0       -3.118908    0.515480   -0.878625
      4          6           0       -2.732945   -0.211007    0.246781
      5          6           0       -2.261277    0.397249    1.409039
      6          6           0       -2.175937    1.792427    1.436321
      7          1           0       -2.486144    3.632615    0.352903
      8          1           0       -3.320789    2.494714   -1.695018
      9          1           0       -3.478855   -0.005526   -1.757493
     10          1           0       -1.973968   -0.212986    2.256674
     11          1           0       -1.810994    2.286577    2.332243
     12          7           0       -2.827745   -1.687406    0.206018
     13          8           0       -2.481467   -2.304763    1.210806
     14          8           0       -3.246533   -2.199293   -0.829948
     15          6           0        2.895844    0.302340   -0.679713
     16          6           0        1.622398   -0.543312   -0.714216
     17          6           0        0.466337    0.157821   -1.428168
     18          1           0        2.680669    1.257560   -0.181516
     19          1           0        3.193421    0.546641   -1.708867
     20          1           0        1.328085   -0.787108    0.314649
     21          1           0        1.840677   -1.496709   -1.212217
     22          1           0        0.735637    0.386845   -2.464328
     23          1           0        0.220134    1.100478   -0.928788
     24          1           0       -0.433947   -0.464416   -1.441226
     25          6           0        4.060497   -0.385082    0.030754
     26          6           0        5.333943    0.460572    0.065257
     27          6           0        6.490004   -0.240563    0.779210
     28          1           0        3.762920   -0.629382    1.059909
     29          1           0        4.275672   -1.340302   -0.467442
     30          1           0        5.115664    1.413968    0.563258
     31          1           0        5.628256    0.704366   -0.963607
     32          1           0        6.736208   -1.183220    0.279830
     33          1           0        6.220704   -0.469587    1.815370
     34          1           0        7.390288    0.381674    0.792268
 ---------------------------------------------------------------------

 SCF Done:  E(RHF) =  -669.534116908     A.U. after   15 cycles
 E2 =    -0.2094065206D+01 EUMP2 =    -0.67162818211461D+03

 The electronic state is 1-A.
 Alpha  occ. eigenvalues --  -20.60838 -20.60821 -15.85867 -11.31166 -11.27796
 Alpha  occ. eigenvalues --  -11.27745 -11.27556 -11.26831 -11.26795 -11.21610
 Alpha  occ. eigenvalues --  -11.21447 -11.21366 -11.21307 -11.21065 -11.20891
 Alpha  occ. eigenvalues --   -1.59902  -1.39456  -1.19400  -1.08804  -1.08380
 Alpha  occ. eigenvalues --   -1.04799  -1.03467  -0.95934  -0.95630  -0.86956
 Alpha  occ. eigenvalues --   -0.86200  -0.82467  -0.79535  -0.78192  -0.77511
 Alpha  occ. eigenvalues --   -0.72093  -0.71243  -0.70517  -0.65054  -0.65018
 Alpha  occ. eigenvalues --   -0.64807  -0.62147  -0.60884  -0.59343  -0.57554
 Alpha  occ. eigenvalues --   -0.55335  -0.55311  -0.53443  -0.52894  -0.52365
 Alpha  occ. eigenvalues --   -0.52202  -0.49789  -0.48856  -0.48846  -0.47860
 Alpha  occ. eigenvalues --   -0.46545  -0.45731  -0.45662  -0.44864  -0.43736
 Alpha  occ. eigenvalues --   -0.37305  -0.36361
 Alpha virt. eigenvalues --    0.04999   0.11188   0.16500   0.21370   0.22860
 Alpha virt. eigenvalues --    0.24259   0.26655   0.27233   0.27476   0.27940
 Alpha virt. eigenvalues --    0.28325   0.30652   0.31343   0.31738   0.31904

 Mulliken charges:
               1
     1  C   -0.171785
     2  C   -0.215039
     3  C   -0.170626
     4  C    0.159924
     5  C   -0.170716
     6  C   -0.218672
     7  H    0.225882
     8  H    0.223838
     9  H    0.275440
    10  H    0.275471
    11  H    0.223515
    12  N    0.489458
    13  O   -0.460025
    14  O   -0.460657
    15  C   -0.298001
    16  C   -0.299730
    17  C   -0.478596
    18  H    0.145739
    19  H    0.148981
    20  H    0.151819
    21  H    0.155629
    22  H    0.152177
    23  H    0.154286
    24  H    0.161232
    25  C   -0.298196
    26  C   -0.299354
    27  C   -0.475640
    28  H    0.149481
    29  H    0.151517
    30  H    0.149951
    31  H    0.151728
    32  H    0.156170
    33  H    0.155142
    34  H    0.159659
 Sum of Mulliken charges =  -0.00000

 Dipole moment (field-independent basis, Debye):
    X=              0.2423    Y=              5.1852    Z=              0.1543  Tot=              5.1931
 Quadrupole moment (field-independent basis, Debye-Ang):
   XX=            -97.5471   YY=            -97.5127   ZZ=            -89.9030
   XY=            -14.5780   XZ=              0.9286   YZ=              1.5850

 Normal termination of Gaussian 16 at Thu May  6 14:21:38 2021.
