 Gaussian 16, Revision A.03,
 Gaussian 16:  EM64L-G16RevA.03 25-Dec-2016

 -------------
 #p 6-31g* mp2
 -------------

 ------------------------------------------------------
 Input file generated by CHIRIPA (05-May-2021 14:55:22)
 ------------------------------------------------------
 Symbolic Z-matrix:
 Charge =  0 Multiplicity = 1

                         Standard orientation:
 ---------------------------------------------------------------------
 Center     Atomic      Atomic             Coordinates (Angstroms)
 Number     Number       Type             X           Y           Z
 ---------------------------------------------------------------------
      1          6           0       -5.297651   -1.626119   -0.236965
      2          6           0       -3.957687   -1.918839    0.037503
      3          6           0       -3.018323   -0.891359    0.165687
      4          6           0       -3.455551    0.423436    0.012599
      5          6           0       -4.783537    0.747156   -0.261167
      6          6           0       -5.705580   -0.296400   -0.385163
      7          1           0       -6.020643   -2.430534   -0.334914
      8          1           0       -3.638035   -2.950587    0.153098
      9          1           0       -1.974745   -1.089669    0.377900
     10          1           0       -5.072168    1.785436   -0.371102
     11          1           0       -6.745561   -0.066104   -0.598347
     12          7           0       -2.470257    1.519692    0.146084
     13          8           0       -2.880795    2.669770    0.006742
     14          8           0       -1.306103    1.208102    0.387525
     15          6           0        4.077756   -0.837410    0.009603
     16          6           0        2.695063   -0.265921    0.325113
     17          6           0        1.598847   -1.331769    0.316516
     18          1           0        4.049203   -1.328152   -0.972894
     19          1           0        4.319623   -1.619397    0.742673
     20          1           0        2.456464    0.515716   -0.407506
     21          1           0        2.726961    0.223685    1.306889
     22          1           0        1.809997   -2.107559    1.059594
     23          1           0        1.537964   -1.813869   -0.664542
     24          1           0        0.618689   -0.901435    0.544469
     25          6           0        5.184168    0.215945    0.014463
     26          6           0        6.566861   -0.355543   -0.301046
     27          6           0        7.663077    0.710305   -0.292449
     28          1           0        4.942303    0.997932   -0.718607
     29          1           0        5.212721    0.706688    0.996961
     30          1           0        6.534964   -0.845149   -1.282822
     31          1           0        6.805461   -1.137180    0.431573
     32          1           0        7.723961    1.192404    0.688608
     33          1           0        7.451927    1.486096   -1.035527
     34          1           0        8.643236    0.279970   -0.520402
 ---------------------------------------------------------------------

 SCF Done:  E(RHF) =  -669.535958155     A.U. after   15 cycles
 E2 =    -0.2091226527D+01 EUMP2 =    -0.67162718468156D+03

 The electronic state is 1-A.
 Alpha  occ. eigenvalues --  -20.60877 -20.60870 -15.85919 -11.31236 -11.27803
 Alpha  occ. eigenvalues --  -11.27791 -11.27541 -11.26812 -11.26798 -11.21212
 Alpha  occ. eigenvalues --  -11.20901 -11.20866 -11.20808 -11.20718 -11.20486
 Alpha  occ. eigenvalues --   -1.59944  -1.39501  -1.19407  -1.08812  -1.07902
 Alpha  occ. eigenvalues --   -1.04803  -1.02999  -0.95664  -0.95474  -0.86518
 Alpha  occ. eigenvalues --   -0.86204  -0.82489  -0.79073  -0.77698  -0.77544
 Alpha  occ. eigenvalues --   -0.72149  -0.71259  -0.70519  -0.65065  -0.64812
 Alpha  occ. eigenvalues --   -0.64537  -0.62165  -0.60403  -0.58826  -0.57051
 Alpha  occ. eigenvalues --   -0.55311  -0.54791  -0.53136  -0.52925  -0.52153
 Alpha  occ. eigenvalues --   -0.51902  -0.49448  -0.48894  -0.48885  -0.47369
 Alpha  occ. eigenvalues --   -0.46101  -0.45250  -0.45165  -0.44913  -0.43256
 Alpha  occ. eigenvalues --   -0.37389  -0.36404
 Alpha virt. eigenvalues --    0.04992   0.11249   0.16492   0.20930   0.23343
 Alpha virt. eigenvalues --    0.24365   0.26326   0.27169   0.27677   0.28053
 Alpha virt. eigenvalues --    0.29090   0.30210   0.31564   0.31872   0.32354

 Mulliken charges:
               1
     1  C   -0.170233
     2  C   -0.221684
     3  C   -0.171729
     4  C    0.155459
     5  C   -0.170192
     6  C   -0.218992
     7  H    0.225823
     8  H    0.224576
     9  H    0.283927
    10  H    0.275645
    11  H    0.223578
    12  N    0.491993
    13  O   -0.459501
    14  O   -0.467123
    15  C   -0.298589
    16  C   -0.295649
    17  C   -0.491507
    18  H    0.147173
    19  H    0.146604
    20  H    0.159477
    21  H    0.154389
    22  H    0.148744
    23  H    0.149406
    24  H    0.179272
    25  C   -0.298052
    26  C   -0.299160
    27  C   -0.475470
    28  H    0.150877
    29  H    0.150143
    30  H    0.150796
    31  H    0.150604
    32  H    0.155195
    33  H    0.155481
    34  H    0.158719
 Sum of Mulliken charges =  -0.00000

 Dipole moment (field-independent basis, Debye):
    X=             -3.6281    Y=             -3.7268    Z=             -0.4635  Tot=              5.2218
 Quadrupole moment (field-independent basis, Debye-Ang):
   XX=            -69.7017   YY=            -96.7658   ZZ=            -94.5543
   XY=              9.0908   XZ=              2.5995   YZ=             -1.0553

 Normal termination of Gaussian 16 at Thu May  6 06:13:21 2021.
