 Gaussian 16, Revision A.03,
 Gaussian 16:  EM64L-G16RevA.03 25-Dec-2016

 -------------
 #p 6-31g* mp2
 -------------

 ------------------------------------------------------
 Input file generated by CHIRIPA (05-May-2021 14:55:24)
 ------------------------------------------------------
 Symbolic Z-matrix:
 Charge =  0 Multiplicity = 1

                         Standard orientation:
 ---------------------------------------------------------------------
 Center     Atomic      Atomic             Coordinates (Angstroms)
 Number     Number       Type             X           Y           Z
 ---------------------------------------------------------------------
      1          6           0        4.549794    2.376148    0.264767
      2          6           0        3.229663    2.305722   -0.192197
      3          6           0        2.616968    1.067162   -0.404616
      4          6           0        3.357088   -0.086115   -0.148753
      5          6           0        4.673947   -0.048749    0.307070
      6          6           0        5.266459    1.200760    0.512506
      7          1           0        5.017910    3.342545    0.427067
      8          1           0        2.670679    3.216899   -0.385429
      9          1           0        1.596362    0.983697   -0.757907
     10          1           0        5.205746   -0.974394    0.490888
     11          1           0        6.291836    1.252420    0.867440
     12          7           0        2.719139   -1.403119   -0.369935
     13          8           0        3.392650   -2.404519   -0.137086
     14          8           0        1.557683   -1.409050   -0.771959
     15          6           0       -3.901813   -0.640183   -0.137990
     16          6           0       -2.909964   -1.135891    0.914859
     17          6           0       -1.856141   -2.080393    0.335923
     18          1           0       -4.396988   -1.504328   -0.601671
     19          1           0       -3.350377   -0.128895   -0.939174
     20          1           0       -3.463234   -1.644882    1.714507
     21          1           0       -2.417232   -0.270457    1.376222
     22          1           0       -1.278780   -1.579424   -0.447841
     23          1           0       -2.330724   -2.961658   -0.107634
     24          1           0       -1.157483   -2.422631    1.105735
     25          6           0       -4.961494    0.304969    0.425478
     26          6           0       -5.953343    0.800677   -0.627372
     27          6           0       -7.007166    1.745179   -0.048435
     28          1           0       -5.512930   -0.206319    1.226661
     29          1           0       -4.466319    1.169114    0.889158
     30          1           0       -6.446075   -0.064757   -1.088735
     31          1           0       -5.400073    1.309668   -1.427019
     32          1           0       -6.532583    2.626444    0.395121
     33          1           0       -7.584527    1.244210    0.735328
     34          1           0       -7.705824    2.087417   -0.818248
 ---------------------------------------------------------------------

 SCF Done:  E(RHF) =  -669.535646974     A.U. after   15 cycles
 E2 =    -0.2090808401D+01 EUMP2 =    -0.67162645537516D+03

 The electronic state is 1-A.
 Alpha  occ. eigenvalues --  -20.60861 -20.60851 -15.85902 -11.31259 -11.27831
 Alpha  occ. eigenvalues --  -11.27822 -11.27569 -11.26843 -11.26833 -11.21319
 Alpha  occ. eigenvalues --  -11.21003 -11.20870 -11.20842 -11.20783 -11.19736
 Alpha  occ. eigenvalues --   -1.59925  -1.39481  -1.19431  -1.08828  -1.07924
 Alpha  occ. eigenvalues --   -1.04834  -1.02927  -0.95670  -0.95335  -0.86345
 Alpha  occ. eigenvalues --   -0.86231  -0.82500  -0.79011  -0.77720  -0.77540
 Alpha  occ. eigenvalues --   -0.72130  -0.71244  -0.70541  -0.65089  -0.64837
 Alpha  occ. eigenvalues --   -0.64566  -0.62182  -0.60327  -0.58769  -0.56952
 Alpha  occ. eigenvalues --   -0.55336  -0.54622  -0.53163  -0.52927  -0.51999
 Alpha  occ. eigenvalues --   -0.51757  -0.49306  -0.48882  -0.48846  -0.47304
 Alpha  occ. eigenvalues --   -0.46074  -0.45248  -0.45196  -0.44833  -0.43176
 Alpha  occ. eigenvalues --   -0.37411  -0.36437
 Alpha virt. eigenvalues --    0.04981   0.11217   0.16465   0.21279   0.23297
 Alpha virt. eigenvalues --    0.24860   0.26974   0.27307   0.27855   0.28061
 Alpha virt. eigenvalues --    0.28929   0.30814   0.31843   0.32228   0.32531

 Mulliken charges:
               1
     1  C   -0.170740
     2  C   -0.218486
     3  C   -0.170508
     4  C    0.157994
     5  C   -0.170849
     6  C   -0.218516
     7  H    0.225852
     8  H    0.223598
     9  H    0.274932
    10  H    0.275841
    11  H    0.223709
    12  N    0.492706
    13  O   -0.459623
    14  O   -0.463725
    15  C   -0.297275
    16  C   -0.300410
    17  C   -0.475998
    18  H    0.149876
    19  H    0.147592
    20  H    0.148479
    21  H    0.146028
    22  H    0.171751
    23  H    0.151014
    24  H    0.161898
    25  C   -0.297327
    26  C   -0.299069
    27  C   -0.475267
    28  H    0.149104
    29  H    0.146663
    30  H    0.152342
    31  H    0.150482
    32  H    0.153580
    33  H    0.155124
    34  H    0.159229
 Sum of Mulliken charges =  -0.00000

 Dipole moment (field-independent basis, Debye):
    X=              2.4855    Y=              4.5722    Z=              0.7213  Tot=              5.2538
 Quadrupole moment (field-independent basis, Debye-Ang):
   XX=            -77.3931   YY=            -94.7959   ZZ=            -95.5729
   XY=             14.6166   XZ=              4.0663   YZ=             -1.7888

 Normal termination of Gaussian 16 at Thu May  6 12:39:12 2021.
