 Gaussian 16, Revision A.03,
 Gaussian 16:  EM64L-G16RevA.03 25-Dec-2016

 -------------
 #p 6-31g* mp2
 -------------

 ------------------------------------------------------
 Input file generated by CHIRIPA (05-May-2021 14:57:21)
 ------------------------------------------------------
 Symbolic Z-matrix:
 Charge =  0 Multiplicity = 1

                         Standard orientation:
 ---------------------------------------------------------------------
 Center     Atomic      Atomic             Coordinates (Angstroms)
 Number     Number       Type             X           Y           Z
 ---------------------------------------------------------------------
      1          6           0       -2.743334   -2.216835   -0.712802
      2          6           0       -3.917323   -1.950428   -0.000554
      3          6           0       -4.262867   -0.637501    0.333169
      4          6           0       -3.407525    0.389489   -0.063025
      5          6           0       -2.231009    0.156175   -0.773422
      6          6           0       -1.905401   -1.164539   -1.096287
      7          1           0       -2.482651   -3.239773   -0.967829
      8          1           0       -4.569968   -2.765672    0.298571
      9          1           0       -5.165694   -0.402920    0.883891
     10          1           0       -1.600388    0.989745   -1.057846
     11          1           0       -0.993033   -1.368464   -1.649499
     12          7           0       -3.762784    1.783548    0.284525
     13          8           0       -2.992368    2.670689   -0.076138
     14          8           0       -4.804925    1.962675    0.911017
     15          6           0        1.891255   -2.116501    0.762201
     16          6           0        1.975340   -1.715250   -0.575128
     17          6           0        2.779865   -0.632436   -0.942280
     18          6           0        3.489901    0.029442    0.058249
     19          6           0        3.426901   -0.346365    1.399179
     20          6           0        2.616025   -1.431985    1.743356
     21          1           0        1.263813   -2.958747    1.038491
     22          1           0        1.413589   -2.244993   -1.339231
     23          1           0        2.863294   -0.300650   -1.970081
     24          1           0        3.998647    0.201321    2.138479
     25          1           0        2.552646   -1.741385    2.782731
     26          7           0        4.344977    1.177253   -0.318277
     27          8           0        4.960586    1.743812    0.582097
     28          8           0        4.383386    1.488617   -1.506644
 ---------------------------------------------------------------------

 SCF Done:  E(RHF) =  -868.336360057     A.U. after   16 cycles
 E2 =    -0.2600355328D+01 EUMP2 =    -0.87093671538477D+03

 The electronic state is 1-A.
 Alpha  occ. eigenvalues --  -20.61107 -20.61097 -20.61074 -20.61064 -15.86168
 Alpha  occ. eigenvalues --  -15.86131 -11.31693 -11.31641 -11.28361 -11.28260
 Alpha  occ. eigenvalues --  -11.28227 -11.28222 -11.28112 -11.28073 -11.27473
 Alpha  occ. eigenvalues --  -11.27344 -11.27287 -11.27283  -1.60177  -1.60145
 Alpha  occ. eigenvalues --   -1.39726  -1.39694  -1.19905  -1.19842  -1.09275
 Alpha  occ. eigenvalues --   -1.09224  -1.05359  -1.05255  -0.96070  -0.96029
 Alpha  occ. eigenvalues --   -0.86786  -0.86630  -0.82926  -0.82841  -0.77962
 Alpha  occ. eigenvalues --   -0.77833  -0.72383  -0.72345  -0.71502  -0.71472
 Alpha  occ. eigenvalues --   -0.71014  -0.70973  -0.65605  -0.65556  -0.65500
 Alpha  occ. eigenvalues --   -0.65118  -0.62794  -0.62498  -0.55871  -0.55789
 Alpha  occ. eigenvalues --   -0.53756  -0.53567  -0.53523  -0.53206  -0.49159
 Alpha  occ. eigenvalues --   -0.49127  -0.49114  -0.49090  -0.45096  -0.45066
 Alpha  occ. eigenvalues --   -0.38000  -0.37779  -0.37047  -0.36724
 Alpha virt. eigenvalues --    0.04627   0.04674   0.10367   0.11013   0.15965
 Alpha virt. eigenvalues --    0.16137   0.19046   0.21858   0.24987   0.27335
 Alpha virt. eigenvalues --    0.27969   0.28524   0.29549   0.31482   0.31784

 Mulliken charges:
               1
     1  C   -0.174138
     2  C   -0.218468
     3  C   -0.170610
     4  C    0.158770
     5  C   -0.170058
     6  C   -0.217622
     7  H    0.221878
     8  H    0.224114
     9  H    0.277115
    10  H    0.279113
    11  H    0.217319
    12  N    0.487824
    13  O   -0.457504
    14  O   -0.459614
    15  C   -0.167712
    16  C   -0.221384
    17  C   -0.172317
    18  C    0.159587
    19  C   -0.168473
    20  C   -0.218141
    21  H    0.224412
    22  H    0.214421
    23  H    0.275816
    24  H    0.278647
    25  H    0.226033
    26  N    0.488253
    27  O   -0.457623
    28  O   -0.459639
 Sum of Mulliken charges =  -0.00000

 Dipole moment (field-independent basis, Debye):
    X=             -1.6821    Y=             -8.7577    Z=              0.2890  Tot=              8.9224
 Quadrupole moment (field-independent basis, Debye-Ang):
   XX=           -130.6182   YY=           -109.7642   ZZ=            -99.5461
   XY=              4.7860   XZ=              8.1142   YZ=             -0.8591

 Normal termination of Gaussian 16 at Thu May  6 12:47:08 2021.
