 Gaussian 16, Revision A.03,
 Gaussian 16:  EM64L-G16RevA.03 25-Dec-2016

 -------------
 #p 6-31g* mp2
 -------------

 ------------------------------------------------------
 Input file generated by CHIRIPA (05-May-2021 14:53:18)
 ------------------------------------------------------
 Symbolic Z-matrix:
 Charge =  0 Multiplicity = 1

                         Standard orientation:
 ---------------------------------------------------------------------
 Center     Atomic      Atomic             Coordinates (Angstroms)
 Number     Number       Type             X           Y           Z
 ---------------------------------------------------------------------
      1          6           0       -3.333983    0.830471   -0.385999
      2          6           0       -4.060853    2.137553   -0.067910
      3          6           0       -3.455297    3.341572   -0.790014
      4          1           0       -2.275222    0.930671   -0.110445
      5          1           0       -3.359715    0.659423   -1.471114
      6          1           0       -4.034957    2.305382    1.016424
      7          1           0       -5.118047    2.034164   -0.344075
      8          1           0       -3.495223    3.200198   -1.874920
      9          1           0       -2.405980    3.472957   -0.506691
     10          1           0       -3.990181    4.265346   -0.548351
     11          6           0       -3.927737   -0.382273    0.328450
     12          6           0       -3.200868   -1.689356    0.010361
     13          6           0       -3.806423   -2.893375    0.732465
     14          1           0       -3.902005   -0.211225    1.413565
     15          1           0       -4.986498   -0.482473    0.052896
     16          1           0       -2.143674   -1.585966    0.286526
     17          1           0       -3.226764   -1.857184   -1.073973
     18          1           0       -4.855741   -3.024759    0.449142
     19          1           0       -3.766497   -2.752000    1.817371
     20          1           0       -3.271540   -3.817149    0.490802
     21          6           0        4.272585    1.836362    0.530430
     22          6           0        2.962088    1.771481    1.015104
     23          6           0        2.157398    0.661859    0.739855
     24          6           0        2.697785   -0.369536   -0.026627
     25          6           0        3.999677   -0.334256   -0.523740
     26          6           0        4.786291    0.785138   -0.236094
     27          1           0        4.890668    2.702137    0.749065
     28          1           0        2.560496    2.586397    1.610653
     29          1           0        1.139512    0.585724    1.102526
     30          1           0        4.372162   -1.162162   -1.114709
     31          1           0        5.803690    0.832810   -0.613814
     32          7           0        1.855463   -1.549415   -0.324582
     33          8           0        2.355051   -2.444942   -1.002137
     34          8           0        0.711612   -1.556337    0.125076
 ---------------------------------------------------------------------

 SCF Done:  E(RHF) =  -669.536029416     A.U. after   15 cycles
 E2 =    -0.2091093049D+01 EUMP2 =    -0.67162712246561D+03

 The electronic state is 1-A.
 Alpha  occ. eigenvalues --  -20.60932 -20.60924 -15.85977 -11.31297 -11.27867
 Alpha  occ. eigenvalues --  -11.27856 -11.27596 -11.26870 -11.26859 -11.21300
 Alpha  occ. eigenvalues --  -11.20938 -11.20865 -11.20631 -11.20334 -11.20049
 Alpha  occ. eigenvalues --   -1.59994  -1.39552  -1.19465  -1.08868  -1.07781
 Alpha  occ. eigenvalues --   -1.04864  -1.02846  -0.95711  -0.95352  -0.86377
 Alpha  occ. eigenvalues --   -0.86263  -0.82549  -0.78946  -0.77636  -0.77467
 Alpha  occ. eigenvalues --   -0.72202  -0.71309  -0.70576  -0.65125  -0.64867
 Alpha  occ. eigenvalues --   -0.64420  -0.62213  -0.60243  -0.58750  -0.56913
 Alpha  occ. eigenvalues --   -0.55366  -0.54667  -0.53193  -0.52957  -0.52051
 Alpha  occ. eigenvalues --   -0.51766  -0.49337  -0.48958  -0.48949  -0.47244
 Alpha  occ. eigenvalues --   -0.45989  -0.45129  -0.45015  -0.44789  -0.43111
 Alpha  occ. eigenvalues --   -0.37443  -0.36465
 Alpha virt. eigenvalues --    0.04929   0.11187   0.16425   0.21013   0.23221
 Alpha virt. eigenvalues --    0.24986   0.26009   0.27448   0.27704   0.28481
 Alpha virt. eigenvalues --    0.29116   0.31078   0.31986   0.32188   0.32545

 Mulliken charges:
               1
     1  C   -0.296530
     2  C   -0.299205
     3  C   -0.474299
     4  H    0.147425
     5  H    0.150232
     6  H    0.149344
     7  H    0.152098
     8  H    0.155977
     9  H    0.150305
    10  H    0.158547
    11  C   -0.297803
    12  C   -0.309860
    13  C   -0.475054
    14  H    0.145522
    15  H    0.146301
    16  H    0.179248
    17  H    0.150097
    18  H    0.149486
    19  H    0.151295
    20  H    0.164142
    21  C   -0.170586
    22  C   -0.218463
    23  C   -0.170860
    24  C    0.157655
    25  C   -0.170554
    26  C   -0.218534
    27  H    0.226064
    28  H    0.223856
    29  H    0.275133
    30  H    0.275911
    31  H    0.223861
    32  N    0.495950
    33  O   -0.458886
    34  O   -0.467815
 Sum of Mulliken charges =  -0.00000

 Dipole moment (field-independent basis, Debye):
    X=              3.2245    Y=              4.0457    Z=              1.0087  Tot=              5.2709
 Quadrupole moment (field-independent basis, Debye-Ang):
   XX=            -76.6862   YY=            -98.7205   ZZ=            -93.7888
   XY=              8.4559   XZ=              1.3290   YZ=              1.4343

 Normal termination of Gaussian 16 at Wed May  5 20:26:06 2021.
