 Gaussian 16, Revision A.03,
 Gaussian 16:  EM64L-G16RevA.03 25-Dec-2016

 -------------
 #p 6-31g* mp2
 -------------

 ------------------------------------------------------
 Input file generated by CHIRIPA (05-May-2021 14:55:19)
 ------------------------------------------------------
 Symbolic Z-matrix:
 Charge =  0 Multiplicity = 1

                         Standard orientation:
 ---------------------------------------------------------------------
 Center     Atomic      Atomic             Coordinates (Angstroms)
 Number     Number       Type             X           Y           Z
 ---------------------------------------------------------------------
      1          6           0       -5.448462    1.392425    0.294164
      2          6           0       -5.414647    0.003328    0.454752
      3          6           0       -4.226018   -0.705567    0.256819
      4          6           0       -3.084797    0.009724   -0.102715
      5          6           0       -3.086541    1.393628   -0.270336
      6          6           0       -4.286351    2.081926   -0.067231
      7          1           0       -6.376161    1.935111    0.449932
      8          1           0       -6.315621   -0.534767    0.735366
      9          1           0       -4.171650   -1.781035    0.374415
     10          1           0       -2.172208    1.902424   -0.550585
     11          1           0       -4.309658    3.160708   -0.192651
     12          7           0       -1.820531   -0.729849   -0.314996
     13          8           0       -0.828789   -0.076373   -0.631308
     14          8           0       -1.845280   -1.948998   -0.161050
     15          6           0        4.726314    0.259481   -0.286277
     16          6           0        5.703417    0.982998    0.640964
     17          6           0        6.719657    1.835075   -0.119967
     18          1           0        5.292349   -0.375756   -0.981275
     19          1           0        4.197408    1.001106   -0.900807
     20          1           0        6.229326    0.240325    1.254535
     21          1           0        5.134979    1.616440    1.333961
     22          1           0        6.211374    2.597337   -0.719303
     23          1           0        7.311939    1.213402   -0.799178
     24          1           0        7.408292    2.343336    0.562172
     25          6           0        3.704185   -0.596413    0.459663
     26          6           0        2.727080   -1.319931   -0.467578
     27          6           0        1.710841   -2.172008    0.293353
     28          1           0        4.233091   -1.338038    1.074191
     29          1           0        3.138149    0.038824    1.154660
     30          1           0        3.295520   -1.953374   -1.160575
     31          1           0        2.201172   -0.577257   -1.081150
     32          1           0        1.118560   -1.550335    0.972565
     33          1           0        2.219125   -2.934271    0.892689
     34          1           0        1.022206   -2.680269   -0.388787
 ---------------------------------------------------------------------

 SCF Done:  E(RHF) =  -669.535988770     A.U. after   15 cycles
 E2 =    -0.2092346294D+01 EUMP2 =    -0.67162833506437D+03

 The electronic state is 1-A.
 Alpha  occ. eigenvalues --  -20.61061 -20.61053 -15.86067 -11.31369 -11.27925
 Alpha  occ. eigenvalues --  -11.27919 -11.27654 -11.26922 -11.26912 -11.20813
 Alpha  occ. eigenvalues --  -11.20446 -11.20349 -11.20026 -11.19717 -11.18750
 Alpha  occ. eigenvalues --   -1.60100  -1.39659  -1.19529  -1.08939  -1.07200
 Alpha  occ. eigenvalues --   -1.04920  -1.02152  -0.95792  -0.94591  -0.86322
 Alpha  occ. eigenvalues --   -0.85627  -0.82619  -0.78325  -0.77677  -0.76910
 Alpha  occ. eigenvalues --   -0.72283  -0.71416  -0.70636  -0.65185  -0.64926
 Alpha  occ. eigenvalues --   -0.63841  -0.62267  -0.59555  -0.58110  -0.56186
 Alpha  occ. eigenvalues --   -0.55425  -0.53939  -0.53249  -0.53010  -0.51320
 Alpha  occ. eigenvalues --   -0.51048  -0.49138  -0.49021  -0.48331  -0.46598
 Alpha  occ. eigenvalues --   -0.45391  -0.45069  -0.44460  -0.44303  -0.42377
 Alpha  occ. eigenvalues --   -0.37504  -0.36519
 Alpha virt. eigenvalues --    0.04835   0.11137   0.16343   0.21270   0.23969
 Alpha virt. eigenvalues --    0.25819   0.27198   0.27766   0.28184   0.28643
 Alpha virt. eigenvalues --    0.29459   0.30875   0.32340   0.32673   0.32786

 Mulliken charges:
               1
     1  C   -0.170448
     2  C   -0.218586
     3  C   -0.170610
     4  C    0.159092
     5  C   -0.170798
     6  C   -0.218555
     7  H    0.226270
     8  H    0.224114
     9  H    0.276109
    10  H    0.275657
    11  H    0.224053
    12  N    0.488761
    13  O   -0.459593
    14  O   -0.457146
    15  C   -0.297063
    16  C   -0.298435
    17  C   -0.474868
    18  H    0.147374
    19  H    0.148427
    20  H    0.150396
    21  H    0.149919
    22  H    0.153695
    23  H    0.154240
    24  H    0.157289
    25  C   -0.297085
    26  C   -0.302126
    27  C   -0.465439
    28  H    0.144684
    29  H    0.147567
    30  H    0.142628
    31  H    0.163330
    32  H    0.154898
    33  H    0.137923
    34  H    0.174322
 Sum of Mulliken charges =  -0.00000

 Dipole moment (field-independent basis, Debye):
    X=             -4.9916    Y=              2.6196    Z=              0.6547  Tot=              5.6751
 Quadrupole moment (field-independent basis, Debye-Ang):
   XX=            -68.5511   YY=            -91.2549   ZZ=            -95.8906
   XY=             -6.8287   XZ=             -2.4643   YZ=             -0.8754

 Normal termination of Gaussian 16 at Thu May  6 04:28:39 2021.
