 Gaussian 16, Revision A.03,
 Gaussian 16:  EM64L-G16RevA.03 25-Dec-2016

 -------------
 #p 6-31g* mp2
 -------------

 ------------------------------------------------------
 Input file generated by CHIRIPA (05-May-2021 14:57:26)
 ------------------------------------------------------
 Symbolic Z-matrix:
 Charge =  0 Multiplicity = 1

                         Standard orientation:
 ---------------------------------------------------------------------
 Center     Atomic      Atomic             Coordinates (Angstroms)
 Number     Number       Type             X           Y           Z
 ---------------------------------------------------------------------
      1          6           0       -3.396150    2.193687   -0.849238
      2          6           0       -2.062396    2.008197   -0.470801
      3          6           0       -1.633522    0.779363    0.039671
      4          6           0       -2.569354   -0.246961    0.158698
      5          6           0       -3.904989   -0.093094   -0.209669
      6          6           0       -4.311576    1.144300   -0.717696
      7          1           0       -3.720654    3.151600   -1.244835
      8          1           0       -1.349266    2.821388   -0.571846
      9          1           0       -0.606959    0.608460    0.340301
     10          1           0       -4.592706   -0.922442   -0.097217
     11          1           0       -5.348015    1.285493   -1.010791
     12          7           0       -2.127121   -1.552403    0.697817
     13          8           0       -2.971150   -2.440792    0.792780
     14          8           0       -0.944845   -1.662501    1.015209
     15          6           0        2.807286    2.122083    1.333521
     16          6           0        2.482761    0.900515    1.932667
     17          6           0        2.388550   -0.264034    1.164878
     18          6           0        2.626283   -0.170272   -0.205517
     19          6           0        2.951543    1.031972   -0.831699
     20          6           0        3.040230    2.183804   -0.044320
     21          1           0        2.878326    3.021792    1.937567
     22          1           0        2.301332    0.849597    3.002496
     23          1           0        2.139014   -1.222821    1.602917
     24          1           0        3.126898    1.051284   -1.900482
     25          1           0        3.292439    3.131118   -0.512329
     26          7           0        2.529469   -1.396396   -1.028710
     27          8           0        2.743559   -1.287242   -2.234068
     28          8           0        2.241331   -2.443369   -0.452983
 ---------------------------------------------------------------------

 SCF Done:  E(RHF) =  -868.337655462     A.U. after   16 cycles
 E2 =    -0.2601889059D+01 EUMP2 =    -0.87093954452115D+03

 The electronic state is 1-A.
 Alpha  occ. eigenvalues --  -20.60661 -20.60656 -20.60388 -20.60281 -15.85715
 Alpha  occ. eigenvalues --  -15.85396 -11.31124 -11.31069 -11.27762 -11.27702
 Alpha  occ. eigenvalues --  -11.27682 -11.27560 -11.27547 -11.27485 -11.26829
 Alpha  occ. eigenvalues --  -11.26759 -11.26734 -11.26709  -1.59723  -1.59408
 Alpha  occ. eigenvalues --   -1.39281  -1.38944  -1.19324  -1.19303  -1.08701
 Alpha  occ. eigenvalues --   -1.08647  -1.04738  -1.04716  -0.95533  -0.95405
 Alpha  occ. eigenvalues --   -0.86125  -0.86096  -0.82364  -0.82223  -0.77422
 Alpha  occ. eigenvalues --   -0.77182  -0.71962  -0.71601  -0.71052  -0.70723
 Alpha  occ. eigenvalues --   -0.70435  -0.70358  -0.64977  -0.64924  -0.64742
 Alpha  occ. eigenvalues --   -0.64694  -0.62084  -0.62014  -0.55250  -0.55231
 Alpha  occ. eigenvalues --   -0.53230  -0.53050  -0.52778  -0.52672  -0.48692
 Alpha  occ. eigenvalues --   -0.48684  -0.48410  -0.48329  -0.44717  -0.44223
 Alpha  occ. eigenvalues --   -0.37368  -0.37295  -0.36391  -0.36289
 Alpha virt. eigenvalues --    0.05144   0.05310   0.11268   0.11329   0.16576
 Alpha virt. eigenvalues --    0.16762   0.21312   0.21543   0.27142   0.27397
 Alpha virt. eigenvalues --    0.28127   0.28491   0.30716   0.31108   0.32211

 Mulliken charges:
               1
     1  C   -0.170519
     2  C   -0.220420
     3  C   -0.174459
     4  C    0.158222
     5  C   -0.169855
     6  C   -0.218786
     7  H    0.224459
     8  H    0.220705
     9  H    0.279242
    10  H    0.276162
    11  H    0.223364
    12  N    0.490508
    13  O   -0.458436
    14  O   -0.463893
    15  C   -0.174917
    16  C   -0.223784
    17  C   -0.166709
    18  C    0.153702
    19  C   -0.174601
    20  C   -0.223134
    21  H    0.224248
    22  H    0.226419
    23  H    0.290956
    24  H    0.275202
    25  H    0.221052
    26  N    0.487879
    27  O   -0.466000
    28  O   -0.446605
 Sum of Mulliken charges =  -0.00000

 Dipole moment (field-independent basis, Debye):
    X=             -1.2315    Y=              8.5165    Z=              1.1248  Tot=              8.6782
 Quadrupole moment (field-independent basis, Debye-Ang):
   XX=            -91.3325   YY=           -107.5393   ZZ=           -104.3359
   XY=              1.9155   XZ=             12.2080   YZ=             -2.6760

 Normal termination of Gaussian 16 at Thu May  6 06:48:32 2021.
