 Gaussian 16, Revision A.03,
 Gaussian 16:  EM64L-G16RevA.03 25-Dec-2016

 -------------
 #p 6-31g* mp2
 -------------

 ------------------------------------------------------
 Input file generated by CHIRIPA (05-May-2021 14:53:15)
 ------------------------------------------------------
 Symbolic Z-matrix:
 Charge =  0 Multiplicity = 1

                         Standard orientation:
 ---------------------------------------------------------------------
 Center     Atomic      Atomic             Coordinates (Angstroms)
 Number     Number       Type             X           Y           Z
 ---------------------------------------------------------------------
      1          6           0        2.711595   -0.281224   -0.090922
      2          6           0        3.736068   -1.383787   -0.360729
      3          6           0        3.088177   -2.749836   -0.588633
      4          1           0        2.110707   -0.554726    0.787186
      5          1           0        2.015903   -0.221161   -0.939333
      6          1           0        4.430458   -1.440820    0.487319
      7          1           0        4.334714   -1.107538   -1.238182
      8          1           0        2.409628   -2.715971   -1.447135
      9          1           0        2.505916   -3.051147    0.288171
     10          1           0        3.838645   -3.523249   -0.779659
     11          6           0        3.343973    1.090275    0.138895
     12          6           0        2.319500    2.192838    0.408701
     13          6           0        2.967391    3.558888    0.636605
     14          1           0        4.039665    1.030213    0.987306
     15          1           0        3.944862    1.363777   -0.739214
     16          1           0        1.720854    1.916590    1.286155
     17          1           0        1.625110    2.249872   -0.439347
     18          1           0        3.549653    3.860199   -0.240198
     19          1           0        3.645940    3.525023    1.495107
     20          1           0        2.216923    4.332300    0.827632
     21          6           0       -0.892104   -2.264207    0.613544
     22          6           0       -1.950172   -1.887271    1.447170
     23          6           0       -2.772968   -0.809439    1.106831
     24          6           0       -2.507895   -0.127694   -0.079866
     25          6           0       -1.461495   -0.479073   -0.931260
     26          6           0       -0.651567   -1.560146   -0.570923
     27          1           0       -0.257934   -3.102752    0.885695
     28          1           0       -2.139327   -2.432231    2.367651
     29          1           0       -3.598954   -0.496300    1.733815
     30          1           0       -1.297710    0.083396   -1.842425
     31          1           0        0.169423   -1.850644   -1.220254
     32          7           0       -3.372141    1.015074   -0.450754
     33          8           0       -3.117695    1.599462   -1.501652
     34          8           0       -4.287619    1.304752    0.316465
 ---------------------------------------------------------------------

 SCF Done:  E(RHF) =  -669.534013602     A.U. after   15 cycles
 E2 =    -0.2093904512D+01 EUMP2 =    -0.67162791811373D+03

 The electronic state is 1-A.
 Alpha  occ. eigenvalues --  -20.60724 -20.60719 -15.85774 -11.31129 -11.27668
 Alpha  occ. eigenvalues --  -11.27650 -11.27385 -11.26716 -11.26620 -11.22450
 Alpha  occ. eigenvalues --  -11.22326 -11.22045 -11.21851 -11.21787 -11.21194
 Alpha  occ. eigenvalues --   -1.59798  -1.39353  -1.19284  -1.09042  -1.08674
 Alpha  occ. eigenvalues --   -1.04690  -1.04133  -0.96613  -0.95522  -0.87637
 Alpha  occ. eigenvalues --   -0.86094  -0.82366  -0.80233  -0.78809  -0.77386
 Alpha  occ. eigenvalues --   -0.71994  -0.71120  -0.70393  -0.65700  -0.64931
 Alpha  occ. eigenvalues --   -0.64702  -0.62089  -0.61509  -0.59980  -0.58203
 Alpha  occ. eigenvalues --   -0.55953  -0.55168  -0.53329  -0.53144  -0.52938
 Alpha  occ. eigenvalues --   -0.52779  -0.50580  -0.48775  -0.48751  -0.48470
 Alpha  occ. eigenvalues --   -0.47232  -0.46301  -0.46210  -0.44761  -0.44353
 Alpha  occ. eigenvalues --   -0.37237  -0.36221
 Alpha virt. eigenvalues --    0.05082   0.11325   0.16489   0.19539   0.22736
 Alpha virt. eigenvalues --    0.23964   0.24228   0.26053   0.26889   0.27977
 Alpha virt. eigenvalues --    0.29242   0.30190   0.31219   0.31746   0.32150

 Mulliken charges:
               1
     1  C   -0.299344
     2  C   -0.299616
     3  C   -0.480552
     4  H    0.152294
     5  H    0.143202
     6  H    0.155371
     7  H    0.155379
     8  H    0.148912
     9  H    0.149968
    10  H    0.167215
    11  C   -0.298807
    12  C   -0.300034
    13  C   -0.476348
    14  H    0.150242
    15  H    0.150523
    16  H    0.153253
    17  H    0.153514
    18  H    0.155538
    19  H    0.154616
    20  H    0.164143
    21  C   -0.177244
    22  C   -0.218509
    23  C   -0.171889
    24  C    0.159248
    25  C   -0.173809
    26  C   -0.213966
    27  H    0.226899
    28  H    0.223005
    29  H    0.275081
    30  H    0.274674
    31  H    0.230388
    32  N    0.488021
    33  O   -0.460728
    34  O   -0.460640
 Sum of Mulliken charges =  -0.00000

 Dipole moment (field-independent basis, Debye):
    X=              3.2005    Y=             -3.9417    Z=              1.3446  Tot=              5.2525
 Quadrupole moment (field-independent basis, Debye-Ang):
   XX=           -108.9229   YY=            -95.2604   ZZ=            -90.8304
   XY=              9.8178   XZ=             -6.1120   YZ=             -0.9060

 Normal termination of Gaussian 16 at Thu May  6 04:18:36 2021.
