 Gaussian 16, Revision A.03,
 Gaussian 16:  EM64L-G16RevA.03 25-Dec-2016

 -------------
 #p 6-31g* mp2
 -------------

 ------------------------------------------------------
 Input file generated by CHIRIPA (05-May-2021 14:55:23)
 ------------------------------------------------------
 Symbolic Z-matrix:
 Charge =  0 Multiplicity = 1

                         Standard orientation:
 ---------------------------------------------------------------------
 Center     Atomic      Atomic             Coordinates (Angstroms)
 Number     Number       Type             X           Y           Z
 ---------------------------------------------------------------------
      1          6           0       -4.210025    1.153145    0.762540
      2          6           0       -4.307717   -0.232999    0.922484
      3          6           0       -3.317686   -1.078103    0.412400
      4          6           0       -2.238803   -0.500551   -0.255234
      5          6           0       -2.113117    0.876656   -0.430718
      6          6           0       -3.114967    1.702580    0.087639
      7          1           0       -4.983695    1.802193    1.161998
      8          1           0       -5.157030   -0.662484    1.446178
      9          1           0       -3.368299   -2.154600    0.521994
     10          1           0       -1.254638    1.275418   -0.957426
     11          1           0       -3.036475    2.778722   -0.038068
     12          7           0       -1.184446   -1.385073   -0.799616
     13          8           0       -0.243946   -0.851453   -1.383865
     14          8           0       -1.318505   -2.595232   -0.631746
     15          6           0        3.301662   -0.227495   -0.058771
     16          6           0        3.535904   -1.268466    1.036443
     17          6           0        3.962624   -2.626899    0.479341
     18          1           0        2.533696   -0.599199   -0.750877
     19          1           0        4.222414   -0.110776   -0.646977
     20          1           0        2.615408   -1.382176    1.623276
     21          1           0        4.303264   -0.894157    1.726130
     22          1           0        4.893487   -2.534795   -0.089529
     23          1           0        3.196041   -3.025588   -0.192967
     24          1           0        4.124671   -3.355967    1.279379
     25          6           0        2.874528    1.135709    0.482485
     26          6           0        2.640286    2.176681   -0.612729
     27          6           0        2.213566    3.535114   -0.055627
     28          1           0        1.953775    1.018990    1.070692
     29          1           0        3.642494    1.507414    1.174591
     30          1           0        1.872926    1.802371   -1.302415
     31          1           0        3.560782    2.290391   -1.199561
     32          1           0        2.980149    3.933802    0.616681
     33          1           0        1.282703    3.443010    0.513244
     34          1           0        2.051518    4.264181   -0.855665
 ---------------------------------------------------------------------

 SCF Done:  E(RHF) =  -669.536584762     A.U. after   15 cycles
 E2 =    -0.2091926577D+01 EUMP2 =    -0.67162851133931D+03

 The electronic state is 1-A.
 Alpha  occ. eigenvalues --  -20.61061 -20.61055 -15.86082 -11.31352 -11.27907
 Alpha  occ. eigenvalues --  -11.27904 -11.27634 -11.26904 -11.26892 -11.21103
 Alpha  occ. eigenvalues --  -11.20935 -11.20694 -11.20639 -11.20184 -11.20033
 Alpha  occ. eigenvalues --   -1.60113  -1.39671  -1.19514  -1.08928  -1.07618
 Alpha  occ. eigenvalues --   -1.04902  -1.02823  -0.95779  -0.95273  -0.86309
 Alpha  occ. eigenvalues --   -0.86290  -0.82615  -0.78910  -0.77684  -0.77360
 Alpha  occ. eigenvalues --   -0.72311  -0.71424  -0.70622  -0.65175  -0.64905
 Alpha  occ. eigenvalues --   -0.64225  -0.62250  -0.60220  -0.58688  -0.56873
 Alpha  occ. eigenvalues --   -0.55407  -0.54561  -0.53236  -0.52991  -0.52025
 Alpha  occ. eigenvalues --   -0.51699  -0.49284  -0.49059  -0.48994  -0.47223
 Alpha  occ. eigenvalues --   -0.45940  -0.45255  -0.44937  -0.44564  -0.43027
 Alpha  occ. eigenvalues --   -0.37489  -0.36500
 Alpha virt. eigenvalues --    0.04817   0.11139   0.16300   0.20412   0.23042
 Alpha virt. eigenvalues --    0.24783   0.26701   0.27450   0.27936   0.28641
 Alpha virt. eigenvalues --    0.29087   0.30919   0.31542   0.32177   0.32456

 Mulliken charges:
               1
     1  C   -0.170314
     2  C   -0.218630
     3  C   -0.170409
     4  C    0.157623
     5  C   -0.172476
     6  C   -0.219064
     7  H    0.226342
     8  H    0.224061
     9  H    0.275928
    10  H    0.278073
    11  H    0.224670
    12  N    0.490328
    13  O   -0.463356
    14  O   -0.458284
    15  C   -0.311097
    16  C   -0.297156
    17  C   -0.477551
    18  H    0.179457
    19  H    0.144234
    20  H    0.149934
    21  H    0.145937
    22  H    0.151597
    23  H    0.166245
    24  H    0.155939
    25  C   -0.294392
    26  C   -0.303764
    27  C   -0.475389
    28  H    0.144751
    29  H    0.145390
    30  H    0.158807
    31  H    0.152115
    32  H    0.155895
    33  H    0.147415
    34  H    0.157141
 Sum of Mulliken charges =  -0.00000

 Dipole moment (field-independent basis, Debye):
    X=             -3.9472    Y=              2.9347    Z=              1.7695  Tot=              5.2272
 Quadrupole moment (field-independent basis, Debye-Ang):
   XX=            -77.0434   YY=            -96.3105   ZZ=            -96.1080
   XY=             -2.5624   XZ=             -4.8782   YZ=             -3.4686

 Normal termination of Gaussian 16 at Thu May  6 04:41:00 2021.
