 Gaussian 16, Revision A.03,
 Gaussian 16:  EM64L-G16RevA.03 25-Dec-2016

 -------------
 #p 6-31g* mp2
 -------------

 ------------------------------------------------------
 Input file generated by CHIRIPA (05-May-2021 14:55:22)
 ------------------------------------------------------
 Symbolic Z-matrix:
 Charge =  0 Multiplicity = 1

                         Standard orientation:
 ---------------------------------------------------------------------
 Center     Atomic      Atomic             Coordinates (Angstroms)
 Number     Number       Type             X           Y           Z
 ---------------------------------------------------------------------
      1          6           0       -2.391359    2.796751   -0.421693
      2          6           0       -2.063827    2.390984    0.876228
      3          6           0       -1.976606    1.032483    1.194683
      4          6           0       -2.224320    0.102519    0.186172
      5          6           0       -2.552807    0.475368   -1.116276
      6          6           0       -2.634375    1.839336   -1.412056
      7          1           0       -2.456919    3.854191   -0.660269
      8          1           0       -1.874581    3.132312    1.647372
      9          1           0       -1.724947    0.690622    2.191286
     10          1           0       -2.736008   -0.286949   -1.863758
     11          1           0       -2.888940    2.151553   -2.420898
     12          7           0       -2.134975   -1.338559    0.511303
     13          8           0       -2.357812   -2.138167   -0.395123
     14          8           0       -1.843801   -1.641182    1.666411
     15          6           0        2.613946   -1.128740    0.027674
     16          6           0        1.460363   -1.625548   -0.844344
     17          6           0        0.967102   -3.014321   -0.437159
     18          1           0        3.444196   -1.845867   -0.030271
     19          1           0        2.289420   -1.110427    1.077312
     20          1           0        1.786524   -1.641603   -1.892187
     21          1           0        0.632834   -0.907058   -0.784468
     22          1           0        0.615504   -3.009584    0.599642
     23          1           0        1.775749   -3.748302   -0.514371
     24          1           0        0.142359   -3.349976   -1.073551
     25          6           0        3.118010    0.258274   -0.367093
     26          6           0        4.271593    0.755081    0.504923
     27          6           0        4.764853    2.143854    0.097738
     28          1           0        3.442536    0.239961   -1.416733
     29          1           0        2.287759    0.975401   -0.309149
     30          1           0        5.099121    0.036591    0.445047
     31          1           0        3.945431    0.771137    1.552766
     32          1           0        3.956207    2.877835    0.174950
     33          1           0        5.116451    2.139117   -0.939063
     34          1           0        5.589596    2.479509    0.734130
 ---------------------------------------------------------------------

 SCF Done:  E(RHF) =  -669.535823848     A.U. after   15 cycles
 E2 =    -0.2093853243D+01 EUMP2 =    -0.67162967709074D+03

 The electronic state is 1-A.
 Alpha  occ. eigenvalues --  -20.60973 -20.60967 -15.85975 -11.31317 -11.27875
 Alpha  occ. eigenvalues --  -11.27868 -11.27603 -11.26879 -11.26866 -11.21449
 Alpha  occ. eigenvalues --  -11.21121 -11.21047 -11.20942 -11.20856 -11.19677
 Alpha  occ. eigenvalues --   -1.60016  -1.39575  -1.19483  -1.08884  -1.08026
 Alpha  occ. eigenvalues --   -1.04873  -1.03029  -0.95732  -0.95423  -0.86436
 Alpha  occ. eigenvalues --   -0.86273  -0.82559  -0.79128  -0.77815  -0.77612
 Alpha  occ. eigenvalues --   -0.72215  -0.71381  -0.70582  -0.65135  -0.64874
 Alpha  occ. eigenvalues --   -0.64658  -0.62219  -0.60420  -0.58860  -0.57028
 Alpha  occ. eigenvalues --   -0.55379  -0.54714  -0.53224  -0.52964  -0.52079
 Alpha  occ. eigenvalues --   -0.51855  -0.49461  -0.48975  -0.48865  -0.47425
 Alpha  occ. eigenvalues --   -0.46200  -0.45357  -0.45322  -0.44871  -0.43230
 Alpha  occ. eigenvalues --   -0.37426  -0.36471
 Alpha virt. eigenvalues --    0.04876   0.11163   0.16323   0.21312   0.23128
 Alpha virt. eigenvalues --    0.24779   0.26868   0.27225   0.27779   0.28145
 Alpha virt. eigenvalues --    0.28801   0.30858   0.31693   0.32073   0.32269

 Mulliken charges:
               1
     1  C   -0.170539
     2  C   -0.218607
     3  C   -0.171982
     4  C    0.157987
     5  C   -0.171293
     6  C   -0.218085
     7  H    0.226219
     8  H    0.223954
     9  H    0.275803
    10  H    0.276159
    11  H    0.224141
    12  N    0.491744
    13  O   -0.457408
    14  O   -0.459878
    15  C   -0.297749
    16  C   -0.301022
    17  C   -0.484552
    18  H    0.149588
    19  H    0.151273
    20  H    0.148059
    21  H    0.141709
    22  H    0.169190
    23  H    0.147154
    24  H    0.175161
    25  C   -0.297540
    26  C   -0.299143
    27  C   -0.474985
    28  H    0.148099
    29  H    0.146281
    30  H    0.152726
    31  H    0.151145
    32  H    0.151912
    33  H    0.154884
    34  H    0.159594
 Sum of Mulliken charges =  -0.00000

 Dipole moment (field-independent basis, Debye):
    X=             -0.5581    Y=              4.9764    Z=             -1.1016  Tot=              5.1274
 Quadrupole moment (field-independent basis, Debye-Ang):
   XX=            -93.9769   YY=            -94.5307   ZZ=            -90.4063
   XY=            -11.8857   XZ=              3.6385   YZ=              2.4132

 Normal termination of Gaussian 16 at Wed May  5 16:01:29 2021.
