 Gaussian 16, Revision A.03,
 Gaussian 16:  EM64L-G16RevA.03 25-Dec-2016

 -------------
 #p 6-31g* mp2
 -------------

 ------------------------------------------------------
 Input file generated by CHIRIPA (05-May-2021 14:53:12)
 ------------------------------------------------------
 Symbolic Z-matrix:
 Charge =  0 Multiplicity = 1

                         Standard orientation:
 ---------------------------------------------------------------------
 Center     Atomic      Atomic             Coordinates (Angstroms)
 Number     Number       Type             X           Y           Z
 ---------------------------------------------------------------------
      1          6           0        4.023352    0.914934   -0.144865
      2          6           0        2.961496    2.008052   -0.269519
      3          6           0        3.565282    3.399520   -0.462011
      4          1           0        4.684440    1.149507    0.700643
      5          1           0        4.653256    0.920976   -1.045187
      6          1           0        2.332917    1.999037    0.630160
      7          1           0        2.302743    1.770749   -1.114710
      8          1           0        4.176851    3.431916   -1.369499
      9          1           0        4.207197    3.661501    0.385286
     10          1           0        2.788554    4.165690   -0.548820
     11          6           0        3.435275   -0.481735    0.048036
     12          6           0        4.497132   -1.574853    0.172690
     13          6           0        3.893346   -2.966321    0.365182
     14          1           0        2.805372   -0.487777    0.948358
     15          1           0        2.774188   -0.716308   -0.797472
     16          1           0        5.155885   -1.337550    1.017881
     17          1           0        5.125711   -1.565838   -0.726990
     18          1           0        3.251431   -3.228302   -0.482115
     19          1           0        3.281776   -2.998717    1.272670
     20          1           0        4.670074   -3.732491    0.451991
     21          6           0       -0.466246   -0.779180    0.106274
     22          6           0       -1.291697   -1.307527   -0.891724
     23          6           0       -2.649151   -0.976469   -0.939352
     24          6           0       -3.150121   -0.110249    0.031206
     25          6           0       -2.353286    0.432504    1.038064
     26          6           0       -0.998735    0.087621    1.066291
     27          1           0        0.587129   -1.041724    0.135737
     28          1           0       -0.880893   -1.980937   -1.638586
     29          1           0       -3.310762   -1.371072   -1.700914
     30          1           0       -2.791608    1.101254    1.768862
     31          1           0       -0.360045    0.499454    1.842508
     32          7           0       -4.585659    0.247545   -0.008946
     33          8           0       -5.002689    1.012827    0.857695
     34          8           0       -5.266621   -0.244073   -0.906297
 ---------------------------------------------------------------------

 SCF Done:  E(RHF) =  -669.535152838     A.U. after   15 cycles
 E2 =    -0.2092322431D+01 EUMP2 =    -0.67162747526953D+03

 The electronic state is 1-A.
 Alpha  occ. eigenvalues --  -20.60672 -20.60667 -15.85727 -11.31057 -11.27639
 Alpha  occ. eigenvalues --  -11.27635 -11.27235 -11.26623 -11.26610 -11.22792
 Alpha  occ. eigenvalues --  -11.22679 -11.22525 -11.22398 -11.22155 -11.21768
 Alpha  occ. eigenvalues --   -1.59750  -1.39304  -1.19226  -1.09559  -1.08611
 Alpha  occ. eigenvalues --   -1.04633  -1.04521  -0.96990  -0.95457  -0.87997
 Alpha  occ. eigenvalues --   -0.86026  -0.82314  -0.80607  -0.79438  -0.77360
 Alpha  occ. eigenvalues --   -0.71944  -0.71073  -0.70304  -0.66176  -0.64871
 Alpha  occ. eigenvalues --   -0.64643  -0.61991  -0.61901  -0.60359  -0.58627
 Alpha  occ. eigenvalues --   -0.56279  -0.55170  -0.53609  -0.53359  -0.52954
 Alpha  occ. eigenvalues --   -0.52723  -0.50921  -0.48905  -0.48702  -0.48691
 Alpha  occ. eigenvalues --   -0.47645  -0.46859  -0.46836  -0.44818  -0.44718
 Alpha  occ. eigenvalues --   -0.37173  -0.36247
 Alpha virt. eigenvalues --    0.05171   0.11376   0.16621   0.19775   0.22516
 Alpha virt. eigenvalues --    0.22943   0.24420   0.25923   0.26934   0.28024
 Alpha virt. eigenvalues --    0.29860   0.29952   0.30819   0.31258   0.31495

 Mulliken charges:
               1
     1  C   -0.297614
     2  C   -0.300884
     3  C   -0.476514
     4  H    0.152992
     5  H    0.153665
     6  H    0.146990
     7  H    0.154353
     8  H    0.157417
     9  H    0.156503
    10  H    0.163780
    11  C   -0.305693
    12  C   -0.298994
    13  C   -0.478541
    14  H    0.143714
    15  H    0.146930
    16  H    0.156091
    17  H    0.156168
    18  H    0.152267
    19  H    0.154723
    20  H    0.166455
    21  C   -0.176490
    22  C   -0.222365
    23  C   -0.170568
    24  C    0.157769
    25  C   -0.170802
    26  C   -0.222720
    27  H    0.240444
    28  H    0.222482
    29  H    0.274956
    30  H    0.274959
    31  H    0.222280
    32  N    0.488071
    33  O   -0.460922
    34  O   -0.460902
 Sum of Mulliken charges =  -0.00000

 Dipole moment (field-independent basis, Debye):
    X=              5.4123    Y=             -1.2057    Z=              0.1016  Tot=              5.5459
 Quadrupole moment (field-independent basis, Debye-Ang):
   XX=           -126.1871   YY=            -94.0317   ZZ=            -90.7819
   XY=              3.5283   XZ=              0.2475   YZ=              2.8378

 Normal termination of Gaussian 16 at Thu May  6 08:51:57 2021.
