 Gaussian 16, Revision A.03,
 Gaussian 16:  EM64L-G16RevA.03 25-Dec-2016

 -------------
 #p 6-31g* mp2
 -------------

 ------------------------------------------------------
 Input file generated by CHIRIPA (05-May-2021 14:57:25)
 ------------------------------------------------------
 Symbolic Z-matrix:
 Charge =  0 Multiplicity = 1

                         Standard orientation:
 ---------------------------------------------------------------------
 Center     Atomic      Atomic             Coordinates (Angstroms)
 Number     Number       Type             X           Y           Z
 ---------------------------------------------------------------------
      1          6           0       -3.875963   -2.382919    0.316215
      2          6           0       -4.781330   -1.414434    0.762160
      3          6           0       -4.566879   -0.060977    0.485187
      4          6           0       -3.431548    0.290186   -0.243509
      5          6           0       -2.511116   -0.651247   -0.701547
      6          6           0       -2.745738   -1.998912   -0.412929
      7          1           0       -4.050388   -3.432068    0.535897
      8          1           0       -5.659934   -1.709752    1.328630
      9          1           0       -5.251556    0.709521    0.818306
     10          1           0       -1.644305   -0.326227   -1.264057
     11          1           0       -2.040917   -2.748878   -0.760526
     12          7           0       -3.193842    1.719964   -0.542891
     13          8           0       -2.185994    2.003477   -1.186709
     14          8           0       -4.019876    2.530039   -0.128061
     15          6           0        5.890954   -0.105633   -0.517031
     16          6           0        5.433521    0.903117    0.337192
     17          6           0        4.094629    0.941282    0.737766
     18          6           0        3.236746   -0.049602    0.262923
     19          6           0        3.662322   -1.067580   -0.589072
     20          6           0        5.005456   -1.086034   -0.976628
     21          1           0        6.932685   -0.127624   -0.823151
     22          1           0        6.118957    1.665813    0.695686
     23          1           0        3.713873    1.710809    1.398274
     24          1           0        2.955304   -1.814145   -0.929931
     25          1           0        5.357914   -1.870639   -1.640113
     26          7           0        1.817076   -0.019633    0.680101
     27          8           0        1.081324   -0.904192    0.247829
     28          8           0        1.466971    0.887851    1.431459
 ---------------------------------------------------------------------

 SCF Done:  E(RHF) =  -868.338886230     A.U. after   16 cycles
 E2 =    -0.2599004794D+01 EUMP2 =    -0.87093789102405D+03

 The electronic state is 1-A.
 Alpha  occ. eigenvalues --  -20.61047 -20.60958 -20.59642 -20.59618 -15.86046
 Alpha  occ. eigenvalues --  -15.84683 -11.31315 -11.29908 -11.27911 -11.27839
 Alpha  occ. eigenvalues --  -11.27601 -11.26889 -11.26846 -11.26575 -11.26395
 Alpha  occ. eigenvalues --  -11.26317 -11.25594 -11.25449  -1.60057  -1.58703
 Alpha  occ. eigenvalues --   -1.39621  -1.38262  -1.19477  -1.18104  -1.08889
 Alpha  occ. eigenvalues --   -1.07547  -1.04871  -1.03484  -0.95743  -0.94393
 Alpha  occ. eigenvalues --   -0.86274  -0.84912  -0.82586  -0.81227  -0.77642
 Alpha  occ. eigenvalues --   -0.76269  -0.72282  -0.71360  -0.70920  -0.70592
 Alpha  occ. eigenvalues --   -0.70008  -0.69259  -0.65139  -0.64877  -0.63775
 Alpha  occ. eigenvalues --   -0.63525  -0.62224  -0.60836  -0.55377  -0.54074
 Alpha  occ. eigenvalues --   -0.53198  -0.52966  -0.51829  -0.51604  -0.49032
 Alpha  occ. eigenvalues --   -0.48999  -0.47673  -0.47659  -0.45044  -0.43697
 Alpha  occ. eigenvalues --   -0.37448  -0.36467  -0.36124  -0.35044
 Alpha virt. eigenvalues --    0.04883   0.06273   0.11189   0.12585   0.16388
 Alpha virt. eigenvalues --    0.17750   0.21307   0.22565   0.27222   0.28078
 Alpha virt. eigenvalues --    0.28560   0.29458   0.30895   0.32055   0.32423

 Mulliken charges:
               1
     1  C   -0.171490
     2  C   -0.219634
     3  C   -0.171601
     4  C    0.156732
     5  C   -0.156357
     6  C   -0.216023
     7  H    0.220607
     8  H    0.218373
     9  H    0.271747
    10  H    0.279680
    11  H    0.222329
    12  N    0.489359
    13  O   -0.460197
    14  O   -0.465500
    15  C   -0.170368
    16  C   -0.218394
    17  C   -0.169617
    18  C    0.159340
    19  C   -0.170580
    20  C   -0.218306
    21  H    0.226200
    22  H    0.224738
    23  H    0.277854
    24  H    0.271558
    25  H    0.223010
    26  N    0.490639
    27  O   -0.472036
    28  O   -0.452063
 Sum of Mulliken charges =  -0.00000

 Dipole moment (field-independent basis, Debye):
    X=              4.5950    Y=             -5.0266    Z=             -0.3808  Tot=              6.8209
 Quadrupole moment (field-independent basis, Debye-Ang):
   XX=            -64.8985   YY=           -105.3131   ZZ=           -104.7279
   XY=             16.4811   XZ=             -8.6111   YZ=              5.0510

 Normal termination of Gaussian 16 at Fri May  7 09:39:00 2021.
