 Gaussian 16, Revision A.03,
 Gaussian 16:  EM64L-G16RevA.03 25-Dec-2016

 -------------
 #p 6-31g* mp2
 -------------

 ------------------------------------------------------
 Input file generated by CHIRIPA (05-May-2021 14:51:13)
 ------------------------------------------------------
 Symbolic Z-matrix:
 Charge =  0 Multiplicity = 1

                         Standard orientation:
 ---------------------------------------------------------------------
 Center     Atomic      Atomic             Coordinates (Angstroms)
 Number     Number       Type             X           Y           Z
 ---------------------------------------------------------------------
      1          6           0       -3.530774    0.200763   -0.096486
      2          6           0       -3.886339   -0.686514   -1.289926
      3          6           0       -5.189347   -1.459621   -1.084331
      4          1           0       -3.450722   -0.422483    0.804680
      5          1           0       -4.352787    0.907225    0.084071
      6          1           0       -3.063297   -1.390173   -1.469041
      7          1           0       -3.965365   -0.061111   -2.188392
      8          1           0       -6.025560   -0.770522   -0.927834
      9          1           0       -5.118366   -2.107136   -0.204395
     10          1           0       -5.424443   -2.087434   -1.949456
     11          6           0       -2.230709    0.980034   -0.287003
     12          6           0       -1.875144    1.867311    0.906437
     13          6           0       -0.572136    2.640418    0.700842
     14          1           0       -1.408696    0.273572   -0.467560
     15          1           0       -2.310761    1.603280   -1.188170
     16          1           0       -1.796118    1.241908    1.804903
     17          1           0       -2.698187    2.570970    1.085551
     18          1           0       -0.643117    3.287933   -0.179094
     19          1           0        0.264077    1.951319    0.544344
     20          1           0       -0.337040    3.268231    1.565966
     21          6           0        2.244019   -0.450179    0.589683
     22          6           0        1.627812   -1.704724    1.209674
     23          6           0        0.354635   -1.407994    2.002621
     24          1           0        2.466524    0.273235    1.385993
     25          1           0        1.504102    0.026668   -0.067991
     26          1           0        2.369140   -2.179822    1.864907
     27          1           0        1.406925   -2.425311    0.411815
     28          1           0       -0.404578   -0.954956    1.356901
     29          1           0        0.563105   -0.708071    2.818249
     30          1           0       -0.069152   -2.318753    2.437112
     31          6           0        3.517464   -0.730618   -0.206194
     32          6           0        4.133672    0.523927   -0.826184
     33          6           0        5.406848    0.227197   -1.619132
     34          1           0        4.257381   -1.207464    0.451480
     35          1           0        3.294959   -1.454033   -1.002504
     36          1           0        4.354558    1.244514   -0.028325
     37          1           0        3.392343    0.999025   -1.481417
     38          1           0        5.198378   -0.472726   -2.434760
     39          1           0        6.166061   -0.225840   -0.973412
     40          1           0        5.830634    1.137956   -2.053623
 ---------------------------------------------------------------------

 SCF Done:  E(RHF) =  -470.732289017     A.U. after   11 cycles
 E2 =    -0.1584874600D+01 EUMP2 =    -0.47231716361640D+03

 The electronic state is 1-A.
 Alpha  occ. eigenvalues --  -11.21679 -11.21621 -11.21607 -11.21519 -11.21466
 Alpha  occ. eigenvalues --  -11.21405 -11.21401 -11.21346 -11.21124 -11.21084
 Alpha  occ. eigenvalues --  -11.21070 -11.20917  -1.08513  -1.08404  -1.03605
 Alpha  occ. eigenvalues --   -1.03472  -0.96046  -0.95937  -0.87089  -0.86929
 Alpha  occ. eigenvalues --   -0.79659  -0.79559  -0.78375  -0.78186  -0.65322
 Alpha  occ. eigenvalues --   -0.64919  -0.61114  -0.60783  -0.59398  -0.59296
 Alpha  occ. eigenvalues --   -0.57707  -0.57508  -0.55474  -0.55107  -0.52726
 Alpha  occ. eigenvalues --   -0.52630  -0.52545  -0.52309  -0.50113  -0.49716
 Alpha  occ. eigenvalues --   -0.48123  -0.47774  -0.46802  -0.46594  -0.46055
 Alpha  occ. eigenvalues --   -0.45806  -0.45711  -0.45226  -0.43837  -0.43756
 Alpha virt. eigenvalues --    0.20164   0.22961   0.23745   0.25064   0.25624
 Alpha virt. eigenvalues --    0.26146   0.26517   0.27757   0.28688   0.29512
 Alpha virt. eigenvalues --    0.31096   0.31353   0.31496   0.31958   0.31996

 Mulliken charges:
               1
     1  C   -0.299365
     2  C   -0.299456
     3  C   -0.475732
     4  H    0.150675
     5  H    0.150050
     6  H    0.151441
     7  H    0.151898
     8  H    0.155242
     9  H    0.155395
    10  H    0.160179
    11  C   -0.303256
    12  C   -0.301591
    13  C   -0.483532
    14  H    0.150389
    15  H    0.150527
    16  H    0.154718
    17  H    0.151937
    18  H    0.153979
    19  H    0.164435
    20  H    0.159419
    21  C   -0.305557
    22  C   -0.299005
    23  C   -0.484541
    24  H    0.150981
    25  H    0.154696
    26  H    0.152418
    27  H    0.151622
    28  H    0.163964
    29  H    0.155911
    30  H    0.160415
    31  C   -0.297368
    32  C   -0.300078
    33  C   -0.475729
    34  H    0.149770
    35  H    0.149647
    36  H    0.152273
    37  H    0.152342
    38  H    0.155193
    39  H    0.155186
    40  H    0.160505
 Sum of Mulliken charges =  -0.00000

 Dipole moment (field-independent basis, Debye):
    X=              0.0366    Y=             -0.0218    Z=              0.0105  Tot=              0.0439
 Quadrupole moment (field-independent basis, Debye-Ang):
   XX=            -85.8235   YY=            -84.6830   ZZ=            -84.2497
   XY=             -0.7986   XZ=              1.2529   YZ=             -0.2493

 Normal termination of Gaussian 16 at Wed May  5 16:50:24 2021.
