 Gaussian 16, Revision A.03,
 Gaussian 16:  EM64L-G16RevA.03 25-Dec-2016

 -------------
 #p 6-31g* mp2
 -------------

 ------------------------------------------------------
 Input file generated by CHIRIPA (05-May-2021 14:53:17)
 ------------------------------------------------------
 Symbolic Z-matrix:
 Charge =  0 Multiplicity = 1

                         Standard orientation:
 ---------------------------------------------------------------------
 Center     Atomic      Atomic             Coordinates (Angstroms)
 Number     Number       Type             X           Y           Z
 ---------------------------------------------------------------------
      1          6           0       -4.427659    0.121503   -0.335299
      2          6           0       -5.922315    0.195530   -0.021440
      3          6           0       -6.772481    0.485960   -1.258639
      4          1           0       -4.107100    1.069860   -0.787853
      5          1           0       -4.256794   -0.658537   -1.090109
      6          1           0       -6.090143    0.974254    0.733570
      7          1           0       -6.239313   -0.753043    0.430596
      8          1           0       -6.634480   -0.295399   -2.012983
      9          1           0       -6.484462    1.441712   -1.708288
     10          1           0       -7.837566    0.534589   -1.011478
     11          6           0       -3.564646   -0.168210    0.891487
     12          6           0       -2.069990   -0.242237    0.577628
     13          6           0       -1.219824   -0.532667    1.814828
     14          1           0       -3.735512    0.611830    1.646297
     15          1           0       -3.885206   -1.116567    1.344042
     16          1           0       -1.752992    0.706337    0.125592
     17          1           0       -1.902163   -1.020960   -0.177382
     18          1           0       -1.507843   -1.488419    2.264476
     19          1           0       -1.357826    0.248692    2.569172
     20          1           0       -0.154739   -0.581295    1.567666
     21          6           0        3.610647    2.483017    0.010862
     22          6           0        2.289987    2.040050   -0.116251
     23          6           0        2.007488    0.676743   -0.243283
     24          6           0        3.074753   -0.220040   -0.239315
     25          6           0        4.401153    0.190256   -0.114373
     26          6           0        4.660165    1.558337    0.011394
     27          1           0        3.820976    3.543920    0.109052
     28          1           0        1.472919    2.755902   -0.116983
     29          1           0        0.994425    0.306422   -0.343193
     30          1           0        5.194591   -0.547217   -0.116993
     31          1           0        5.686786    1.899480    0.109955
     32          7           0        2.788117   -1.665839   -0.373129
     33          8           0        3.746154   -2.435749   -0.366805
     34          8           0        1.610841   -2.001769   -0.481802
 ---------------------------------------------------------------------

 SCF Done:  E(RHF) =  -669.535536883     A.U. after   15 cycles
 E2 =    -0.2092219192D+01 EUMP2 =    -0.67162775607494D+03

 The electronic state is 1-A.
 Alpha  occ. eigenvalues --  -20.60844 -20.60838 -15.85878 -11.31207 -11.27777
 Alpha  occ. eigenvalues --  -11.27735 -11.27517 -11.26790 -11.26775 -11.21600
 Alpha  occ. eigenvalues --  -11.21577 -11.21382 -11.21323 -11.21050 -11.20873
 Alpha  occ. eigenvalues --   -1.59907  -1.39462  -1.19381  -1.08784  -1.08403
 Alpha  occ. eigenvalues --   -1.04780  -1.03489  -0.95932  -0.95613  -0.86936
 Alpha  occ. eigenvalues --   -0.86178  -0.82454  -0.79558  -0.78230  -0.77508
 Alpha  occ. eigenvalues --   -0.72101  -0.71224  -0.70501  -0.65059  -0.65007
 Alpha  occ. eigenvalues --   -0.64798  -0.62194  -0.60872  -0.59262  -0.57536
 Alpha  occ. eigenvalues --   -0.55284  -0.55183  -0.53136  -0.52941  -0.52541
 Alpha  occ. eigenvalues --   -0.52270  -0.49850  -0.48856  -0.48854  -0.47874
 Alpha  occ. eigenvalues --   -0.46589  -0.45774  -0.45671  -0.44869  -0.43722
 Alpha  occ. eigenvalues --   -0.37362  -0.36366
 Alpha virt. eigenvalues --    0.04991   0.11182   0.16511   0.20571   0.22993
 Alpha virt. eigenvalues --    0.24053   0.26205   0.26773   0.27710   0.27852
 Alpha virt. eigenvalues --    0.29207   0.30623   0.31591   0.31635   0.32003

 Mulliken charges:
               1
     1  C   -0.298408
     2  C   -0.299694
     3  C   -0.475694
     4  H    0.146621
     5  H    0.152204
     6  H    0.150942
     7  H    0.153150
     8  H    0.156239
     9  H    0.154016
    10  H    0.160254
    11  C   -0.298019
    12  C   -0.303860
    13  C   -0.479608
    14  H    0.147631
    15  H    0.152829
    16  H    0.137476
    17  H    0.164988
    18  H    0.161352
    19  H    0.149707
    20  H    0.164788
    21  C   -0.170465
    22  C   -0.221183
    23  C   -0.176297
    24  C    0.157380
    25  C   -0.170325
    26  C   -0.218698
    27  H    0.225675
    28  H    0.223746
    29  H    0.286815
    30  H    0.275578
    31  H    0.223539
    32  N    0.488169
    33  O   -0.459441
    34  O   -0.461406
 Sum of Mulliken charges =  -0.00000

 Dipole moment (field-independent basis, Debye):
    X=              1.0316    Y=              4.9492    Z=              0.4549  Tot=              5.0760
 Quadrupole moment (field-independent basis, Debye-Ang):
   XX=            -84.1223   YY=            -96.2970   ZZ=            -96.5628
   XY=             15.1513   XZ=              0.9566   YZ=             -1.1375

 Normal termination of Gaussian 16 at Thu May  6 04:21:32 2021.
