 Gaussian 16, Revision A.03,
 Gaussian 16:  EM64L-G16RevA.03 25-Dec-2016

 -------------
 #p 6-31g* mp2
 -------------

 ------------------------------------------------------
 Input file generated by CHIRIPA (05-May-2021 14:57:25)
 ------------------------------------------------------
 Symbolic Z-matrix:
 Charge =  0 Multiplicity = 1

                         Standard orientation:
 ---------------------------------------------------------------------
 Center     Atomic      Atomic             Coordinates (Angstroms)
 Number     Number       Type             X           Y           Z
 ---------------------------------------------------------------------
      1          6           0        2.015153    2.021011    0.756441
      2          6           0        3.187249    2.303428    0.047250
      3          6           0        4.046708    1.272247   -0.343317
      4          6           0        3.701623   -0.035705   -0.006467
      5          6           0        2.541035   -0.349119    0.699292
      6          6           0        1.696349    0.697971    1.079629
      7          1           0        1.353243    2.828236    1.055869
      8          1           0        3.437376    3.329972   -0.205116
      9          1           0        4.960459    1.462619   -0.893078
     10          1           0        2.318451   -1.382395    0.936390
     11          1           0        0.786750    0.475679    1.630320
     12          7           0        4.603674   -1.135791   -0.414528
     13          8           0        4.277066   -2.279685   -0.105544
     14          8           0        5.620230   -0.833315   -1.035623
     15          6           0       -3.627786    2.357204   -0.371084
     16          6           0       -4.720004    1.571472   -0.753453
     17          6           0       -4.689570    0.183799   -0.586163
     18          6           0       -3.545720   -0.387565   -0.030788
     19          6           0       -2.441554    0.368322    0.360035
     20          6           0       -2.494045    1.754184    0.183462
     21          1           0       -3.659995    3.434479   -0.504645
     22          1           0       -5.601802    2.037061   -1.184385
     23          1           0       -5.521044   -0.448276   -0.873479
     24          1           0       -1.576446   -0.124492    0.786816
     25          1           0       -1.644338    2.361901    0.481325
     26          7           0       -3.501824   -1.855673    0.151228
     27          8           0       -2.482345   -2.334822    0.642874
     28          8           0       -4.487730   -2.499430   -0.201200
 ---------------------------------------------------------------------

 SCF Done:  E(RHF) =  -868.336368668     A.U. after   16 cycles
 E2 =    -0.2600332235D+01 EUMP2 =    -0.87093670090338D+03

 The electronic state is 1-A.
 Alpha  occ. eigenvalues --  -20.61274 -20.61259 -20.60918 -20.60901 -15.86329
 Alpha  occ. eigenvalues --  -15.85973 -11.31807 -11.31518 -11.28485 -11.28340
 Alpha  occ. eigenvalues --  -11.28149 -11.28130 -11.28105 -11.28043 -11.27527
 Alpha  occ. eigenvalues --  -11.27368 -11.27287 -11.27202  -1.60339  -1.59985
 Alpha  occ. eigenvalues --   -1.39892  -1.39532  -1.19992  -1.19740  -1.09360
 Alpha  occ. eigenvalues --   -1.09130  -1.05433  -1.05166  -0.96180  -0.95919
 Alpha  occ. eigenvalues --   -0.86823  -0.86581  -0.83024  -0.82743  -0.78073
 Alpha  occ. eigenvalues --   -0.77722  -0.72546  -0.72190  -0.71661  -0.71310
 Alpha  occ. eigenvalues --   -0.71114  -0.70899  -0.65663  -0.65484  -0.65393
 Alpha  occ. eigenvalues --   -0.65211  -0.62871  -0.62409  -0.55913  -0.55762
 Alpha  occ. eigenvalues --   -0.53726  -0.53585  -0.53481  -0.53224  -0.49311
 Alpha  occ. eigenvalues --   -0.49293  -0.48968  -0.48928  -0.45273  -0.44896
 Alpha  occ. eigenvalues --   -0.37958  -0.37778  -0.37031  -0.36746
 Alpha virt. eigenvalues --    0.04509   0.04791   0.10624   0.10785   0.15981
 Alpha virt. eigenvalues --    0.16150   0.17757   0.22242   0.24414   0.25001
 Alpha virt. eigenvalues --    0.28072   0.29122   0.30642   0.31277   0.33455

 Mulliken charges:
               1
     1  C   -0.172806
     2  C   -0.218141
     3  C   -0.169498
     4  C    0.158902
     5  C   -0.168771
     6  C   -0.222928
     7  H    0.219091
     8  H    0.223717
     9  H    0.277287
    10  H    0.283069
    11  H    0.220454
    12  N    0.487868
    13  O   -0.456269
    14  O   -0.460092
    15  C   -0.170435
    16  C   -0.218157
    17  C   -0.169295
    18  C    0.160566
    19  C   -0.173292
    20  C   -0.217285
    21  H    0.226363
    22  H    0.225884
    23  H    0.278059
    24  H    0.271529
    25  H    0.214517
    26  N    0.488141
    27  O   -0.461321
    28  O   -0.457156
 Sum of Mulliken charges =  -0.00000

 Dipole moment (field-independent basis, Debye):
    X=             -3.3339    Y=              8.8707    Z=              0.6656  Tot=              9.4999
 Quadrupole moment (field-independent basis, Debye-Ang):
   XX=           -119.8760   YY=           -107.8112   ZZ=           -104.6581
   XY=             -1.3434   XZ=              8.4405   YZ=             -1.6677

 Normal termination of Gaussian 16 at Wed May  5 16:26:38 2021.
