 Gaussian 16, Revision A.03,
 Gaussian 16:  EM64L-G16RevA.03 25-Dec-2016

 -------------
 #p 6-31g* mp2
 -------------

 ------------------------------------------------------
 Input file generated by CHIRIPA (05-May-2021 14:57:27)
 ------------------------------------------------------
 Symbolic Z-matrix:
 Charge =  0 Multiplicity = 1

                         Standard orientation:
 ---------------------------------------------------------------------
 Center     Atomic      Atomic             Coordinates (Angstroms)
 Number     Number       Type             X           Y           Z
 ---------------------------------------------------------------------
      1          6           0        1.438174   -1.505978   -0.737989
      2          6           0        2.532853   -2.223650   -0.244890
      3          6           0        3.699213   -1.559546    0.146412
      4          6           0        3.736635   -0.170846    0.030640
      5          6           0        2.662621    0.572242   -0.456807
      6          6           0        1.506431   -0.112778   -0.842190
      7          1           0        0.536067   -2.029994   -1.039662
      8          1           0        2.482672   -3.305684   -0.162861
      9          1           0        4.561361   -2.090389    0.531540
     10          1           0        2.742452    1.650263   -0.526928
     11          1           0        0.657829    0.447170   -1.224782
     12          7           0        4.966025    0.543283    0.441760
     13          8           0        4.973828    1.767240    0.329930
     14          8           0        5.898539   -0.134462    0.868042
     15          6           0       -4.667546   -1.905765    0.552913
     16          6           0       -4.730336   -0.852579    1.471269
     17          6           0       -4.106003    0.367657    1.195993
     18          6           0       -3.424431    0.500681   -0.012748
     19          6           0       -3.343976   -0.529948   -0.947960
     20          6           0       -3.975786   -1.741377   -0.651647
     21          1           0       -5.155448   -2.850254    0.774924
     22          1           0       -5.266859   -0.977401    2.407543
     23          1           0       -4.138822    1.199486    1.889103
     24          1           0       -2.801690   -0.375542   -1.872894
     25          1           0       -3.925368   -2.557567   -1.366726
     26          7           0       -2.759519    1.787829   -0.315305
     27          8           0       -2.165345    1.879714   -1.387290
     28          8           0       -2.845125    2.680439    0.525264
 ---------------------------------------------------------------------

 SCF Done:  E(RHF) =  -868.339009169     A.U. after   16 cycles
 E2 =    -0.2599182205D+01 EUMP2 =    -0.87093819137324D+03

 The electronic state is 1-A.
 Alpha  occ. eigenvalues --  -20.61801 -20.61730 -20.60421 -20.60405 -15.86787
 Alpha  occ. eigenvalues --  -15.85465 -11.32060 -11.30811 -11.28665 -11.28559
 Alpha  occ. eigenvalues --  -11.28303 -11.27632 -11.27548 -11.27410 -11.27283
 Alpha  occ. eigenvalues --  -11.27164 -11.26474 -11.26244  -1.60819  -1.59491
 Alpha  occ. eigenvalues --   -1.40379  -1.39044  -1.20215  -1.18978  -1.09620
 Alpha  occ. eigenvalues --   -1.08395  -1.05605  -1.04355  -0.96473  -0.95233
 Alpha  occ. eigenvalues --   -0.87003  -0.85767  -0.83309  -0.82044  -0.78379
 Alpha  occ. eigenvalues --   -0.77080  -0.73002  -0.72129  -0.71685  -0.71310
 Alpha  occ. eigenvalues --   -0.70814  -0.70131  -0.65867  -0.65597  -0.64629
 Alpha  occ. eigenvalues --   -0.64337  -0.62954  -0.61679  -0.56085  -0.54929
 Alpha  occ. eigenvalues --   -0.53934  -0.53688  -0.52718  -0.52428  -0.49777
 Alpha  occ. eigenvalues --   -0.49746  -0.48445  -0.48437  -0.45786  -0.44453
 Alpha  occ. eigenvalues --   -0.38175  -0.37213  -0.36997  -0.35956
 Alpha virt. eigenvalues --    0.04108   0.05420   0.10422   0.11683   0.15600
 Alpha virt. eigenvalues --    0.16913   0.20344   0.21833   0.26207   0.27050
 Alpha virt. eigenvalues --    0.28130   0.28731   0.30177   0.31270   0.31870

 Mulliken charges:
               1
     1  C   -0.171604
     2  C   -0.218403
     3  C   -0.172274
     4  C    0.158598
     5  C   -0.171552
     6  C   -0.227108
     7  H    0.218351
     8  H    0.219835
     9  H    0.273916
    10  H    0.279937
    11  H    0.239291
    12  N    0.487925
    13  O   -0.458814
    14  O   -0.462407
    15  C   -0.170183
    16  C   -0.217939
    17  C   -0.169711
    18  C    0.159355
    19  C   -0.175978
    20  C   -0.219365
    21  H    0.228234
    22  H    0.226888
    23  H    0.278462
    24  H    0.272168
    25  H    0.223788
    26  N    0.488308
    27  O   -0.466886
    28  O   -0.452829
 Sum of Mulliken charges =  -0.00000

 Dipole moment (field-independent basis, Debye):
    X=             -7.0022    Y=             -6.8733    Z=             -0.2426  Tot=              9.8149
 Quadrupole moment (field-independent basis, Debye-Ang):
   XX=           -120.3669   YY=           -104.6377   ZZ=           -101.7235
   XY=              3.4496   XZ=            -10.8504   YZ=              1.3698

 Normal termination of Gaussian 16 at Fri May  7 02:02:49 2021.
