 Gaussian 16, Revision A.03,
 Gaussian 16:  EM64L-G16RevA.03 25-Dec-2016

 -------------
 #p 6-31g* mp2
 -------------

 ------------------------------------------------------
 Input file generated by CHIRIPA (05-May-2021 14:57:25)
 ------------------------------------------------------
 Symbolic Z-matrix:
 Charge =  0 Multiplicity = 1

                         Standard orientation:
 ---------------------------------------------------------------------
 Center     Atomic      Atomic             Coordinates (Angstroms)
 Number     Number       Type             X           Y           Z
 ---------------------------------------------------------------------
      1          6           0       -2.261359    2.127790   -0.035294
      2          6           0       -3.458601    2.288292   -0.740540
      3          6           0       -4.426794    1.279771   -0.734641
      4          6           0       -4.163620    0.118552   -0.009658
      5          6           0       -2.980595   -0.071087    0.702928
      6          6           0       -2.026591    0.950688    0.682924
      7          1           0       -1.514754    2.916381   -0.045355
      8          1           0       -3.643632    3.201375   -1.299187
      9          1           0       -5.362321    1.377795   -1.271856
     10          1           0       -2.824672   -0.992558    1.250649
     11          1           0       -1.097706    0.823291    1.231546
     12          7           0       -5.181092   -0.956140    0.004054
     13          8           0       -4.925152   -1.969666    0.650503
     14          8           0       -6.215261   -0.764607   -0.631908
     15          6           0        1.749768   -1.422476    0.237768
     16          6           0        2.053506   -0.303669    1.020415
     17          6           0        3.294905    0.328664    0.903651
     18          6           0        4.213078   -0.186739   -0.009916
     19          6           0        3.940104   -1.299690   -0.803714
     20          6           0        2.692375   -1.916045   -0.670198
     21          1           0        0.782962   -1.907481    0.334980
     22          1           0        1.323405    0.081830    1.726381
     23          1           0        3.556207    1.196345    1.497174
     24          1           0        4.688339   -1.660929   -1.498745
     25          1           0        2.459231   -2.784764   -1.279309
     26          7           0        5.530642    0.474226   -0.142397
     27          8           0        6.322302    0.000699   -0.954605
     28          8           0        5.746740    1.453301    0.568482
 ---------------------------------------------------------------------

 SCF Done:  E(RHF) =  -868.336873796     A.U. after   16 cycles
 E2 =    -0.2599674512D+01 EUMP2 =    -0.87093654830738D+03

 The electronic state is 1-A.
 Alpha  occ. eigenvalues --  -20.61376 -20.61361 -20.61257 -20.61247 -15.86430
 Alpha  occ. eigenvalues --  -15.86314 -11.31875 -11.31775 -11.28534 -11.28427
 Alpha  occ. eigenvalues --  -11.28414 -11.28334 -11.28196 -11.28157 -11.27593
 Alpha  occ. eigenvalues --  -11.27531 -11.27415 -11.27332  -1.60445  -1.60329
 Alpha  occ. eigenvalues --   -1.39997  -1.39880  -1.20061  -1.19975  -1.09432
 Alpha  occ. eigenvalues --   -1.09352  -1.05497  -1.05401  -0.96251  -0.96165
 Alpha  occ. eigenvalues --   -0.86912  -0.86776  -0.83098  -0.83001  -0.78157
 Alpha  occ. eigenvalues --   -0.78017  -0.72644  -0.72530  -0.71771  -0.71655
 Alpha  occ. eigenvalues --   -0.71151  -0.71074  -0.65734  -0.65716  -0.65617
 Alpha  occ. eigenvalues --   -0.65266  -0.62932  -0.62660  -0.55958  -0.55895
 Alpha  occ. eigenvalues --   -0.53812  -0.53755  -0.53659  -0.53379  -0.49412
 Alpha  occ. eigenvalues --   -0.49395  -0.49295  -0.49278  -0.45386  -0.45264
 Alpha  occ. eigenvalues --   -0.38045  -0.37934  -0.37108  -0.36990
 Alpha virt. eigenvalues --    0.04410   0.04534   0.10396   0.10720   0.15855
 Alpha virt. eigenvalues --    0.15983   0.18092   0.22001   0.24590   0.26543
 Alpha virt. eigenvalues --    0.27949   0.28971   0.29367   0.31219   0.31926

 Mulliken charges:
               1
     1  C   -0.170707
     2  C   -0.218219
     3  C   -0.169854
     4  C    0.159334
     5  C   -0.174004
     6  C   -0.219572
     7  H    0.228751
     8  H    0.226683
     9  H    0.277934
    10  H    0.272543
    11  H    0.217203
    12  N    0.488102
    13  O   -0.461214
    14  O   -0.457864
    15  C   -0.169381
    16  C   -0.222824
    17  C   -0.170791
    18  C    0.158802
    19  C   -0.169634
    20  C   -0.218496
    21  H    0.226220
    22  H    0.216392
    23  H    0.275805
    24  H    0.278013
    25  H    0.227307
    26  N    0.487996
    27  O   -0.458317
    28  O   -0.460210
 Sum of Mulliken charges =  -0.00000

 Dipole moment (field-independent basis, Debye):
    X=             -1.0584    Y=              1.4755    Z=              0.2148  Tot=              1.8285
 Quadrupole moment (field-independent basis, Debye-Ang):
   XX=           -171.4787   YY=            -99.7082   ZZ=           -101.7351
   XY=            -27.8253   XZ=              3.1850   YZ=              0.7012

 Normal termination of Gaussian 16 at Fri May  7 09:37:40 2021.
