 Gaussian 16, Revision A.03,
 Gaussian 16:  EM64L-G16RevA.03 25-Dec-2016

 -------------
 #p 6-31g* mp2
 -------------

 ------------------------------------------------------
 Input file generated by CHIRIPA (05-May-2021 14:57:23)
 ------------------------------------------------------
 Symbolic Z-matrix:
 Charge =  0 Multiplicity = 1

                         Standard orientation:
 ---------------------------------------------------------------------
 Center     Atomic      Atomic             Coordinates (Angstroms)
 Number     Number       Type             X           Y           Z
 ---------------------------------------------------------------------
      1          6           0        4.362039    1.676187    0.437455
      2          6           0        4.697290    0.360272    0.772857
      3          6           0        3.827171   -0.692342    0.473783
      4          6           0        2.624654   -0.391656   -0.164051
      5          6           0        2.262261    0.908949   -0.511024
      6          6           0        3.147735    1.945850   -0.202287
      7          1           0        5.043932    2.487780    0.673536
      8          1           0        5.639657    0.147887    1.269730
      9          1           0        4.061674   -1.720322    0.722143
     10          1           0        1.315725    1.089465   -1.005899
     11          1           0        2.884751    2.966839   -0.463949
     12          7           0        1.695370   -1.497694   -0.485782
     13          8           0        0.641979   -1.206448   -1.048080
     14          8           0        2.037985   -2.634909   -0.169565
     15          6           0       -2.871059   -2.289675    0.445717
     16          6           0       -2.728860   -1.760614   -0.841294
     17          6           0       -2.676042   -0.377560   -1.038574
     18          6           0       -2.768797    0.450965    0.078670
     19          6           0       -2.911002   -0.045764    1.373401
     20          6           0       -2.961517   -1.432072    1.547015
     21          1           0       -2.911196   -3.365329    0.589776
     22          1           0       -2.658367   -2.424241   -1.698425
     23          1           0       -2.566423    0.058835   -2.023948
     24          1           0       -2.978710    0.641039    2.208348
     25          1           0       -3.071999   -1.840139    2.547676
     26          7           0       -2.714099    1.916866   -0.117655
     27          8           0       -2.797982    2.625467    0.883087
     28          8           0       -2.588380    2.329482   -1.268559
 ---------------------------------------------------------------------

 SCF Done:  E(RHF) =  -868.339382887     A.U. after   16 cycles
 E2 =    -0.2600096701D+01 EUMP2 =    -0.87093947958775D+03

 The electronic state is 1-A.
 Alpha  occ. eigenvalues --  -20.61037 -20.61015 -20.60298 -20.60290 -15.86054
 Alpha  occ. eigenvalues --  -15.85330 -11.31203 -11.30254 -11.27773 -11.27695
 Alpha  occ. eigenvalues --  -11.27447 -11.26833 -11.26745 -11.26716 -11.26655
 Alpha  occ. eigenvalues --  -11.26415 -11.25784 -11.25604  -1.60100  -1.59385
 Alpha  occ. eigenvalues --   -1.39661  -1.38948  -1.19355  -1.18377  -1.08795
 Alpha  occ. eigenvalues --   -1.07862  -1.04716  -1.03719  -0.95668  -0.94773
 Alpha  occ. eigenvalues --   -0.86129  -0.85159  -0.82508  -0.81628  -0.77576
 Alpha  occ. eigenvalues --   -0.76727  -0.72315  -0.71563  -0.71409  -0.70703
 Alpha  occ. eigenvalues --   -0.70461  -0.69518  -0.65010  -0.64712  -0.64047
 Alpha  occ. eigenvalues --   -0.63755  -0.62060  -0.61110  -0.55235  -0.54261
 Alpha  occ. eigenvalues --   -0.53072  -0.52800  -0.52046  -0.51844  -0.49063
 Alpha  occ. eigenvalues --   -0.49027  -0.48336  -0.48278  -0.45102  -0.44450
 Alpha  occ. eigenvalues --   -0.37334  -0.36332  -0.36295  -0.35195
 Alpha virt. eigenvalues --    0.04929   0.05786   0.11341   0.12378   0.16473
 Alpha virt. eigenvalues --    0.17396   0.21505   0.22394   0.27428   0.28161
 Alpha virt. eigenvalues --    0.28424   0.29249   0.31033   0.31876   0.32492

 Mulliken charges:
               1
     1  C   -0.170424
     2  C   -0.218766
     3  C   -0.171566
     4  C    0.157497
     5  C   -0.171484
     6  C   -0.218522
     7  H    0.226632
     8  H    0.223028
     9  H    0.273896
    10  H    0.278722
    11  H    0.228933
    12  N    0.491147
    13  O   -0.464980
    14  O   -0.463536
    15  C   -0.168145
    16  C   -0.199635
    17  C   -0.160353
    18  C    0.154338
    19  C   -0.174424
    20  C   -0.219412
    21  H    0.224895
    22  H    0.224868
    23  H    0.271907
    24  H    0.270047
    25  H    0.219180
    26  N    0.486709
    27  O   -0.464897
    28  O   -0.465656
 Sum of Mulliken charges =  -0.00000

 Dipole moment (field-independent basis, Debye):
    X=              3.2453    Y=             -1.4296    Z=              1.6500  Tot=              3.9113
 Quadrupole moment (field-independent basis, Debye-Ang):
   XX=            -86.1362   YY=           -111.1931   ZZ=           -100.3340
   XY=             22.0267   XZ=              1.9874   YZ=             -1.7742

 Normal termination of Gaussian 16 at Thu May  6 12:55:55 2021.
