 Gaussian 16, Revision A.03,
 Gaussian 16:  EM64L-G16RevA.03 25-Dec-2016

 -------------
 #p 6-31g* mp2
 -------------

 ------------------------------------------------------
 Input file generated by CHIRIPA (05-May-2021 14:53:12)
 ------------------------------------------------------
 Symbolic Z-matrix:
 Charge =  0 Multiplicity = 1

                         Standard orientation:
 ---------------------------------------------------------------------
 Center     Atomic      Atomic             Coordinates (Angstroms)
 Number     Number       Type             X           Y           Z
 ---------------------------------------------------------------------
      1          6           0        3.279617   -0.589648   -0.249291
      2          6           0        2.384952   -0.895652   -1.450923
      3          6           0        1.119574   -1.662611   -1.065712
      4          1           0        3.555943   -1.531888    0.243430
      5          1           0        2.707104   -0.008262    0.486653
      6          1           0        2.959401   -1.475104   -2.184994
      7          1           0        2.110880    0.047412   -1.940954
      8          1           0        0.522631   -1.086799   -0.351078
      9          1           0        1.375973   -2.617967   -0.596504
     10          1           0        0.494600   -1.870823   -1.939734
     11          6           0        4.548562    0.176709   -0.618349
     12          6           0        5.443227    0.482712    0.583283
     13          6           0        6.708605    1.249671    0.198072
     14          1           0        5.121075   -0.404678   -1.354293
     15          1           0        4.272235    1.118948   -1.111070
     16          1           0        5.717299   -0.460352    1.073314
     17          1           0        4.868778    1.062164    1.317354
     18          1           0        6.452205    2.205027   -0.271135
     19          1           0        7.305547    0.673860   -0.516562
     20          1           0        7.333578    1.457883    1.072095
     21          6           0       -4.856768    0.945998   -1.246698
     22          6           0       -4.753790   -0.410389   -0.920918
     23          6           0       -3.760980   -0.856459   -0.043481
     24          6           0       -2.883973    0.085443    0.492214
     25          6           0       -2.960923    1.443472    0.187047
     26          6           0       -3.961584    1.866975   -0.692652
     27          1           0       -5.631056    1.283751   -1.929191
     28          1           0       -5.447626   -1.127881   -1.349688
     29          1           0       -3.658627   -1.900680    0.225858
     30          1           0       -2.254766    2.135012    0.630366
     31          1           0       -4.039185    2.920975   -0.943862
     32          7           0       -1.828773   -0.374845    1.422314
     33          8           0       -1.068378    0.474973    1.880838
     34          8           0       -1.782083   -1.576723    1.675192
 ---------------------------------------------------------------------

 SCF Done:  E(RHF) =  -669.535861564     A.U. after   15 cycles
 E2 =    -0.2091198487D+01 EUMP2 =    -0.67162706005061D+03

 The electronic state is 1-A.
 Alpha  occ. eigenvalues --  -20.60872 -20.60857 -15.85898 -11.31237 -11.27809
 Alpha  occ. eigenvalues --  -11.27799 -11.27549 -11.26817 -11.26806 -11.21032
 Alpha  occ. eigenvalues --  -11.20948 -11.20786 -11.20624 -11.20577 -11.20298
 Alpha  occ. eigenvalues --   -1.59939  -1.39489  -1.19410  -1.08813  -1.07775
 Alpha  occ. eigenvalues --   -1.04809  -1.02906  -0.95653  -0.95348  -0.86365
 Alpha  occ. eigenvalues --   -0.86208  -0.82486  -0.78973  -0.77568  -0.77536
 Alpha  occ. eigenvalues --   -0.72121  -0.71277  -0.70521  -0.65065  -0.64813
 Alpha  occ. eigenvalues --   -0.64406  -0.62157  -0.60305  -0.58729  -0.56954
 Alpha  occ. eigenvalues --   -0.55315  -0.54628  -0.53140  -0.52902  -0.52075
 Alpha  occ. eigenvalues --   -0.51754  -0.49291  -0.48883  -0.48871  -0.47276
 Alpha  occ. eigenvalues --   -0.46005  -0.45122  -0.45023  -0.44888  -0.43157
 Alpha  occ. eigenvalues --   -0.37390  -0.36409
 Alpha virt. eigenvalues --    0.04980   0.11244   0.16461   0.21373   0.23496
 Alpha virt. eigenvalues --    0.24878   0.27271   0.27290   0.28009   0.28311
 Alpha virt. eigenvalues --    0.28569   0.30845   0.31937   0.32374   0.32407

 Mulliken charges:
               1
     1  C   -0.300376
     2  C   -0.298925
     3  C   -0.476806
     4  H    0.150307
     5  H    0.159679
     6  H    0.148499
     7  H    0.147636
     8  H    0.161712
     9  H    0.158942
    10  H    0.152610
    11  C   -0.297757
    12  C   -0.299629
    13  C   -0.475319
    14  H    0.147003
    15  H    0.147182
    16  H    0.152186
    17  H    0.154291
    18  H    0.153717
    19  H    0.153804
    20  H    0.159353
    21  C   -0.170581
    22  C   -0.218689
    23  C   -0.170319
    24  C    0.157609
    25  C   -0.170992
    26  C   -0.218611
    27  H    0.225792
    28  H    0.223680
    29  H    0.276100
    30  H    0.275452
    31  H    0.223560
    32  N    0.487626
    33  O   -0.461150
    34  O   -0.457586
 Sum of Mulliken charges =  -0.00000

 Dipole moment (field-independent basis, Debye):
    X=             -3.8689    Y=              1.5934    Z=             -3.1488  Tot=              5.2366
 Quadrupole moment (field-independent basis, Debye-Ang):
   XX=            -74.5461   YY=            -89.6063   ZZ=            -99.0105
   XY=             -4.3477   XZ=              8.4516   YZ=              1.0420

 Normal termination of Gaussian 16 at Thu May  6 05:44:14 2021.
