 Gaussian 16, Revision A.03,
 Gaussian 16:  EM64L-G16RevA.03 25-Dec-2016

 -------------
 #p 6-31g* mp2
 -------------

 ------------------------------------------------------
 Input file generated by CHIRIPA (05-May-2021 14:53:14)
 ------------------------------------------------------
 Symbolic Z-matrix:
 Charge =  0 Multiplicity = 1

                         Standard orientation:
 ---------------------------------------------------------------------
 Center     Atomic      Atomic             Coordinates (Angstroms)
 Number     Number       Type             X           Y           Z
 ---------------------------------------------------------------------
      1          6           0       -4.243137    0.898307   -0.196970
      2          6           0       -3.160144    1.463468    0.722651
      3          6           0       -2.662171    2.837860    0.274472
      4          1           0       -3.848174    0.831118   -1.219924
      5          1           0       -5.086987    1.601156   -0.233260
      6          1           0       -2.319175    0.759112    0.758284
      7          1           0       -3.557669    1.529140    1.743571
      8          1           0       -3.485742    3.558978    0.256541
      9          1           0       -2.240211    2.784575   -0.734344
     10          1           0       -1.888475    3.223108    0.945917
     11          6           0       -4.751062   -0.475204    0.238011
     12          6           0       -5.834055   -1.040365   -0.681611
     13          6           0       -6.332027   -2.414757   -0.233432
     14          1           0       -3.907212   -1.178053    0.274300
     15          1           0       -5.146025   -0.408015    1.260964
     16          1           0       -5.436530   -1.106037   -1.702531
     17          1           0       -6.675024   -0.336009   -0.717244
     18          1           0       -6.753988   -2.361472    0.775385
     19          1           0       -5.508457   -3.135875   -0.215500
     20          1           0       -7.105723   -2.800005   -0.904877
     21          6           0        1.057724    0.401864    0.102850
     22          6           0        1.968002    1.335289   -0.403739
     23          6           0        3.330902    1.031854   -0.474303
     24          6           0        3.750760   -0.220104   -0.027525
     25          6           0        2.868384   -1.171305    0.482297
     26          6           0        1.510023   -0.846253    0.543474
     27          1           0        0.000753    0.645975    0.154020
     28          1           0        1.619588    2.305372   -0.746653
     29          1           0        4.057277    1.735768   -0.861992
     30          1           0        3.245697   -2.130119    0.816555
     31          1           0        0.805360   -1.573124    0.937370
     32          7           0        5.191199   -0.552779   -0.097258
     33          8           0        5.535772   -1.662689    0.302750
     34          8           0        5.948369    0.302681   -0.550603
 ---------------------------------------------------------------------

 SCF Done:  E(RHF) =  -669.535551192     A.U. after   15 cycles
 E2 =    -0.2091116653D+01 EUMP2 =    -0.67162666784500D+03

 The electronic state is 1-A.
 Alpha  occ. eigenvalues --  -20.60731 -20.60726 -15.85785 -11.31143 -11.27716
 Alpha  occ. eigenvalues --  -11.27711 -11.27421 -11.26725 -11.26711 -11.22859
 Alpha  occ. eigenvalues --  -11.22356 -11.22281 -11.22281 -11.22202 -11.21643
 Alpha  occ. eigenvalues --   -1.59807  -1.39361  -1.19315  -1.09369  -1.08708
 Alpha  occ. eigenvalues --   -1.04719  -1.04463  -0.96890  -0.95546  -0.87905
 Alpha  occ. eigenvalues --   -0.86114  -0.82383  -0.80545  -0.79143  -0.77429
 Alpha  occ. eigenvalues --   -0.72003  -0.71130  -0.70448  -0.66007  -0.64966
 Alpha  occ. eigenvalues --   -0.64723  -0.62068  -0.61875  -0.60284  -0.58493
 Alpha  occ. eigenvalues --   -0.56206  -0.55170  -0.53591  -0.53302  -0.53048
 Alpha  occ. eigenvalues --   -0.52809  -0.50840  -0.48846  -0.48758  -0.48755
 Alpha  occ. eigenvalues --   -0.47589  -0.46682  -0.46592  -0.44768  -0.44699
 Alpha  occ. eigenvalues --   -0.37291  -0.36327
 Alpha virt. eigenvalues --    0.05106   0.11326   0.16595   0.18821   0.22591
 Alpha virt. eigenvalues --    0.23724   0.25290   0.26061   0.26657   0.27882
 Alpha virt. eigenvalues --    0.29082   0.30342   0.30839   0.30895   0.31983

 Mulliken charges:
               1
     1  C   -0.298596
     2  C   -0.304259
     3  C   -0.479537
     4  H    0.150136
     5  H    0.153617
     6  H    0.142128
     7  H    0.158158
     8  H    0.162485
     9  H    0.152621
    10  H    0.160566
    11  C   -0.298247
    12  C   -0.300386
    13  C   -0.476139
    14  H    0.146410
    15  H    0.151668
    16  H    0.152858
    17  H    0.153705
    18  H    0.156186
    19  H    0.155031
    20  H    0.162629
    21  C   -0.179360
    22  C   -0.221359
    23  C   -0.170660
    24  C    0.158182
    25  C   -0.170756
    26  C   -0.221594
    27  H    0.239611
    28  H    0.224252
    29  H    0.275414
    30  H    0.275437
    31  H    0.222927
    32  N    0.487997
    33  O   -0.460587
    34  O   -0.460535
 Sum of Mulliken charges =  -0.00000

 Dipole moment (field-independent basis, Debye):
    X=             -5.3619    Y=              1.2210    Z=              0.2489  Tot=              5.5048
 Quadrupole moment (field-independent basis, Debye-Ang):
   XX=           -131.7904   YY=            -91.8414   ZZ=            -94.4550
   XY=              5.5622   XZ=              0.2709   YZ=             -1.6414

 Normal termination of Gaussian 16 at Wed May  5 21:51:02 2021.
