 Gaussian 16, Revision A.03,
 Gaussian 16:  EM64L-G16RevA.03 25-Dec-2016

 -------------
 #p 6-31g* mp2
 -------------

 ------------------------------------------------------
 Input file generated by CHIRIPA (05-May-2021 14:57:27)
 ------------------------------------------------------
 Symbolic Z-matrix:
 Charge =  0 Multiplicity = 1

                         Standard orientation:
 ---------------------------------------------------------------------
 Center     Atomic      Atomic             Coordinates (Angstroms)
 Number     Number       Type             X           Y           Z
 ---------------------------------------------------------------------
      1          6           0       -2.000009   -1.444471    0.142122
      2          6           0       -3.130811   -1.780950    0.893515
      3          6           0       -4.291124   -1.004869    0.816568
      4          6           0       -4.285729    0.105883   -0.025745
      5          6           0       -3.175060    0.466952   -0.786885
      6          6           0       -2.025698   -0.323570   -0.694205
      7          1           0       -1.102904   -2.052958    0.208007
      8          1           0       -3.113728   -2.650898    1.543855
      9          1           0       -5.180650   -1.242571    1.387233
     10          1           0       -3.222290    1.340035   -1.426347
     11          1           0       -1.148980   -0.059868   -1.278903
     12          7           0       -5.508304    0.935129   -0.115533
     13          8           0       -5.478053    1.908742   -0.865066
     14          8           0       -6.473659    0.595777    0.565324
     15          6           0        5.390880    2.148928    0.425772
     16          6           0        6.059222    0.971908    0.072975
     17          6           0        5.345444   -0.207562   -0.159229
     18          6           0        3.957912   -0.173987   -0.029157
     19          6           0        3.263301    0.982847    0.320899
     20          6           0        3.997509    2.150638    0.548392
     21          1           0        5.953295    3.060632    0.604324
     22          1           0        7.141266    0.967633   -0.022984
     23          1           0        5.837505   -1.132764   -0.433627
     24          1           0        2.183967    0.956049    0.408855
     25          1           0        3.475808    3.063259    0.822246
     26          7           0        3.191453   -1.416457   -0.272487
     27          8           0        1.969627   -1.360654   -0.151391
     28          8           0        3.827042   -2.422581   -0.579698
 ---------------------------------------------------------------------

 SCF Done:  E(RHF) =  -868.340451728     A.U. after   16 cycles
 E2 =    -0.2598225619D+01 EUMP2 =    -0.87093867734754D+03

 The electronic state is 1-A.
 Alpha  occ. eigenvalues --  -20.61867 -20.61800 -20.60295 -20.60289 -15.86874
 Alpha  occ. eigenvalues --  -15.85344 -11.31947 -11.30521 -11.28499 -11.28458
 Alpha  occ. eigenvalues --  -11.28147 -11.27422 -11.27407 -11.27096 -11.27091
 Alpha  occ. eigenvalues --  -11.26553 -11.25986 -11.25937  -1.60893  -1.59376
 Alpha  occ. eigenvalues --   -1.40460  -1.38935  -1.20087  -1.18661  -1.09531
 Alpha  occ. eigenvalues --   -1.08039  -1.05446  -1.04050  -0.96418  -0.94912
 Alpha  occ. eigenvalues --   -0.86857  -0.85421  -0.83267  -0.81770  -0.78347
 Alpha  occ. eigenvalues --   -0.76887  -0.73122  -0.72194  -0.71562  -0.71188
 Alpha  occ. eigenvalues --   -0.70700  -0.69622  -0.65744  -0.65440  -0.64285
 Alpha  occ. eigenvalues --   -0.64014  -0.62799  -0.61410  -0.55945  -0.54356
 Alpha  occ. eigenvalues --   -0.53789  -0.53531  -0.52383  -0.52115  -0.49873
 Alpha  occ. eigenvalues --   -0.49815  -0.48331  -0.48300  -0.45928  -0.44384
 Alpha  occ. eigenvalues --   -0.38042  -0.37037  -0.36562  -0.35688
 Alpha virt. eigenvalues --    0.04167   0.05659   0.10622   0.11979   0.15725
 Alpha virt. eigenvalues --    0.17222   0.20642   0.22282   0.26496   0.27214
 Alpha virt. eigenvalues --    0.28344   0.29252   0.30522   0.31560   0.32262

 Mulliken charges:
               1
     1  C   -0.175551
     2  C   -0.220468
     3  C   -0.171801
     4  C    0.157051
     5  C   -0.172978
     6  C   -0.223291
     7  H    0.248110
     8  H    0.222662
     9  H    0.273025
    10  H    0.271615
    11  H    0.227028
    12  N    0.488291
    13  O   -0.463309
    14  O   -0.462323
    15  C   -0.169741
    16  C   -0.218400
    17  C   -0.170267
    18  C    0.157936
    19  C   -0.171265
    20  C   -0.218331
    21  H    0.228552
    22  H    0.225955
    23  H    0.276754
    24  H    0.272661
    25  H    0.226226
    26  N    0.492672
    27  O   -0.475774
    28  O   -0.455037
 Sum of Mulliken charges =  -0.00000

 Dipole moment (field-independent basis, Debye):
    X=              7.5965    Y=              1.3852    Z=              1.1924  Tot=              7.8133
 Quadrupole moment (field-independent basis, Debye-Ang):
   XX=           -116.3139   YY=           -104.4765   ZZ=           -103.9510
   XY=             29.8589   XZ=             -0.7957   YZ=             -1.7516

 Normal termination of Gaussian 16 at Thu May  6 22:57:10 2021.
