 Gaussian 16, Revision A.03,
 Gaussian 16:  EM64L-G16RevA.03 25-Dec-2016

 -------------
 #p 6-31g* mp2
 -------------

 ------------------------------------------------------
 Input file generated by CHIRIPA (05-May-2021 14:55:24)
 ------------------------------------------------------
 Symbolic Z-matrix:
 Charge =  0 Multiplicity = 1

                         Standard orientation:
 ---------------------------------------------------------------------
 Center     Atomic      Atomic             Coordinates (Angstroms)
 Number     Number       Type             X           Y           Z
 ---------------------------------------------------------------------
      1          6           0       -2.052608    2.435273    0.046280
      2          6           0       -2.185606    1.686533   -1.127697
      3          6           0       -2.784496    0.423549   -1.100298
      4          6           0       -3.241254   -0.062202    0.123920
      5          6           0       -3.123234    0.659716    1.310594
      6          6           0       -2.521020    1.920382    1.259539
      7          1           0       -1.586084    3.415489    0.015807
      8          1           0       -1.822749    2.083883   -2.071356
      9          1           0       -2.900245   -0.177339   -1.994140
     10          1           0       -3.494629    0.237064    2.236255
     11          1           0       -2.419072    2.499638    2.172838
     12          7           0       -3.877031   -1.398040    0.165448
     13          8           0       -4.271262   -1.803569    1.256670
     14          8           0       -3.969084   -2.014246   -0.894011
     15          6           0        3.482595   -0.105594   -0.689288
     16          6           0        2.053616   -0.244330   -0.163214
     17          6           0        1.000416   -0.048451   -1.254174
     18          1           0        3.604248    0.886882   -1.144411
     19          1           0        3.643420   -0.839143   -1.491432
     20          1           0        1.895974    0.488329    0.638643
     21          1           0        1.935407   -1.236521    0.290881
     22          1           0        1.129271   -0.787838   -2.051234
     23          1           0        1.089613    0.946812   -1.701495
     24          1           0       -0.013877   -0.151876   -0.856212
     25          6           0        4.546768   -0.298783    0.389574
     26          6           0        5.975747   -0.160047   -0.136500
     27          6           0        7.028947   -0.355926    0.954461
     28          1           0        4.385942    0.434765    1.191719
     29          1           0        4.425115   -1.291259    0.844698
     30          1           0        6.093956    0.832143   -0.590595
     31          1           0        6.133390   -0.892707   -0.938357
     32          1           0        6.939750   -1.351189    1.401782
     33          1           0        6.900092    0.383461    1.751520
     34          1           0        8.043240   -0.252501    0.556500
 ---------------------------------------------------------------------

 SCF Done:  E(RHF) =  -669.534123431     A.U. after   15 cycles
 E2 =    -0.2092819219D+01 EUMP2 =    -0.67162694264991D+03

 The electronic state is 1-A.
 Alpha  occ. eigenvalues --  -20.60800 -20.60795 -15.85854 -11.31246 -11.27787
 Alpha  occ. eigenvalues --  -11.27751 -11.27513 -11.26825 -11.26777 -11.21790
 Alpha  occ. eigenvalues --  -11.21764 -11.21592 -11.21528 -11.21212 -11.21198
 Alpha  occ. eigenvalues --   -1.59876  -1.39428  -1.19415  -1.08797  -1.08611
 Alpha  occ. eigenvalues --   -1.04820  -1.03702  -0.96161  -0.95628  -0.87189
 Alpha  occ. eigenvalues --   -0.86198  -0.82457  -0.79780  -0.78428  -0.77503
 Alpha  occ. eigenvalues --   -0.72069  -0.71202  -0.70498  -0.65248  -0.65052
 Alpha  occ. eigenvalues --   -0.64800  -0.62149  -0.61109  -0.59585  -0.57802
 Alpha  occ. eigenvalues --   -0.55470  -0.55295  -0.53660  -0.52896  -0.52636
 Alpha  occ. eigenvalues --   -0.52236  -0.50107  -0.48831  -0.48824  -0.48082
 Alpha  occ. eigenvalues --   -0.46814  -0.45970  -0.45898  -0.44829  -0.43969
 Alpha  occ. eigenvalues --   -0.37389  -0.36286
 Alpha virt. eigenvalues --    0.05014   0.11186   0.16497   0.21204   0.22695
 Alpha virt. eigenvalues --    0.24163   0.26324   0.26736   0.27414   0.28248
 Alpha virt. eigenvalues --    0.28300   0.30429   0.31361   0.31815   0.31908

 Mulliken charges:
               1
     1  C   -0.171258
     2  C   -0.211868
     3  C   -0.177767
     4  C    0.161029
     5  C   -0.171914
     6  C   -0.217836
     7  H    0.225577
     8  H    0.224645
     9  H    0.276383
    10  H    0.275767
    11  H    0.223671
    12  N    0.488084
    13  O   -0.460224
    14  O   -0.460162
    15  C   -0.298334
    16  C   -0.298683
    17  C   -0.481255
    18  H    0.147075
    19  H    0.150713
    20  H    0.149048
    21  H    0.155032
    22  H    0.155214
    23  H    0.145160
    24  H    0.171322
    25  C   -0.298249
    26  C   -0.299645
    27  C   -0.475752
    28  H    0.148169
    29  H    0.151184
    30  H    0.150944
    31  H    0.152683
    32  H    0.156070
    33  H    0.154624
    34  H    0.160552
 Sum of Mulliken charges =  -0.00000

 Dipole moment (field-independent basis, Debye):
    X=              2.1847    Y=              4.6892    Z=             -0.1272  Tot=              5.1747
 Quadrupole moment (field-independent basis, Debye-Ang):
   XX=           -110.8626   YY=            -94.9202   ZZ=            -90.4319
   XY=            -15.6684   XZ=             -0.5037   YZ=              1.4531

 Normal termination of Gaussian 16 at Thu May  6 00:01:43 2021.
