 Gaussian 16, Revision A.03,
 Gaussian 16:  EM64L-G16RevA.03 25-Dec-2016

 -------------
 #p 6-31g* mp2
 -------------

 ------------------------------------------------------
 Input file generated by CHIRIPA (05-May-2021 14:53:18)
 ------------------------------------------------------
 Symbolic Z-matrix:
 Charge =  0 Multiplicity = 1

                         Standard orientation:
 ---------------------------------------------------------------------
 Center     Atomic      Atomic             Coordinates (Angstroms)
 Number     Number       Type             X           Y           Z
 ---------------------------------------------------------------------
      1          6           0        2.901538   -0.844811    0.727158
      2          6           0        1.416693   -0.479816    0.726866
      3          6           0        0.584415   -1.388434    1.632140
      4          1           0        3.015948   -1.889137    0.405852
      5          1           0        3.285161   -0.790322    1.755389
      6          1           0        1.036316   -0.533634   -0.301255
      7          1           0        1.305820    0.563821    1.048026
      8          1           0        0.936389   -1.327983    2.667061
      9          1           0        0.665354   -2.431674    1.310113
     10          1           0       -0.473883   -1.109807    1.616897
     11          6           0        3.746646    0.054586   -0.173178
     12          6           0        5.231491   -0.310408   -0.172886
     13          6           0        6.063769    0.598210   -1.078160
     14          1           0        3.363023    0.000097   -1.201410
     15          1           0        3.632236    1.098913    0.148127
     16          1           0        5.342364   -1.354046   -0.494046
     17          1           0        5.611868   -0.256590    0.855235
     18          1           0        5.982830    1.641449   -0.756134
     19          1           0        5.711796    0.537758   -2.113081
     20          1           0        7.122067    0.319582   -1.062918
     21          6           0       -1.828096    2.598505    0.512639
     22          6           0       -2.313776    1.689258    1.458104
     23          6           0       -2.742484    0.417786    1.065528
     24          6           0       -2.671277    0.087310   -0.286879
     25          6           0       -2.192343    0.971138   -1.252674
     26          6           0       -1.769034    2.237181   -0.837353
     27          1           0       -1.497162    3.584107    0.826436
     28          1           0       -2.360788    1.967138    2.507207
     29          1           0       -3.122860   -0.305605    1.776471
     30          1           0       -2.157528    0.665364   -2.291283
     31          1           0       -1.392308    2.941273   -1.573815
     32          7           0       -3.122273   -1.255867   -0.714521
     33          8           0       -3.049367   -1.522727   -1.912063
     34          8           0       -3.540130   -2.016356    0.155932
 ---------------------------------------------------------------------

 SCF Done:  E(RHF) =  -669.534997978     A.U. after   15 cycles
 E2 =    -0.2093405820D+01 EUMP2 =    -0.67162840379775D+03

 The electronic state is 1-A.
 Alpha  occ. eigenvalues --  -20.60818 -20.60807 -15.85865 -11.31246 -11.27824
 Alpha  occ. eigenvalues --  -11.27807 -11.27572 -11.26846 -11.26832 -11.21692
 Alpha  occ. eigenvalues --  -11.21582 -11.21492 -11.21385 -11.21193 -11.20909
 Alpha  occ. eigenvalues --   -1.59887  -1.39441  -1.19435  -1.08818  -1.08479
 Alpha  occ. eigenvalues --   -1.04843  -1.03556  -0.96012  -0.95648  -0.87029
 Alpha  occ. eigenvalues --   -0.86233  -0.82481  -0.79623  -0.78296  -0.77525
 Alpha  occ. eigenvalues --   -0.72084  -0.71216  -0.70542  -0.65111  -0.65083
 Alpha  occ. eigenvalues --   -0.64835  -0.62189  -0.60954  -0.59434  -0.57687
 Alpha  occ. eigenvalues --   -0.55336  -0.55291  -0.53371  -0.52930  -0.52555
 Alpha  occ. eigenvalues --   -0.52263  -0.49945  -0.48845  -0.48839  -0.47956
 Alpha  occ. eigenvalues --   -0.46663  -0.45835  -0.45769  -0.44843  -0.43830
 Alpha  occ. eigenvalues --   -0.37374  -0.36366
 Alpha virt. eigenvalues --    0.04989   0.11133   0.16492   0.21321   0.22785
 Alpha virt. eigenvalues --    0.24209   0.26563   0.27067   0.27356   0.27885
 Alpha virt. eigenvalues --    0.28370   0.30664   0.31361   0.31659   0.31746

 Mulliken charges:
               1
     1  C   -0.298501
     2  C   -0.298390
     3  C   -0.480840
     4  H    0.152051
     5  H    0.148466
     6  H    0.152067
     7  H    0.147526
     8  H    0.151628
     9  H    0.160232
    10  H    0.162271
    11  C   -0.297666
    12  C   -0.299658
    13  C   -0.475631
    14  H    0.149403
    15  H    0.146368
    16  H    0.153504
    17  H    0.151712
    18  H    0.153611
    19  H    0.155217
    20  H    0.160820
    21  C   -0.170835
    22  C   -0.215546
    23  C   -0.177932
    24  C    0.164323
    25  C   -0.171227
    26  C   -0.216874
    27  H    0.225938
    28  H    0.224136
    29  H    0.276489
    30  H    0.275799
    31  H    0.223912
    32  N    0.488361
    33  O   -0.460438
    34  O   -0.460296
 Sum of Mulliken charges =  -0.00000

 Dipole moment (field-independent basis, Debye):
    X=              1.5060    Y=              4.7358    Z=              1.4708  Tot=              5.1826
 Quadrupole moment (field-independent basis, Debye-Ang):
   XX=           -104.3963   YY=            -94.0545   ZZ=            -91.0312
   XY=            -12.7950   XZ=             -5.2753   YZ=             -1.5526

 Normal termination of Gaussian 16 at Wed May  5 23:40:35 2021.
