 Gaussian 16, Revision A.03,
 Gaussian 16:  EM64L-G16RevA.03 25-Dec-2016

 -------------
 #p 6-31g* mp2
 -------------

 ------------------------------------------------------
 Input file generated by CHIRIPA (05-May-2021 14:55:25)
 ------------------------------------------------------
 Symbolic Z-matrix:
 Charge =  0 Multiplicity = 1

                         Standard orientation:
 ---------------------------------------------------------------------
 Center     Atomic      Atomic             Coordinates (Angstroms)
 Number     Number       Type             X           Y           Z
 ---------------------------------------------------------------------
      1          6           0        3.874365    0.996001    1.416617
      2          6           0        3.427604   -0.231141    1.917664
      3          6           0        2.629670   -1.069950    1.133923
      4          6           0        2.295980   -0.648307   -0.152218
      5          6           0        2.725528    0.568451   -0.679739
      6          6           0        3.522522    1.391184    0.121797
      7          1           0        4.493855    1.641363    2.032357
      8          1           0        3.699292   -0.540627    2.922875
      9          1           0        2.270063   -2.025145    1.496832
     10          1           0        2.438265    0.849759   -1.685604
     11          1           0        3.868042    2.343655   -0.269941
     12          7           0        1.451741   -1.527806   -0.991349
     13          8           0        1.171632   -1.133373   -2.121215
     14          8           0        1.086120   -2.594939   -0.503304
     15          6           0       -2.670218    1.260968    0.077583
     16          6           0       -1.509007    1.267219   -0.917171
     17          6           0       -0.624291    2.507251   -0.785285
     18          1           0       -3.277630    2.164097   -0.071930
     19          1           0       -2.269248    1.319508    1.098951
     20          1           0       -1.911993    1.207288   -1.936301
     21          1           0       -0.904398    0.363875   -0.765401
     22          1           0       -0.194865    2.568966    0.219894
     23          1           0       -1.208184    3.417173   -0.957659
     24          1           0        0.199460    2.491175   -1.505727
     25          6           0       -3.563691    0.027621   -0.041950
     26          6           0       -4.724903    0.021369    0.952803
     27          6           0       -5.609618   -1.218662    0.820917
     28          1           0       -3.964661   -0.030920   -1.063318
     29          1           0       -2.956280   -0.875508    0.107562
     30          1           0       -5.329512    0.924714    0.801034
     31          1           0       -4.321917    0.081299    1.971934
     32          1           0       -5.025726   -2.128585    0.993291
     33          1           0       -6.039045   -1.280379   -0.184261
     34          1           0       -6.433369   -1.202586    1.541359
 ---------------------------------------------------------------------

 SCF Done:  E(RHF) =  -669.535457941     A.U. after   15 cycles
 E2 =    -0.2092904131D+01 EUMP2 =    -0.67162836207222D+03

 The electronic state is 1-A.
 Alpha  occ. eigenvalues --  -20.60892 -20.60879 -15.85911 -11.31242 -11.27816
 Alpha  occ. eigenvalues --  -11.27811 -11.27549 -11.26817 -11.26804 -11.21195
 Alpha  occ. eigenvalues --  -11.21109 -11.20978 -11.20933 -11.20838 -11.20651
 Alpha  occ. eigenvalues --   -1.59956  -1.39509  -1.19418  -1.08821  -1.07994
 Alpha  occ. eigenvalues --   -1.04814  -1.03148  -0.95683  -0.95607  -0.86650
 Alpha  occ. eigenvalues --   -0.86211  -0.82494  -0.79194  -0.77785  -0.77543
 Alpha  occ. eigenvalues --   -0.72140  -0.71296  -0.70530  -0.65071  -0.64819
 Alpha  occ. eigenvalues --   -0.64624  -0.62177  -0.60551  -0.58993  -0.57222
 Alpha  occ. eigenvalues --   -0.55318  -0.54937  -0.53137  -0.52921  -0.52320
 Alpha  occ. eigenvalues --   -0.52037  -0.49562  -0.48905  -0.48899  -0.47525
 Alpha  occ. eigenvalues --   -0.46256  -0.45408  -0.45277  -0.44725  -0.43400
 Alpha  occ. eigenvalues --   -0.37394  -0.36387
 Alpha virt. eigenvalues --    0.04962   0.11197   0.16452   0.21024   0.23177
 Alpha virt. eigenvalues --    0.24312   0.26567   0.27020   0.27693   0.28035
 Alpha virt. eigenvalues --    0.28833   0.30619   0.31388   0.31713   0.32268

 Mulliken charges:
               1
     1  C   -0.170743
     2  C   -0.218745
     3  C   -0.171285
     4  C    0.155542
     5  C   -0.167788
     6  C   -0.218720
     7  H    0.225911
     8  H    0.223560
     9  H    0.275524
    10  H    0.276056
    11  H    0.224062
    12  N    0.487847
    13  O   -0.457288
    14  O   -0.459526
    15  C   -0.298706
    16  C   -0.298887
    17  C   -0.475947
    18  H    0.147185
    19  H    0.145848
    20  H    0.156638
    21  H    0.156246
    22  H    0.152332
    23  H    0.153839
    24  H    0.153394
    25  C   -0.299412
    26  C   -0.299196
    27  C   -0.475701
    28  H    0.151182
    29  H    0.156056
    30  H    0.150032
    31  H    0.149651
    32  H    0.157260
    33  H    0.155691
    34  H    0.158086
 Sum of Mulliken charges =  -0.00000

 Dipole moment (field-independent basis, Debye):
    X=              3.0422    Y=              2.9790    Z=              2.8853  Tot=              5.1434
 Quadrupole moment (field-independent basis, Debye-Ang):
   XX=            -82.1331   YY=            -97.6978   ZZ=            -92.7290
   XY=              4.8280   XZ=              7.0338   YZ=             -5.5495

 Normal termination of Gaussian 16 at Wed May  5 17:40:19 2021.
