 Gaussian 16, Revision A.03,
 Gaussian 16:  EM64L-G16RevA.03 25-Dec-2016

 -------------
 #p 6-31g* mp2
 -------------

 ------------------------------------------------------
 Input file generated by CHIRIPA (05-May-2021 14:53:13)
 ------------------------------------------------------
 Symbolic Z-matrix:
 Charge =  0 Multiplicity = 1

                         Standard orientation:
 ---------------------------------------------------------------------
 Center     Atomic      Atomic             Coordinates (Angstroms)
 Number     Number       Type             X           Y           Z
 ---------------------------------------------------------------------
      1          6           0       -3.939277   -0.999976    0.398638
      2          6           0       -2.416450   -0.968638    0.532810
      3          6           0       -1.862687   -2.188636    1.269523
      4          1           0       -4.388023   -1.060540    1.399589
      5          1           0       -4.234847   -1.915458   -0.132329
      6          1           0       -2.123748   -0.052809    1.062147
      7          1           0       -1.971283   -0.907948   -0.468569
      8          1           0       -2.126026   -3.110341    0.740644
      9          1           0       -2.279357   -2.250343    2.280057
     10          1           0       -0.772340   -2.145751    1.354168
     11          6           0       -4.507832    0.213006   -0.335629
     12          6           0       -6.030658    0.181668   -0.469801
     13          6           0       -6.584422    1.401666   -1.206514
     14          1           0       -4.212261    1.128488    0.195338
     15          1           0       -4.059086    0.273570   -1.336581
     16          1           0       -6.475826    0.120978    0.531577
     17          1           0       -6.323361   -0.734161   -0.999139
     18          1           0       -6.167752    1.463373   -2.217048
     19          1           0       -6.321083    2.323371   -0.677635
     20          1           0       -7.674768    1.358781   -1.291159
     21          6           0        1.596203    1.869369    0.987549
     22          6           0        1.259150    0.535867    0.733208
     23          6           0        2.194982   -0.338511    0.172646
     24          6           0        3.464335    0.156405   -0.122465
     25          6           0        3.830341    1.479636    0.119178
     26          6           0        2.878463    2.336174    0.680264
     27          1           0        0.862993    2.541677    1.423210
     28          1           0        0.264088    0.170582    0.970828
     29          1           0        1.960686   -1.375602   -0.034636
     30          1           0        4.830253    1.814703   -0.128458
     31          1           0        3.143015    3.371292    0.876700
     32          7           0        4.463553   -0.759815   -0.716184
     33          8           0        5.575112   -0.299253   -0.967090
     34          8           0        4.116260   -1.921164   -0.919392
 ---------------------------------------------------------------------

 SCF Done:  E(RHF) =  -669.535184063     A.U. after   15 cycles
 E2 =    -0.2091791112D+01 EUMP2 =    -0.67162697517578D+03

 The electronic state is 1-A.
 Alpha  occ. eigenvalues --  -20.60708 -20.60703 -15.85760 -11.31111 -11.27676
 Alpha  occ. eigenvalues --  -11.27659 -11.27403 -11.26697 -11.26600 -11.22720
 Alpha  occ. eigenvalues --  -11.22195 -11.22141 -11.22102 -11.22041 -11.21530
 Alpha  occ. eigenvalues --   -1.59784  -1.39338  -1.19275  -1.09216  -1.08673
 Alpha  occ. eigenvalues --   -1.04685  -1.04318  -0.96746  -0.95514  -0.87753
 Alpha  occ. eigenvalues --   -0.86077  -0.82350  -0.80425  -0.79005  -0.77393
 Alpha  occ. eigenvalues --   -0.71979  -0.71106  -0.70392  -0.65848  -0.64927
 Alpha  occ. eigenvalues --   -0.64713  -0.62147  -0.61684  -0.60079  -0.58345
 Alpha  occ. eigenvalues --   -0.55996  -0.55170  -0.53462  -0.53187  -0.53002
 Alpha  occ. eigenvalues --   -0.52715  -0.50661  -0.48782  -0.48735  -0.48669
 Alpha  occ. eigenvalues --   -0.47438  -0.46529  -0.46434  -0.44747  -0.44565
 Alpha  occ. eigenvalues --   -0.37257  -0.36273
 Alpha virt. eigenvalues --    0.05128   0.11368   0.16607   0.19603   0.22441
 Alpha virt. eigenvalues --    0.23758   0.25513   0.25819   0.26528   0.27853
 Alpha virt. eigenvalues --    0.28927   0.30464   0.30692   0.31158   0.31972

 Mulliken charges:
               1
     1  C   -0.297328
     2  C   -0.307436
     3  C   -0.479219
     4  H    0.151752
     5  H    0.153728
     6  H    0.142679
     7  H    0.155927
     8  H    0.163184
     9  H    0.159958
    10  H    0.154521
    11  C   -0.298959
    12  C   -0.300369
    13  C   -0.476102
    14  H    0.147497
    15  H    0.151482
    16  H    0.152671
    17  H    0.153819
    18  H    0.156268
    19  H    0.154711
    20  H    0.162179
    21  C   -0.173731
    22  C   -0.228284
    23  C   -0.176032
    24  C    0.159213
    25  C   -0.171504
    26  C   -0.218355
    27  H    0.225224
    28  H    0.242100
    29  H    0.275463
    30  H    0.275249
    31  H    0.222981
    32  N    0.488090
    33  O   -0.460783
    34  O   -0.460595
 Sum of Mulliken charges =  -0.00000

 Dipole moment (field-independent basis, Debye):
    X=             -3.8000    Y=              3.1461    Z=              2.0584  Tot=              5.3456
 Quadrupole moment (field-independent basis, Debye-Ang):
   XX=           -116.7585   YY=            -91.4391   ZZ=            -95.5674
   XY=             14.2855   XZ=              7.3446   YZ=              0.6908

 Normal termination of Gaussian 16 at Thu May  6 02:36:06 2021.
