 Gaussian 16, Revision A.03,
 Gaussian 16:  EM64L-G16RevA.03 25-Dec-2016

 -------------
 #p 6-31g* mp2
 -------------

 ------------------------------------------------------
 Input file generated by CHIRIPA (05-May-2021 14:55:24)
 ------------------------------------------------------
 Symbolic Z-matrix:
 Charge =  0 Multiplicity = 1

                         Standard orientation:
 ---------------------------------------------------------------------
 Center     Atomic      Atomic             Coordinates (Angstroms)
 Number     Number       Type             X           Y           Z
 ---------------------------------------------------------------------
      1          6           0       -4.988835   -1.288998    0.173514
      2          6           0       -3.915036   -1.804802   -0.559577
      3          6           0       -2.800741   -1.009100   -0.841984
      4          6           0       -2.793528    0.303920   -0.373779
      5          6           0       -3.847869    0.846675    0.359073
      6          6           0       -4.951889    0.032764    0.629695
      7          1           0       -5.850455   -1.914190    0.388318
      8          1           0       -3.940991   -2.830941   -0.915120
      9          1           0       -1.955755   -1.382965   -1.407352
     10          1           0       -3.793152    1.873366    0.700144
     11          1           0       -5.784381    0.436013    1.199251
     12          7           0       -1.619313    1.155933   -0.666513
     13          8           0       -1.637309    2.309509   -0.242751
     14          8           0       -0.703200    0.654030   -1.314176
     15          6           0        4.365819   -0.556743    0.006181
     16          6           0        5.639447    0.275896   -0.144045
     17          6           0        6.715197   -0.432635   -0.967780
     18          1           0        4.616674   -1.517262    0.476735
     19          1           0        3.969720   -0.791456   -0.991522
     20          1           0        6.032263    0.510138    0.853674
     21          1           0        5.385500    1.234623   -0.614120
     22          1           0        6.346750   -0.652320   -1.975047
     23          1           0        6.997188   -1.380920   -0.498913
     24          1           0        7.616944    0.180329   -1.062571
     25          6           0        3.281037    0.138188    0.827184
     26          6           0        2.007409   -0.694452    0.977409
     27          6           0        0.931659    0.014079    1.801145
     28          1           0        3.677136    0.372900    1.824886
     29          1           0        3.030181    1.098707    0.356630
     30          1           0        2.261355   -1.653178    1.447485
     31          1           0        1.614593   -0.928694   -0.020310
     32          1           0        0.649668    0.962365    1.332277
     33          1           0        1.300105    0.233765    2.808412
     34          1           0        0.029911   -0.598885    1.895936
 ---------------------------------------------------------------------

 SCF Done:  E(RHF) =  -669.536561105     A.U. after   15 cycles
 E2 =    -0.2092226766D+01 EUMP2 =    -0.67162878787132D+03

 The electronic state is 1-A.
 Alpha  occ. eigenvalues --  -20.60972 -20.60966 -15.85974 -11.31285 -11.27846
 Alpha  occ. eigenvalues --  -11.27838 -11.27580 -11.26847 -11.26837 -11.20925
 Alpha  occ. eigenvalues --  -11.20605 -11.20594 -11.20519 -11.20409 -11.20125
 Alpha  occ. eigenvalues --   -1.60016  -1.39573  -1.19449  -1.08856  -1.07579
 Alpha  occ. eigenvalues --   -1.04842  -1.02713  -0.95704  -0.95188  -0.86244
 Alpha  occ. eigenvalues --   -0.86214  -0.82541  -0.78801  -0.77601  -0.77381
 Alpha  occ. eigenvalues --   -0.72210  -0.71345  -0.70559  -0.65107  -0.64847
 Alpha  occ. eigenvalues --   -0.64181  -0.62190  -0.60071  -0.58582  -0.56809
 Alpha  occ. eigenvalues --   -0.55352  -0.54449  -0.53172  -0.52935  -0.51925
 Alpha  occ. eigenvalues --   -0.51612  -0.49178  -0.48974  -0.48889  -0.47113
 Alpha  occ. eigenvalues --   -0.45811  -0.45051  -0.44922  -0.44731  -0.42986
 Alpha  occ. eigenvalues --   -0.37418  -0.36440
 Alpha virt. eigenvalues --    0.04887   0.11202   0.16355   0.21297   0.23732
 Alpha virt. eigenvalues --    0.25013   0.27134   0.27482   0.28145   0.28501
 Alpha virt. eigenvalues --    0.28640   0.30876   0.31986   0.32333   0.32581

 Mulliken charges:
               1
     1  C   -0.170480
     2  C   -0.218679
     3  C   -0.170969
     4  C    0.159843
     5  C   -0.170672
     6  C   -0.218649
     7  H    0.225995
     8  H    0.223857
     9  H    0.275787
    10  H    0.275972
    11  H    0.223849
    12  N    0.489645
    13  O   -0.459681
    14  O   -0.460216
    15  C   -0.298227
    16  C   -0.299426
    17  C   -0.475303
    18  H    0.145685
    19  H    0.151305
    20  H    0.150119
    21  H    0.154006
    22  H    0.155036
    23  H    0.153163
    24  H    0.158559
    25  C   -0.299235
    26  C   -0.299266
    27  C   -0.483680
    28  H    0.145182
    29  H    0.158771
    30  H    0.143666
    31  H    0.162101
    32  H    0.172969
    33  H    0.150336
    34  H    0.148638
 Sum of Mulliken charges =  -0.00000

 Dipole moment (field-independent basis, Debye):
    X=             -4.3501    Y=             -2.8611    Z=              0.8768  Tot=              5.2800
 Quadrupole moment (field-independent basis, Debye-Ang):
   XX=            -72.4354   YY=            -93.9838   ZZ=            -94.9998
   XY=              5.9389   XZ=             -2.0811   YZ=              3.2181

 Normal termination of Gaussian 16 at Thu May  6 03:10:21 2021.
