 Gaussian 16, Revision A.03,
 Gaussian 16:  EM64L-G16RevA.03 25-Dec-2016

 -------------
 #p 6-31g* mp2
 -------------

 ------------------------------------------------------
 Input file generated by CHIRIPA (05-May-2021 14:51:09)
 ------------------------------------------------------
 Symbolic Z-matrix:
 Charge =  0 Multiplicity = 1

                         Standard orientation:
 ---------------------------------------------------------------------
 Center     Atomic      Atomic             Coordinates (Angstroms)
 Number     Number       Type             X           Y           Z
 ---------------------------------------------------------------------
      1          6           0        4.295665    0.704976   -0.265952
      2          6           0        5.625831    1.038470    0.410380
      3          6           0        6.120326    2.447005    0.079774
      4          1           0        4.408308    0.809675   -1.353746
      5          1           0        3.540720    1.441422    0.042430
      6          1           0        6.377695    0.300802    0.101896
      7          1           0        5.510061    0.932780    1.496678
      8          1           0        5.391304    3.197030    0.403177
      9          1           0        6.263867    2.561461   -0.999529
     10          1           0        7.072548    2.664413    0.573603
     11          6           0        3.788309   -0.699781    0.054942
     12          6           0        2.458143   -1.033276   -0.621391
     13          6           0        1.963648   -2.441810   -0.290785
     14          1           0        4.543254   -1.436228   -0.253441
     15          1           0        3.675666   -0.804480    1.142735
     16          1           0        2.573912   -0.927585   -1.707688
     17          1           0        1.706279   -0.295607   -0.312907
     18          1           0        1.820107   -2.556266    0.788519
     19          1           0        2.692670   -3.191835   -0.614188
     20          1           0        1.011425   -2.659218   -0.784613
     21          6           0       -4.639024    0.270913   -0.284586
     22          6           0       -5.286505    1.489720    0.373642
     23          6           0       -6.479508    2.025406   -0.418556
     24          1           0       -4.316261    0.538710   -1.299994
     25          1           0       -5.392588   -0.521160   -0.394834
     26          1           0       -4.531600    2.278759    0.483876
     27          1           0       -5.607591    1.219044    1.387670
     28          1           0       -7.252914    1.256814   -0.517103
     29          1           0       -6.170810    2.322551   -1.426033
     30          1           0       -6.927206    2.896539    0.069864
     31          6           0       -3.444950   -0.276108    0.495597
     32          6           0       -2.797469   -1.494914   -0.162631
     33          6           0       -1.604466   -2.030601    0.629567
     34          1           0       -2.691386    0.515965    0.605844
     35          1           0       -3.767712   -0.543906    1.511004
     36          1           0       -2.476382   -1.224238   -1.176661
     37          1           0       -3.552373   -2.283954   -0.272864
     38          1           0       -1.913164   -2.327746    1.637044
     39          1           0       -0.831059   -1.262010    0.728114
     40          1           0       -1.156766   -2.901733    0.141146
 ---------------------------------------------------------------------

 SCF Done:  E(RHF) =  -470.732371880     A.U. after   11 cycles
 E2 =    -0.1582888810D+01 EUMP2 =    -0.47231526069056D+03

 The electronic state is 1-A.
 Alpha  occ. eigenvalues --  -11.21601 -11.21596 -11.21581 -11.21581 -11.21401
 Alpha  occ. eigenvalues --  -11.21392 -11.21341 -11.21332 -11.21070 -11.21069
 Alpha  occ. eigenvalues --  -11.20993 -11.20931  -1.08431  -1.08405  -1.03560
 Alpha  occ. eigenvalues --   -1.03463  -0.96059  -0.95860  -0.87110  -0.86844
 Alpha  occ. eigenvalues --   -0.79644  -0.79508  -0.78237  -0.78228  -0.65095
 Alpha  occ. eigenvalues --   -0.65010  -0.61060  -0.60794  -0.59612  -0.59105
 Alpha  occ. eigenvalues --   -0.57669  -0.57471  -0.55408  -0.55075  -0.53010
 Alpha  occ. eigenvalues --   -0.52422  -0.52414  -0.52180  -0.49975  -0.49776
 Alpha  occ. eigenvalues --   -0.47969  -0.47809  -0.46608  -0.46603  -0.45795
 Alpha  occ. eigenvalues --   -0.45753  -0.45715  -0.45678  -0.43956  -0.43529
 Alpha virt. eigenvalues --    0.21528   0.23063   0.23530   0.25056   0.26187
 Alpha virt. eigenvalues --    0.26785   0.27105   0.27368   0.27662   0.28998
 Alpha virt. eigenvalues --    0.29484   0.31150   0.31468   0.32053   0.32308

 Mulliken charges:
               1
     1  C   -0.298222
     2  C   -0.299633
     3  C   -0.475687
     4  H    0.149561
     5  H    0.149200
     6  H    0.151963
     7  H    0.151969
     8  H    0.155101
     9  H    0.155139
    10  H    0.160253
    11  C   -0.298316
    12  C   -0.301547
    13  C   -0.477073
    14  H    0.149676
    15  H    0.149728
    16  H    0.151649
    17  H    0.151725
    18  H    0.155858
    19  H    0.153612
    20  H    0.164682
    21  C   -0.298264
    22  C   -0.299633
    23  C   -0.475699
    24  H    0.149656
    25  H    0.149546
    26  H    0.151843
    27  H    0.151910
    28  H    0.155190
    29  H    0.155189
    30  H    0.160229
    31  C   -0.298345
    32  C   -0.300561
    33  C   -0.478729
    34  H    0.149185
    35  H    0.149656
    36  H    0.151701
    37  H    0.151801
    38  H    0.154426
    39  H    0.158326
    40  H    0.162935
 Sum of Mulliken charges =  -0.00000

 Dipole moment (field-independent basis, Debye):
    X=             -0.0065    Y=             -0.0203    Z=              0.0056  Tot=              0.0220
 Quadrupole moment (field-independent basis, Debye-Ang):
   XX=            -85.3105   YY=            -85.4938   ZZ=            -84.0834
   XY=              0.1879   XZ=             -1.0633   YZ=              0.3362

 Normal termination of Gaussian 16 at Wed May  5 19:44:15 2021.
