 Gaussian 16, Revision A.03,
 Gaussian 16:  EM64L-G16RevA.03 25-Dec-2016

 -------------
 #p 6-31g* mp2
 -------------

 ------------------------------------------------------
 Input file generated by CHIRIPA (05-May-2021 14:51:09)
 ------------------------------------------------------
 Symbolic Z-matrix:
 Charge =  0 Multiplicity = 1

                         Standard orientation:
 ---------------------------------------------------------------------
 Center     Atomic      Atomic             Coordinates (Angstroms)
 Number     Number       Type             X           Y           Z
 ---------------------------------------------------------------------
      1          6           0        2.456161   -0.367889    0.497588
      2          6           0        2.340622   -1.574469    1.429683
      3          6           0        0.896523   -1.873466    1.833382
      4          1           0        2.022414    0.512143    0.991909
      5          1           0        1.852944   -0.549723   -0.402668
      6          1           0        2.944983   -1.390999    2.327292
      7          1           0        2.774867   -2.451688    0.933162
      8          1           0        0.284880   -2.082413    0.949733
      9          1           0        0.455963   -1.015697    2.351784
     10          1           0        0.837077   -2.739700    2.499689
     11          6           0        3.893741   -0.056411    0.085189
     12          6           0        4.009280    1.150169   -0.846906
     13          6           0        5.453379    1.449166   -1.250605
     14          1           0        4.496957    0.125423    0.985445
     15          1           0        4.327488   -0.936442   -0.409132
     16          1           0        3.575035    2.027388   -0.350385
     17          1           0        3.404918    0.966699   -1.744515
     18          1           0        5.893939    0.591397   -1.769007
     19          1           0        6.065022    1.658113   -0.366956
     20          1           0        5.512825    2.315400   -1.916911
     21          6           0       -2.884064    0.905766   -0.158295
     22          6           0       -3.886960    1.873360    0.470947
     23          6           0       -3.290205    3.256817    0.731193
     24          1           0       -2.011068    0.811798    0.502001
     25          1           0       -2.517365    1.331481   -1.102591
     26          1           0       -4.252698    1.445314    1.413088
     27          1           0       -4.757756    1.964888   -0.190832
     28          1           0       -2.941798    3.708108   -0.203446
     29          1           0       -2.433871    3.185582    1.409586
     30          1           0       -4.024244    3.932487    1.181210
     31          6           0       -3.465837   -0.481466   -0.424481
     32          6           0       -2.462942   -1.449061   -1.053725
     33          6           0       -3.059697   -2.832516   -1.313970
     34          1           0       -3.832537   -0.907181    0.519814
     35          1           0       -4.338834   -0.387498   -1.084778
     36          1           0       -1.592146   -1.540588   -0.391945
     37          1           0       -2.097204   -1.021014   -1.995866
     38          1           0       -3.916031   -2.761282   -1.992364
     39          1           0       -3.408104   -3.283808   -0.379331
     40          1           0       -2.325658   -3.508187   -1.763988
 ---------------------------------------------------------------------

 SCF Done:  E(RHF) =  -470.733380605     A.U. after   11 cycles
 E2 =    -0.1582769276D+01 EUMP2 =    -0.47231614988139D+03

 The electronic state is 1-A.
 Alpha  occ. eigenvalues --  -11.21635 -11.21601 -11.21576 -11.21560 -11.21416
 Alpha  occ. eigenvalues --  -11.21368 -11.21356 -11.21308 -11.21126 -11.21071
 Alpha  occ. eigenvalues --  -11.21057 -11.21056  -1.08447  -1.08397  -1.03557
 Alpha  occ. eigenvalues --   -1.03502  -0.96006  -0.95953  -0.87028  -0.86966
 Alpha  occ. eigenvalues --   -0.79654  -0.79537  -0.78283  -0.78181  -0.65102
 Alpha  occ. eigenvalues --   -0.65010  -0.61042  -0.60830  -0.59382  -0.59314
 Alpha  occ. eigenvalues --   -0.57630  -0.57551  -0.55337  -0.55201  -0.52697
 Alpha  occ. eigenvalues --   -0.52657  -0.52453  -0.52367  -0.50030  -0.49835
 Alpha  occ. eigenvalues --   -0.48061  -0.47808  -0.46782  -0.46458  -0.45929
 Alpha  occ. eigenvalues --   -0.45741  -0.45705  -0.45464  -0.43804  -0.43757
 Alpha virt. eigenvalues --    0.21211   0.23133   0.23706   0.24444   0.25996
 Alpha virt. eigenvalues --    0.26504   0.27077   0.27779   0.27943   0.29546
 Alpha virt. eigenvalues --    0.29990   0.31606   0.31817   0.31869   0.32041

 Mulliken charges:
               1
     1  C   -0.298766
     2  C   -0.299271
     3  C   -0.483168
     4  H    0.149499
     5  H    0.150363
     6  H    0.152074
     7  H    0.152119
     8  H    0.162236
     9  H    0.154665
    10  H    0.160769
    11  C   -0.298336
    12  C   -0.299682
    13  C   -0.475727
    14  H    0.149526
    15  H    0.149667
    16  H    0.152076
    17  H    0.152100
    18  H    0.155154
    19  H    0.155160
    20  H    0.160294
    21  C   -0.298943
    22  C   -0.299687
    23  C   -0.475590
    24  H    0.150669
    25  H    0.149358
    26  H    0.151923
    27  H    0.151845
    28  H    0.155188
    29  H    0.154915
    30  H    0.160138
    31  C   -0.297434
    32  C   -0.308916
    33  C   -0.475229
    34  H    0.149690
    35  H    0.149437
    36  H    0.160174
    37  H    0.151437
    38  H    0.155222
    39  H    0.155451
    40  H    0.159601
 Sum of Mulliken charges =  -0.00000

 Dipole moment (field-independent basis, Debye):
    X=              0.0187    Y=             -0.0067    Z=              0.0068  Tot=              0.0210
 Quadrupole moment (field-independent basis, Debye-Ang):
   XX=            -85.7935   YY=            -85.5405   ZZ=            -83.4807
   XY=             -0.6726   XZ=              0.6336   YZ=              0.0638

 Normal termination of Gaussian 16 at Wed May  5 22:57:11 2021.
