 Gaussian 16, Revision A.03,
 Gaussian 16:  EM64L-G16RevA.03 25-Dec-2016

 -------------
 #p 6-31g* mp2
 -------------

 ------------------------------------------------------
 Input file generated by CHIRIPA (05-May-2021 14:51:14)
 ------------------------------------------------------
 Symbolic Z-matrix:
 Charge =  0 Multiplicity = 1

                         Standard orientation:
 ---------------------------------------------------------------------
 Center     Atomic      Atomic             Coordinates (Angstroms)
 Number     Number       Type             X           Y           Z
 ---------------------------------------------------------------------
      1          6           0        3.756926    0.055291   -0.045775
      2          6           0        3.354827   -1.327125   -0.560778
      3          6           0        4.479349   -2.355309   -0.433963
      4          1           0        4.638782    0.403982   -0.600473
      5          1           0        4.062226   -0.027650    1.006512
      6          1           0        3.049058   -1.241366   -1.611381
      7          1           0        2.473710   -1.672484   -0.004921
      8          1           0        4.780016   -2.470282    0.612450
      9          1           0        5.358633   -2.036715   -1.003137
     10          1           0        4.170346   -3.336397   -0.807921
     11          6           0        2.643236    1.094039   -0.165876
     12          6           0        3.045335    2.476455    0.349127
     13          6           0        1.920813    3.504639    0.222312
     14          1           0        2.337936    1.176979   -1.218163
     15          1           0        1.761380    0.745347    0.388822
     16          1           0        3.926452    2.821813   -0.206730
     17          1           0        3.351104    2.390696    1.399730
     18          1           0        1.041530    3.186044    0.791485
     19          1           0        1.620146    3.619611   -0.824102
     20          1           0        2.229817    4.485726    0.596270
     21          6           0       -2.717941   -0.891943    0.606133
     22          6           0       -1.487113   -1.517477   -0.050947
     23          6           0       -0.532021   -2.148154    0.962877
     24          1           0       -2.393025   -0.130803    1.328657
     25          1           0       -3.249251   -1.662594    1.181634
     26          1           0       -0.959046   -0.746189   -0.626166
     27          1           0       -1.815002   -2.277082   -0.772130
     28          1           0       -1.037471   -2.936999    1.529311
     29          1           0       -0.176650   -1.397408    1.676105
     30          1           0        0.340827   -2.589343    0.471606
     31          6           0       -3.682221   -0.257387   -0.394482
     32          6           0       -4.913049    0.368147    0.262599
     33          6           0       -5.868141    0.998825   -0.751226
     34          1           0       -3.150912    0.513264   -0.969983
     35          1           0       -4.007137   -1.018526   -1.117005
     36          1           0       -4.585160    1.127752    0.983781
     37          1           0       -5.441117   -0.403141    0.837817
     38          1           0       -6.223512    0.248078   -1.464453
     39          1           0       -5.362692    1.787669   -1.317659
     40          1           0       -6.740990    1.440014   -0.259954
 ---------------------------------------------------------------------

 SCF Done:  E(RHF) =  -470.733247840     A.U. after   11 cycles
 E2 =    -0.1583021194D+01 EUMP2 =    -0.47231626903377D+03

 The electronic state is 1-A.
 Alpha  occ. eigenvalues --  -11.21622 -11.21605 -11.21600 -11.21542 -11.21410
 Alpha  occ. eigenvalues --  -11.21409 -11.21349 -11.21345 -11.21106 -11.21104
 Alpha  occ. eigenvalues --  -11.21067 -11.21051  -1.08447  -1.08418  -1.03554
 Alpha  occ. eigenvalues --   -1.03515  -0.95997  -0.95981  -0.87033  -0.86980
 Alpha  occ. eigenvalues --   -0.79647  -0.79550  -0.78251  -0.78239  -0.65129
 Alpha  occ. eigenvalues --   -0.65005  -0.60977  -0.60914  -0.59466  -0.59253
 Alpha  occ. eigenvalues --   -0.57654  -0.57541  -0.55308  -0.55247  -0.52755
 Alpha  occ. eigenvalues --   -0.52648  -0.52452  -0.52366  -0.49950  -0.49910
 Alpha  occ. eigenvalues --   -0.48024  -0.47807  -0.46664  -0.46575  -0.45826
 Alpha  occ. eigenvalues --   -0.45764  -0.45688  -0.45684  -0.43800  -0.43736
 Alpha virt. eigenvalues --    0.20640   0.23228   0.23773   0.24242   0.26329
 Alpha virt. eigenvalues --    0.26690   0.27062   0.27619   0.27680   0.29433
 Alpha virt. eigenvalues --    0.30121   0.31559   0.31623   0.31860   0.32001

 Mulliken charges:
               1
     1  C   -0.297502
     2  C   -0.308482
     3  C   -0.475293
     4  H    0.149573
     5  H    0.149427
     6  H    0.151358
     7  H    0.161159
     8  H    0.155188
     9  H    0.155096
    10  H    0.159830
    11  C   -0.300780
    12  C   -0.299646
    13  C   -0.475628
    14  H    0.149314
    15  H    0.151746
    16  H    0.152185
    17  H    0.152008
    18  H    0.154554
    19  H    0.155123
    20  H    0.160444
    21  C   -0.298279
    22  C   -0.301082
    23  C   -0.480679
    24  H    0.149235
    25  H    0.149525
    26  H    0.154172
    27  H    0.152033
    28  H    0.155431
    29  H    0.154323
    30  H    0.165341
    31  C   -0.298372
    32  C   -0.299649
    33  C   -0.475727
    34  H    0.149882
    35  H    0.149650
    36  H    0.151945
    37  H    0.151872
    38  H    0.155149
    39  H    0.155305
    40  H    0.160251
 Sum of Mulliken charges =  -0.00000

 Dipole moment (field-independent basis, Debye):
    X=             -0.0102    Y=             -0.0095    Z=             -0.0022  Tot=              0.0142
 Quadrupole moment (field-independent basis, Debye-Ang):
   XX=            -85.6307   YY=            -84.8912   ZZ=            -84.2964
   XY=              1.5633   XZ=             -0.7186   YZ=              0.1596

 Normal termination of Gaussian 16 at Wed May  5 21:39:50 2021.
