 Gaussian 16, Revision A.03,
 Gaussian 16:  EM64L-G16RevA.03 25-Dec-2016

 -------------
 #p 6-31g* mp2
 -------------

 ------------------------------------------------------
 Input file generated by CHIRIPA (05-May-2021 14:55:20)
 ------------------------------------------------------
 Symbolic Z-matrix:
 Charge =  0 Multiplicity = 1

                         Standard orientation:
 ---------------------------------------------------------------------
 Center     Atomic      Atomic             Coordinates (Angstroms)
 Number     Number       Type             X           Y           Z
 ---------------------------------------------------------------------
      1          6           0       -2.036766    2.364197   -0.277659
      2          6           0       -1.268091    1.201147   -0.391568
      3          6           0       -1.878061   -0.056789   -0.382424
      4          6           0       -3.265223   -0.115070   -0.257224
      5          6           0       -4.058357    1.025513   -0.141905
      6          6           0       -3.426994    2.272829   -0.153410
      7          1           0       -1.554617    3.337266   -0.285679
      8          1           0       -0.188233    1.269075   -0.488192
      9          1           0       -1.307054   -0.973235   -0.468996
     10          1           0       -5.132822    0.925881   -0.046958
     11          1           0       -4.026480    3.174386   -0.064777
     12          7           0       -3.922294   -1.441169   -0.246294
     13          8           0       -5.146067   -1.465568   -0.134834
     14          8           0       -3.201093   -2.431056   -0.349393
     15          6           0        3.685867   -0.192085    1.005237
     16          6           0        2.176165    0.033814    0.917182
     17          6           0        1.480023   -0.088740    2.272969
     18          1           0        3.877154   -1.187646    1.428574
     19          1           0        4.117955    0.534400    1.707315
     20          1           0        1.747250   -0.691983    0.214426
     21          1           0        1.988450    1.028877    0.493827
     22          1           0        1.880458    0.645566    2.979402
     23          1           0        1.637889   -1.085071    2.698414
     24          1           0        0.401517    0.076404    2.186878
     25          6           0        4.395872   -0.072841   -0.342132
     26          6           0        5.905574   -0.298741   -0.254077
     27          6           0        6.601717   -0.176187   -1.609864
     28          1           0        3.963784   -0.799326   -1.044210
     29          1           0        4.204586    0.922719   -0.765469
     30          1           0        6.093290   -1.293804    0.169278
     31          1           0        6.334490    0.427057    0.448679
     32          1           0        6.443851    0.820145   -2.035309
     33          1           0        6.201281   -0.910493   -2.316297
     34          1           0        7.680223   -0.341330   -1.523773
 ---------------------------------------------------------------------

 SCF Done:  E(RHF) =  -669.535434002     A.U. after   15 cycles
 E2 =    -0.2092162252D+01 EUMP2 =    -0.67162759625351D+03

 The electronic state is 1-A.
 Alpha  occ. eigenvalues --  -20.60741 -20.60736 -15.85794 -11.31156 -11.27725
 Alpha  occ. eigenvalues --  -11.27710 -11.27451 -11.26743 -11.26661 -11.22561
 Alpha  occ. eigenvalues --  -11.22048 -11.22031 -11.21930 -11.21670 -11.21434
 Alpha  occ. eigenvalues --   -1.59816  -1.39370  -1.19326  -1.09065  -1.08718
 Alpha  occ. eigenvalues --   -1.04733  -1.04133  -0.96537  -0.95557  -0.87550
 Alpha  occ. eigenvalues --   -0.86122  -0.82393  -0.80256  -0.78886  -0.77422
 Alpha  occ. eigenvalues --   -0.72012  -0.71139  -0.70434  -0.65704  -0.64974
 Alpha  occ. eigenvalues --   -0.64729  -0.62128  -0.61525  -0.59890  -0.58158
 Alpha  occ. eigenvalues --   -0.55802  -0.55221  -0.53303  -0.53109  -0.52836
 Alpha  occ. eigenvalues --   -0.52795  -0.50470  -0.48789  -0.48768  -0.48507
 Alpha  occ. eigenvalues --   -0.47282  -0.46397  -0.46316  -0.44776  -0.44378
 Alpha  occ. eigenvalues --   -0.37306  -0.36306
 Alpha virt. eigenvalues --    0.05069   0.11304   0.16472   0.20154   0.22554
 Alpha virt. eigenvalues --    0.23868   0.25290   0.25737   0.27345   0.28010
 Alpha virt. eigenvalues --    0.28970   0.29886   0.31152   0.31436   0.31823

 Mulliken charges:
               1
     1  C   -0.172925
     2  C   -0.222760
     3  C   -0.175121
     4  C    0.158841
     5  C   -0.171153
     6  C   -0.218409
     7  H    0.225515
     8  H    0.234639
     9  H    0.276406
    10  H    0.275484
    11  H    0.223259
    12  N    0.488167
    13  O   -0.460576
    14  O   -0.460515
    15  C   -0.297222
    16  C   -0.305812
    17  C   -0.479863
    18  H    0.154103
    19  H    0.151478
    20  H    0.149740
    21  H    0.143635
    22  H    0.156723
    23  H    0.161007
    24  H    0.163555
    25  C   -0.299060
    26  C   -0.300193
    27  C   -0.476111
    28  H    0.150604
    29  H    0.147210
    30  H    0.153956
    31  H    0.152481
    32  H    0.154684
    33  H    0.156278
    34  H    0.161956
 Sum of Mulliken charges =  -0.00000

 Dipole moment (field-independent basis, Debye):
    X=              2.4728    Y=              4.6213    Z=              0.0240  Tot=              5.2414
 Quadrupole moment (field-independent basis, Debye-Ang):
   XX=           -105.7643   YY=            -94.3435   ZZ=            -96.1607
   XY=            -18.0535   XZ=             -0.2309   YZ=             -0.8136

 Normal termination of Gaussian 16 at Thu May  6 09:16:41 2021.
