 Gaussian 16, Revision A.03,
 Gaussian 16:  EM64L-G16RevA.03 25-Dec-2016

 -------------
 #p 6-31g* mp2
 -------------

 ------------------------------------------------------
 Input file generated by CHIRIPA (05-May-2021 14:57:22)
 ------------------------------------------------------
 Symbolic Z-matrix:
 Charge =  0 Multiplicity = 1

                         Standard orientation:
 ---------------------------------------------------------------------
 Center     Atomic      Atomic             Coordinates (Angstroms)
 Number     Number       Type             X           Y           Z
 ---------------------------------------------------------------------
      1          6           0        0.904698    1.451791   -1.011661
      2          6           0        1.955583    2.094006   -0.348546
      3          6           0        3.111319    1.388967    0.000372
      4          6           0        3.182887    0.036722   -0.330689
      5          6           0        2.152824   -0.631258   -0.991039
      6          6           0        1.006493    0.093603   -1.330230
      7          1           0        0.010548    2.007181   -1.278931
      8          1           0        1.879289    3.148704   -0.099878
      9          1           0        3.939843    1.861331    0.514024
     10          1           0        2.257970   -1.683560   -1.225607
     11          1           0        0.191930   -0.407750   -1.845183
     12          7           0        4.401435   -0.720163    0.033546
     13          8           0        4.439925   -1.910710   -0.269362
     14          8           0        5.294968   -0.108531    0.615045
     15          6           0       -0.869779   -0.015547    1.762913
     16          6           0       -1.335870   -1.259745    1.325593
     17          6           0       -2.505063   -1.352525    0.564719
     18          6           0       -3.186263   -0.175573    0.258061
     19          6           0       -2.747314    1.078761    0.679083
     20          6           0       -1.575743    1.147685    1.438834
     21          1           0        0.039401    0.047261    2.353542
     22          1           0       -0.789659   -2.164791    1.575775
     23          1           0       -2.888332   -2.302764    0.213198
     24          1           0       -3.313410    1.963417    0.413872
     25          1           0       -1.216123    2.115306    1.777104
     26          7           0       -4.425293   -0.261167   -0.546848
     27          8           0       -5.007191    0.790537   -0.803660
     28          8           0       -4.791087   -1.378338   -0.905681
 ---------------------------------------------------------------------

 SCF Done:  E(RHF) =  -868.336537390     A.U. after   16 cycles
 E2 =    -0.2603688982D+01 EUMP2 =    -0.87094022637173D+03

 The electronic state is 1-A.
 Alpha  occ. eigenvalues --  -20.61451 -20.61443 -20.61328 -20.61323 -15.86509
 Alpha  occ. eigenvalues --  -15.86385 -11.31935 -11.31766 -11.28527 -11.28484
 Alpha  occ. eigenvalues --  -11.28368 -11.28301 -11.28118 -11.27996 -11.27478
 Alpha  occ. eigenvalues --  -11.27405 -11.27354 -11.27220  -1.60531  -1.60409
 Alpha  occ. eigenvalues --   -1.40081  -1.39960  -1.20121  -1.19926  -1.09490
 Alpha  occ. eigenvalues --   -1.09274  -1.05516  -1.05332  -0.96282  -0.96146
 Alpha  occ. eigenvalues --   -0.86882  -0.86717  -0.83118  -0.82971  -0.78181
 Alpha  occ. eigenvalues --   -0.78032  -0.72712  -0.72593  -0.71871  -0.71746
 Alpha  occ. eigenvalues --   -0.71129  -0.71011  -0.65722  -0.65588  -0.65458
 Alpha  occ. eigenvalues --   -0.65314  -0.62846  -0.62673  -0.55915  -0.55810
 Alpha  occ. eigenvalues --   -0.54473  -0.53566  -0.53417  -0.53068  -0.49479
 Alpha  occ. eigenvalues --   -0.49472  -0.49356  -0.49352  -0.45474  -0.45363
 Alpha  occ. eigenvalues --   -0.38775  -0.37723  -0.36797  -0.36631
 Alpha virt. eigenvalues --    0.04331   0.04446   0.10303   0.10847   0.15778
 Alpha virt. eigenvalues --    0.16140   0.20341   0.21323   0.26048   0.26964
 Alpha virt. eigenvalues --    0.27659   0.28151   0.30233   0.30429   0.31830

 Mulliken charges:
               1
     1  C   -0.165934
     2  C   -0.225854
     3  C   -0.173540
     4  C    0.155916
     5  C   -0.176162
     6  C   -0.213886
     7  H    0.227418
     8  H    0.222236
     9  H    0.276034
    10  H    0.275605
    11  H    0.227632
    12  N    0.487826
    13  O   -0.459980
    14  O   -0.459812
    15  C   -0.161524
    16  C   -0.220524
    17  C   -0.175251
    18  C    0.156408
    19  C   -0.178343
    20  C   -0.220966
    21  H    0.231115
    22  H    0.227879
    23  H    0.277492
    24  H    0.275211
    25  H    0.221864
    26  N    0.487855
    27  O   -0.460180
    28  O   -0.458536
 Sum of Mulliken charges =  -0.00000

 Dipole moment (field-independent basis, Debye):
    X=              0.0303    Y=              2.8680    Z=              1.5923  Tot=              3.2805
 Quadrupole moment (field-independent basis, Debye-Ang):
   XX=           -161.0156   YY=            -96.6273   ZZ=           -102.8342
   XY=              8.0154   XZ=             -9.7904   YZ=              0.7375

 Normal termination of Gaussian 16 at Thu May  6 12:53:21 2021.
