 Gaussian 16, Revision A.03,
 Gaussian 16:  EM64L-G16RevA.03 25-Dec-2016

 -------------
 #p 6-31g* mp2
 -------------

 ------------------------------------------------------
 Input file generated by CHIRIPA (05-May-2021 14:55:21)
 ------------------------------------------------------
 Symbolic Z-matrix:
 Charge =  0 Multiplicity = 1

                         Standard orientation:
 ---------------------------------------------------------------------
 Center     Atomic      Atomic             Coordinates (Angstroms)
 Number     Number       Type             X           Y           Z
 ---------------------------------------------------------------------
      1          6           0       -4.209165    1.973222    0.168362
      2          6           0       -2.947409    2.060729   -0.428995
      3          6           0       -2.147868    0.922505   -0.569463
      4          6           0       -2.643649   -0.292572   -0.099272
      5          6           0       -3.896444   -0.412011    0.500335
      6          6           0       -4.678827    0.739307    0.630306
      7          1           0       -4.823603    2.862507    0.273404
      8          1           0       -2.580087    3.017680   -0.788666
      9          1           0       -1.167244    0.961791   -1.027994
     10          1           0       -4.235473   -1.379886    0.849181
     11          1           0       -5.658324    0.668365    1.094632
     12          7           0       -1.806293   -1.504489   -0.242423
     13          8           0       -2.265986   -2.563205    0.179998
     14          8           0       -0.706136   -1.372725   -0.774335
     15          6           0        3.304013    0.823314   -0.049196
     16          6           0        4.304268    1.920653    0.315936
     17          6           0        3.776684    3.324445    0.017911
     18          1           0        3.054236    0.903876   -1.115998
     19          1           0        2.369396    0.989895    0.504100
     20          1           0        5.237202    1.751262   -0.236836
     21          1           0        4.551839    1.837351    1.381949
     22          1           0        2.857879    3.518227    0.580805
     23          1           0        3.547137    3.431648   -1.047179
     24          1           0        4.507668    4.093459    0.286499
     25          6           0        3.817024   -0.585661    0.242934
     26          6           0        2.816769   -1.683000   -0.122197
     27          6           0        3.344353   -3.086792    0.175827
     28          1           0        4.751641   -0.752243   -0.310362
     29          1           0        4.066800   -0.666222    1.309736
     30          1           0        2.569198   -1.599698   -1.188212
     31          1           0        1.883834   -1.513609    0.430574
     32          1           0        3.573900   -3.193996    1.240917
     33          1           0        4.263157   -3.280573   -0.387066
     34          1           0        2.613369   -3.855806   -0.092761
 ---------------------------------------------------------------------

 SCF Done:  E(RHF) =  -669.535833907     A.U. after   15 cycles
 E2 =    -0.2091238741D+01 EUMP2 =    -0.67162707264744D+03

 The electronic state is 1-A.
 Alpha  occ. eigenvalues --  -20.60904 -20.60892 -15.85929 -11.31265 -11.27832
 Alpha  occ. eigenvalues --  -11.27823 -11.27571 -11.26841 -11.26830 -11.21265
 Alpha  occ. eigenvalues --  -11.20955 -11.20853 -11.20529 -11.20179 -11.19872
 Alpha  occ. eigenvalues --   -1.59966  -1.39521  -1.19436  -1.08839  -1.07716
 Alpha  occ. eigenvalues --   -1.04833  -1.02755  -0.95679  -0.95276  -0.86305
 Alpha  occ. eigenvalues --   -0.86232  -0.82513  -0.78877  -0.77604  -0.77365
 Alpha  occ. eigenvalues --   -0.72145  -0.71283  -0.70543  -0.65090  -0.64835
 Alpha  occ. eigenvalues --   -0.64363  -0.62178  -0.60162  -0.58686  -0.56818
 Alpha  occ. eigenvalues --   -0.55337  -0.54602  -0.53167  -0.52923  -0.51967
 Alpha  occ. eigenvalues --   -0.51690  -0.49271  -0.48927  -0.48914  -0.47167
 Alpha  occ. eigenvalues --   -0.45950  -0.45231  -0.44919  -0.44525  -0.43022
 Alpha  occ. eigenvalues --   -0.37417  -0.36436
 Alpha virt. eigenvalues --    0.04940   0.11216   0.16419   0.21276   0.23397
 Alpha virt. eigenvalues --    0.25086   0.26840   0.27384   0.27647   0.28548
 Alpha virt. eigenvalues --    0.28980   0.31052   0.32092   0.32198   0.32824

 Mulliken charges:
               1
     1  C   -0.170670
     2  C   -0.218653
     3  C   -0.171536
     4  C    0.157821
     5  C   -0.170838
     6  C   -0.218600
     7  H    0.225924
     8  H    0.224073
     9  H    0.276728
    10  H    0.275726
    11  H    0.223690
    12  N    0.489126
    13  O   -0.459725
    14  O   -0.459769
    15  C   -0.296270
    16  C   -0.298709
    17  C   -0.475047
    18  H    0.148249
    19  H    0.146543
    20  H    0.151915
    21  H    0.151417
    22  H    0.151371
    23  H    0.153197
    24  H    0.159338
    25  C   -0.299100
    26  C   -0.297980
    27  C   -0.477024
    28  H    0.145908
    29  H    0.146095
    30  H    0.155167
    31  H    0.165522
    32  H    0.149892
    33  H    0.148882
    34  H    0.167334
 Sum of Mulliken charges =  -0.00000

 Dipole moment (field-independent basis, Debye):
    X=             -3.2002    Y=              4.1579    Z=              0.4590  Tot=              5.2668
 Quadrupole moment (field-independent basis, Debye-Ang):
   XX=            -77.7708   YY=            -97.6167   ZZ=            -93.8328
   XY=             -8.2485   XZ=             -3.4865   YZ=             -1.6834

 Normal termination of Gaussian 16 at Wed May  5 23:50:58 2021.
