 Gaussian 16, Revision A.03,
 Gaussian 16:  EM64L-G16RevA.03 25-Dec-2016

 -------------
 #p 6-31g* mp2
 -------------

 ------------------------------------------------------
 Input file generated by CHIRIPA (05-May-2021 14:51:07)
 ------------------------------------------------------
 Symbolic Z-matrix:
 Charge =  0 Multiplicity = 1

                         Standard orientation:
 ---------------------------------------------------------------------
 Center     Atomic      Atomic             Coordinates (Angstroms)
 Number     Number       Type             X           Y           Z
 ---------------------------------------------------------------------
      1          6           0       -1.450826   -1.182437   -0.209261
      2          6           0       -1.583232   -1.990891   -1.500329
      3          6           0       -0.359731   -2.864540   -1.778852
      4          1           0       -0.553800   -0.551076   -0.269860
      5          1           0       -1.291915   -1.871372    0.631876
      6          1           0       -1.743229   -1.300716   -2.338586
      7          1           0       -2.480153   -2.620258   -1.436727
      8          1           0       -0.200169   -3.575726   -0.961933
      9          1           0        0.540943   -2.248686   -1.868917
     10          1           0       -0.475649   -3.433770   -2.706430
     11          6           0       -2.666111   -0.304094    0.082844
     12          6           0       -2.533705    0.504360    1.373912
     13          6           0       -3.757206    1.378010    1.652435
     14          1           0       -2.825022    0.384841   -0.758293
     15          1           0       -3.563137   -0.935454    0.143443
     16          1           0       -1.636783    1.133728    1.310310
     17          1           0       -2.373708   -0.185814    2.212170
     18          1           0       -4.657879    0.762156    1.742500
     19          1           0       -3.916768    2.089195    0.835516
     20          1           0       -3.641288    1.947239    2.580013
     21          6           0        2.159719    0.414011    0.744951
     22          6           0        3.012368   -0.853833    0.685372
     23          6           0        3.205953   -1.501041    2.057028
     24          1           0        2.631223    1.133563    1.428232
     25          1           0        1.179765    0.168495    1.177161
     26          1           0        3.989929   -0.606270    0.252123
     27          1           0        2.538880   -1.570375    0.002005
     28          1           0        2.240087   -1.776040    2.493008
     29          1           0        3.699381   -0.806457    2.744548
     30          1           0        3.818385   -2.405728    1.991235
     31          6           0        1.957217    1.072520   -0.618534
     32          6           0        1.104568    2.340362   -0.558955
     33          6           0        0.910984    2.987572   -1.930612
     34          1           0        2.937173    1.318035   -1.050744
     35          1           0        1.485714    0.352967   -1.301815
     36          1           0        1.578057    3.056906    0.124412
     37          1           0        0.127008    2.092800   -0.125707
     38          1           0        0.417556    2.292987   -2.618131
     39          1           0        1.876850    3.262571   -2.366592
     40          1           0        0.298551    3.892259   -1.864818
 ---------------------------------------------------------------------

 SCF Done:  E(RHF) =  -470.732026735     A.U. after   11 cycles
 E2 =    -0.1586448472D+01 EUMP2 =    -0.47231847520746D+03

 The electronic state is 1-A.
 Alpha  occ. eigenvalues --  -11.21673 -11.21671 -11.21657 -11.21567 -11.21450
 Alpha  occ. eigenvalues --  -11.21442 -11.21382 -11.21328 -11.21155 -11.21142
 Alpha  occ. eigenvalues --  -11.21111 -11.21040  -1.08585  -1.08389  -1.03604
 Alpha  occ. eigenvalues --   -1.03547  -0.96063  -0.95989  -0.87062  -0.87020
 Alpha  occ. eigenvalues --   -0.79691  -0.79602  -0.78420  -0.78204  -0.65701
 Alpha  occ. eigenvalues --   -0.64607  -0.61068  -0.60895  -0.59409  -0.59368
 Alpha  occ. eigenvalues --   -0.57687  -0.57593  -0.55454  -0.55200  -0.52741
 Alpha  occ. eigenvalues --   -0.52693  -0.52504  -0.52392  -0.50005  -0.49954
 Alpha  occ. eigenvalues --   -0.48101  -0.47854  -0.46886  -0.46521  -0.46442
 Alpha  occ. eigenvalues --   -0.45800  -0.45643  -0.45071  -0.43843  -0.43794
 Alpha virt. eigenvalues --    0.19420   0.21687   0.23623   0.24365   0.25088
 Alpha virt. eigenvalues --    0.26132   0.27186   0.27686   0.28687   0.30595
 Alpha virt. eigenvalues --    0.30977   0.31527   0.31685   0.32004   0.32284

 Mulliken charges:
               1
     1  C   -0.310483
     2  C   -0.298867
     3  C   -0.480792
     4  H    0.163497
     5  H    0.148810
     6  H    0.151500
     7  H    0.152449
     8  H    0.155711
     9  H    0.158647
    10  H    0.160971
    11  C   -0.297302
    12  C   -0.307911
    13  C   -0.475370
    14  H    0.149339
    15  H    0.150053
    16  H    0.158444
    17  H    0.152086
    18  H    0.155450
    19  H    0.155304
    20  H    0.160585
    21  C   -0.303841
    22  C   -0.302833
    23  C   -0.475667
    24  H    0.150116
    25  H    0.154840
    26  H    0.151730
    27  H    0.155524
    28  H    0.155499
    29  H    0.154968
    30  H    0.160164
    31  C   -0.304214
    32  C   -0.307662
    33  C   -0.475217
    34  H    0.151504
    35  H    0.151152
    36  H    0.152856
    37  H    0.158181
    38  H    0.154619
    39  H    0.155747
    40  H    0.160414
 Sum of Mulliken charges =  -0.00000

 Dipole moment (field-independent basis, Debye):
    X=             -0.0094    Y=              0.0034    Z=              0.0059  Tot=              0.0116
 Quadrupole moment (field-independent basis, Debye-Ang):
   XX=            -84.6209   YY=            -84.6377   ZZ=            -85.4546
   XY=              1.4962   XZ=             -0.0623   YZ=              0.0024

 Normal termination of Gaussian 16 at Thu May  6 02:04:08 2021.
