 Gaussian 16, Revision A.03,
 Gaussian 16:  EM64L-G16RevA.03 25-Dec-2016

 -------------
 #p 6-31g* mp2
 -------------

 ------------------------------------------------------
 Input file generated by CHIRIPA (05-May-2021 14:57:27)
 ------------------------------------------------------
 Symbolic Z-matrix:
 Charge =  0 Multiplicity = 1

                         Standard orientation:
 ---------------------------------------------------------------------
 Center     Atomic      Atomic             Coordinates (Angstroms)
 Number     Number       Type             X           Y           Z
 ---------------------------------------------------------------------
      1          6           0        1.184122   -2.078389   -0.089056
      2          6           0        2.525403   -2.473437   -0.051342
      3          6           0        3.545438   -1.518922    0.003218
      4          6           0        3.186662   -0.171952    0.018727
      5          6           0        1.859546    0.253149   -0.017884
      6          6           0        0.856052   -0.718754   -0.072236
      7          1           0        0.398159   -2.826633   -0.131359
      8          1           0        2.783138   -3.528639   -0.064288
      9          1           0        4.591962   -1.796957    0.033267
     10          1           0        1.633723    1.312499   -0.003760
     11          1           0       -0.184750   -0.409040   -0.101436
     12          7           0        4.257772    0.847755    0.076377
     13          8           0        3.915433    2.028128    0.089012
     14          8           0        5.419365    0.447319    0.107836
     15          6           0       -3.819316   -2.045593    0.132318
     16          6           0       -3.697102   -1.277721    1.295055
     17          6           0       -3.249758    0.045158    1.228539
     18          6           0       -2.931901    0.570643   -0.022909
     19          6           0       -3.043160   -0.168968   -1.199296
     20          6           0       -3.492531   -1.489746   -1.108958
     21          1           0       -4.167611   -3.072420    0.193242
     22          1           0       -3.950174   -1.706779    2.260409
     23          1           0       -3.145873    0.662064    2.112876
     24          1           0       -2.783355    0.286337   -2.147250
     25          1           0       -3.586473   -2.083733   -2.013613
     26          7           0       -2.457246    1.970003   -0.105936
     27          8           0       -2.183572    2.409656   -1.220586
     28          8           0       -2.367871    2.600671    0.945209
 ---------------------------------------------------------------------

 SCF Done:  E(RHF) =  -868.337014690     A.U. after   16 cycles
 E2 =    -0.2601574669D+01 EUMP2 =    -0.87093858935936D+03

 The electronic state is 1-A.
 Alpha  occ. eigenvalues --  -20.61690 -20.61684 -20.60461 -20.60435 -15.86746
 Alpha  occ. eigenvalues --  -15.85505 -11.32261 -11.30933 -11.28834 -11.28808
 Alpha  occ. eigenvalues --  -11.28572 -11.27859 -11.27819 -11.27554 -11.27441
 Alpha  occ. eigenvalues --  -11.27337 -11.26610 -11.26479  -1.60780  -1.59527
 Alpha  occ. eigenvalues --   -1.40317  -1.39076  -1.20476  -1.19126  -1.09822
 Alpha  occ. eigenvalues --   -1.08525  -1.05845  -1.04534  -0.96616  -0.95341
 Alpha  occ. eigenvalues --   -0.87227  -0.85939  -0.83414  -0.82170  -0.78450
 Alpha  occ. eigenvalues --   -0.77197  -0.72931  -0.72159  -0.71722  -0.71495
 Alpha  occ. eigenvalues --   -0.70853  -0.70257  -0.66070  -0.65794  -0.64780
 Alpha  occ. eigenvalues --   -0.64576  -0.63149  -0.61889  -0.56305  -0.55107
 Alpha  occ. eigenvalues --   -0.54286  -0.53889  -0.52876  -0.52513  -0.49716
 Alpha  occ. eigenvalues --   -0.49692  -0.48492  -0.48469  -0.45670  -0.44467
 Alpha  occ. eigenvalues --   -0.38459  -0.37505  -0.37122  -0.36126
 Alpha virt. eigenvalues --    0.04026   0.05335   0.10127   0.11538   0.15492
 Alpha virt. eigenvalues --    0.16799   0.20498   0.21474   0.26445   0.27079
 Alpha virt. eigenvalues --    0.27404   0.28402   0.30109   0.31002   0.31689

 Mulliken charges:
               1
     1  C   -0.174870
     2  C   -0.218845
     3  C   -0.171479
     4  C    0.158384
     5  C   -0.173244
     6  C   -0.223394
     7  H    0.220729
     8  H    0.220773
     9  H    0.274774
    10  H    0.284177
    11  H    0.229364
    12  N    0.487781
    13  O   -0.456591
    14  O   -0.462491
    15  C   -0.174253
    16  C   -0.217608
    17  C   -0.173042
    18  C    0.148806
    19  C   -0.178776
    20  C   -0.218571
    21  H    0.228734
    22  H    0.227831
    23  H    0.280157
    24  H    0.279815
    25  H    0.227224
    26  N    0.487447
    27  O   -0.457102
    28  O   -0.455733
 Sum of Mulliken charges =  -0.00000

 Dipole moment (field-independent basis, Debye):
    X=             -5.7118    Y=             -8.3504    Z=              0.1284  Tot=             10.1178
 Quadrupole moment (field-independent basis, Debye-Ang):
   XX=           -117.1341   YY=           -107.3395   ZZ=           -100.5156
   XY=              0.2938   XZ=             -2.1375   YZ=              0.7002

 Normal termination of Gaussian 16 at Thu May  6 14:51:27 2021.
