 Gaussian 16, Revision A.03,
 Gaussian 16:  EM64L-G16RevA.03 25-Dec-2016

 -------------
 #p 6-31g* mp2
 -------------

 ------------------------------------------------------
 Input file generated by CHIRIPA (05-May-2021 14:57:25)
 ------------------------------------------------------
 Symbolic Z-matrix:
 Charge =  0 Multiplicity = 1

                         Standard orientation:
 ---------------------------------------------------------------------
 Center     Atomic      Atomic             Coordinates (Angstroms)
 Number     Number       Type             X           Y           Z
 ---------------------------------------------------------------------
      1          6           0        3.522951   -2.044078    0.203116
      2          6           0        4.468792   -1.047092   -0.057513
      3          6           0        4.075618    0.288315   -0.186549
      4          6           0        2.722236    0.592564   -0.048414
      5          6           0        1.756046   -0.378152    0.211349
      6          6           0        2.171979   -1.707019    0.336480
      7          1           0        3.837218   -3.078914    0.301837
      8          1           0        5.518657   -1.305936   -0.161572
      9          1           0        4.786832    1.080094   -0.388238
     10          1           0        0.716675   -0.089356    0.309954
     11          1           0        1.435223   -2.479200    0.538897
     12          7           0        2.293954    2.002838   -0.182952
     13          8           0        1.095556    2.244906   -0.056927
     14          8           0        3.164774    2.839440   -0.411879
     15          6           0       -1.469990   -2.499772   -0.168653
     16          6           0       -1.415136   -1.747724    1.009453
     17          6           0       -2.143917   -0.560611    1.128580
     18          6           0       -2.920709   -0.153282    0.045082
     19          6           0       -2.995997   -0.880611   -1.141768
     20          6           0       -2.258855   -2.064583   -1.238617
     21          1           0       -0.900608   -3.420729   -0.252540
     22          1           0       -0.803342   -2.083269    1.842018
     23          1           0       -2.119658    0.040971    2.029095
     24          1           0       -3.614804   -0.520531   -1.954688
     25          1           0       -2.303364   -2.646603   -2.154759
     26          7           0       -3.696663    1.101799    0.159405
     27          8           0       -4.373470    1.439052   -0.809528
     28          8           0       -3.613356    1.724513    1.215778
 ---------------------------------------------------------------------

 SCF Done:  E(RHF) =  -868.334675868     A.U. after   16 cycles
 E2 =    -0.2604174630D+01 EUMP2 =    -0.87093885049867D+03

 The electronic state is 1-A.
 Alpha  occ. eigenvalues --  -20.60871 -20.60861 -20.60818 -20.60797 -15.85926
 Alpha  occ. eigenvalues --  -15.85881 -11.31646 -11.31409 -11.28272 -11.28222
 Alpha  occ. eigenvalues --  -11.28181 -11.28041 -11.27925 -11.27880 -11.27441
 Alpha  occ. eigenvalues --  -11.27335 -11.27154 -11.27072  -1.59942  -1.59870
 Alpha  occ. eigenvalues --   -1.39491  -1.39415  -1.19903  -1.19632  -1.09239
 Alpha  occ. eigenvalues --   -1.09020  -1.05398  -1.05029  -0.95984  -0.95820
 Alpha  occ. eigenvalues --   -0.86752  -0.86468  -0.82808  -0.82658  -0.77836
 Alpha  occ. eigenvalues --   -0.77604  -0.72142  -0.72103  -0.71272  -0.71186
 Alpha  occ. eigenvalues --   -0.71031  -0.70767  -0.65649  -0.65453  -0.65276
 Alpha  occ. eigenvalues --   -0.64964  -0.62753  -0.62351  -0.55907  -0.55634
 Alpha  occ. eigenvalues --   -0.53661  -0.53450  -0.53350  -0.53074  -0.48911
 Alpha  occ. eigenvalues --   -0.48888  -0.48887  -0.48822  -0.44868  -0.44735
 Alpha  occ. eigenvalues --   -0.37923  -0.37654  -0.36968  -0.36623
 Alpha virt. eigenvalues --    0.04598   0.05018   0.10556   0.10942   0.15891
 Alpha virt. eigenvalues --    0.16496   0.19285   0.22137   0.25524   0.26947
 Alpha virt. eigenvalues --    0.28252   0.29031   0.30318   0.31130   0.32005

 Mulliken charges:
               1
     1  C   -0.170778
     2  C   -0.219428
     3  C   -0.169165
     4  C    0.158179
     5  C   -0.175973
     6  C   -0.223624
     7  H    0.224012
     8  H    0.224116
     9  H    0.276971
    10  H    0.286033
    11  H    0.210443
    12  N    0.487844
    13  O   -0.457916
    14  O   -0.459509
    15  C   -0.172111
    16  C   -0.235607
    17  C   -0.171946
    18  C    0.165308
    19  C   -0.168139
    20  C   -0.217026
    21  H    0.221202
    22  H    0.223300
    23  H    0.281969
    24  H    0.279645
    25  H    0.226029
    26  N    0.489397
    27  O   -0.458229
    28  O   -0.454997
 Sum of Mulliken charges =  -0.00000

 Dipole moment (field-independent basis, Debye):
    X=              3.8899    Y=             -9.0372    Z=             -0.0319  Tot=              9.8389
 Quadrupole moment (field-independent basis, Debye-Ang):
   XX=           -107.0996   YY=           -110.6178   ZZ=           -101.2261
   XY=              1.5695   XZ=              3.5309   YZ=              1.1176

 Normal termination of Gaussian 16 at Fri May  7 09:39:51 2021.
