 Gaussian 16, Revision A.03,
 Gaussian 16:  EM64L-G16RevA.03 25-Dec-2016

 -------------
 #p 6-31g* mp2
 -------------

 ------------------------------------------------------
 Input file generated by CHIRIPA (05-May-2021 14:55:22)
 ------------------------------------------------------
 Symbolic Z-matrix:
 Charge =  0 Multiplicity = 1

                         Standard orientation:
 ---------------------------------------------------------------------
 Center     Atomic      Atomic             Coordinates (Angstroms)
 Number     Number       Type             X           Y           Z
 ---------------------------------------------------------------------
      1          6           0       -4.191748   -2.062104    0.377440
      2          6           0       -2.996999   -1.895839   -0.330694
      3          6           0       -2.474972   -0.617992   -0.552374
      4          6           0       -3.176919    0.476417   -0.049553
      5          6           0       -4.369593    0.343309    0.659743
      6          6           0       -4.873030   -0.943971    0.869530
      7          1           0       -4.590051   -3.058430    0.545027
      8          1           0       -2.465763   -2.762382   -0.714017
      9          1           0       -1.552081   -0.460558   -1.097265
     10          1           0       -4.876576    1.226237    1.029639
     11          1           0       -5.801102   -1.070084    1.419824
     12          7           0       -2.634112    1.834209   -0.277941
     13          8           0       -3.271591    2.782246    0.175362
     14          8           0       -1.581459    1.924700   -0.905930
     15          6           0        4.913865   -0.288397   -0.197044
     16          6           0        5.788025    0.509953    0.770667
     17          6           0        7.251576    0.570903    0.332377
     18          1           0        5.313937   -1.307616   -0.286940
     19          1           0        4.979682    0.162541   -1.196903
     20          1           0        5.719490    0.058467    1.768705
     21          1           0        5.385714    1.527333    0.858417
     22          1           0        7.339531    1.040978   -0.652456
     23          1           0        7.675203   -0.436234    0.263004
     24          1           0        7.858453    1.146333    1.038381
     25          6           0        3.448067   -0.358352    0.227539
     26          6           0        2.573907   -1.156703   -0.740173
     27          6           0        1.110356   -1.217653   -0.301883
     28          1           0        3.382250   -0.809291    1.227398
     29          1           0        3.047996    0.660867    0.317434
     30          1           0        2.976218   -2.174083   -0.827922
     31          1           0        2.642442   -0.705216   -1.738211
     32          1           0        0.686730   -0.210514   -0.232510
     33          1           0        1.022402   -1.687728    0.682951
     34          1           0        0.503479   -1.793082   -1.007886
 ---------------------------------------------------------------------

 SCF Done:  E(RHF) =  -669.535251455     A.U. after   15 cycles
 E2 =    -0.2092036180D+01 EUMP2 =    -0.67162728763481D+03

 The electronic state is 1-A.
 Alpha  occ. eigenvalues --  -20.60796 -20.60790 -15.85830 -11.31098 -11.27698
 Alpha  occ. eigenvalues --  -11.27587 -11.27436 -11.26696 -11.26666 -11.21677
 Alpha  occ. eigenvalues --  -11.21459 -11.21370 -11.21311 -11.21249 -11.20940
 Alpha  occ. eigenvalues --   -1.59859  -1.39416  -1.19285  -1.08702  -1.08375
 Alpha  occ. eigenvalues --   -1.04682  -1.03535  -0.96029  -0.95537  -0.87069
 Alpha  occ. eigenvalues --   -0.86072  -0.82382  -0.79627  -0.78170  -0.77421
 Alpha  occ. eigenvalues --   -0.72054  -0.71173  -0.70411  -0.65013  -0.64941
 Alpha  occ. eigenvalues --   -0.64685  -0.62103  -0.60890  -0.59387  -0.57610
 Alpha  occ. eigenvalues --   -0.55364  -0.55122  -0.53104  -0.52916  -0.52552
 Alpha  occ. eigenvalues --   -0.52372  -0.49904  -0.48810  -0.48800  -0.47915
 Alpha  occ. eigenvalues --   -0.46591  -0.45718  -0.45615  -0.44820  -0.43794
 Alpha  occ. eigenvalues --   -0.37277  -0.36256
 Alpha virt. eigenvalues --    0.05064   0.11347   0.16544   0.20852   0.23017
 Alpha virt. eigenvalues --    0.24185   0.26289   0.26745   0.27536   0.28060
 Alpha virt. eigenvalues --    0.29015   0.30423   0.31502   0.31901   0.32785

 Mulliken charges:
               1
     1  C   -0.170502
     2  C   -0.221495
     3  C   -0.169894
     4  C    0.156297
     5  C   -0.170627
     6  C   -0.219124
     7  H    0.225209
     8  H    0.223291
     9  H    0.282506
    10  H    0.275096
    11  H    0.223018
    12  N    0.488886
    13  O   -0.459819
    14  O   -0.462805
    15  C   -0.298583
    16  C   -0.300017
    17  C   -0.475767
    18  H    0.148147
    19  H    0.150915
    20  H    0.151232
    21  H    0.154363
    22  H    0.155765
    23  H    0.154213
    24  H    0.160400
    25  C   -0.300376
    26  C   -0.298611
    27  C   -0.487819
    28  H    0.148310
    29  H    0.156661
    30  H    0.150036
    31  H    0.155384
    32  H    0.173327
    33  H    0.156012
    34  H    0.146373
 Sum of Mulliken charges =  -0.00000

 Dipole moment (field-independent basis, Debye):
    X=             -1.8305    Y=             -4.6719    Z=              0.8323  Tot=              5.0863
 Quadrupole moment (field-independent basis, Debye-Ang):
   XX=            -81.0134   YY=            -98.6069   ZZ=            -94.1057
   XY=             12.6424   XZ=             -4.4826   YZ=              1.2329

 Normal termination of Gaussian 16 at Thu May  6 17:35:12 2021.
