 Gaussian 16, Revision A.03,
 Gaussian 16:  EM64L-G16RevA.03 25-Dec-2016

 -------------
 #p 6-31g* mp2
 -------------

 ------------------------------------------------------
 Input file generated by CHIRIPA (05-May-2021 14:51:12)
 ------------------------------------------------------
 Symbolic Z-matrix:
 Charge =  0 Multiplicity = 1

                         Standard orientation:
 ---------------------------------------------------------------------
 Center     Atomic      Atomic             Coordinates (Angstroms)
 Number     Number       Type             X           Y           Z
 ---------------------------------------------------------------------
      1          6           0        2.204840   -0.876406    0.441347
      2          6           0        1.265484   -1.882311   -0.224799
      3          6           0       -0.041837   -2.070208    0.545526
      4          1           0        2.425163   -1.211713    1.464075
      5          1           0        1.690207    0.090077    0.533320
      6          1           0        1.782223   -2.846231   -0.316742
      7          1           0        1.047525   -1.544669   -1.246125
      8          1           0       -0.581680   -1.121116    0.625497
      9          1           0        0.157192   -2.430074    1.560161
     10          1           0       -0.698383   -2.793391    0.051751
     11          6           0        3.516023   -0.677768   -0.316988
     12          6           0        4.455379    0.328136    0.349158
     13          6           0        5.762700    0.516033   -0.421166
     14          1           0        4.030656   -1.644251   -0.408960
     15          1           0        3.295700   -0.342461   -1.339716
     16          1           0        4.673338   -0.009506    1.370484
     17          1           0        3.938640    1.292057    0.441101
     18          1           0        5.563671    0.875899   -1.435802
     19          1           0        6.302543   -0.433059   -0.501138
     20          1           0        6.419246    1.239217    0.072608
     21          6           0       -3.180821    0.199608   -0.445976
     22          6           0       -4.229965   -0.560245    0.366370
     23          6           0       -4.861918   -1.712597   -0.414983
     24          1           0       -3.646290    0.587776   -1.362278
     25          1           0       -2.397083   -0.500876   -0.766090
     26          1           0       -5.010776    0.141730    0.686027
     27          1           0       -3.761989   -0.946486    1.280937
     28          1           0       -4.098313   -2.434977   -0.721051
     29          1           0       -5.354195   -1.340577   -1.319342
     30          1           0       -5.608948   -2.242108    0.184538
     31          6           0       -2.540042    1.354566    0.321617
     32          6           0       -1.490898    2.114418   -0.490729
     33          6           0       -0.858945    3.266772    0.290623
     34          1           0       -3.323779    2.055050    0.641731
     35          1           0       -2.074572    0.966399    1.237919
     36          1           0       -1.958873    2.500660   -1.405297
     37          1           0       -0.710087    1.412443   -0.810387
     38          1           0       -0.366668    2.894752    1.194982
     39          1           0       -1.622549    3.989151    0.596691
     40          1           0       -0.111914    3.796282   -0.308897
 ---------------------------------------------------------------------

 SCF Done:  E(RHF) =  -470.732836468     A.U. after   11 cycles
 E2 =    -0.1584218022D+01 EUMP2 =    -0.47231705449021D+03

 The electronic state is 1-A.
 Alpha  occ. eigenvalues --  -11.21678 -11.21662 -11.21623 -11.21555 -11.21458
 Alpha  occ. eigenvalues --  -11.21406 -11.21393 -11.21293 -11.21134 -11.21125
 Alpha  occ. eigenvalues --  -11.21086 -11.21037  -1.08502  -1.08418  -1.03583
 Alpha  occ. eigenvalues --   -1.03535  -0.96071  -0.95952  -0.87065  -0.86991
 Alpha  occ. eigenvalues --   -0.79662  -0.79587  -0.78299  -0.78238  -0.65389
 Alpha  occ. eigenvalues --   -0.64877  -0.60988  -0.60916  -0.59409  -0.59335
 Alpha  occ. eigenvalues --   -0.57646  -0.57595  -0.55612  -0.55005  -0.52730
 Alpha  occ. eigenvalues --   -0.52680  -0.52468  -0.52381  -0.50035  -0.49859
 Alpha  occ. eigenvalues --   -0.47981  -0.47898  -0.46750  -0.46592  -0.45924
 Alpha  occ. eigenvalues --   -0.45795  -0.45729  -0.45527  -0.43831  -0.43783
 Alpha virt. eigenvalues --    0.19223   0.22653   0.23630   0.24387   0.26198
 Alpha virt. eigenvalues --    0.26590   0.27010   0.27768   0.28052   0.29952
 Alpha virt. eigenvalues --    0.30440   0.31308   0.31677   0.31842   0.32525

 Mulliken charges:
               1
     1  C   -0.300817
     2  C   -0.300159
     3  C   -0.484064
     4  H    0.149913
     5  H    0.151208
     6  H    0.152611
     7  H    0.152114
     8  H    0.163972
     9  H    0.155575
    10  H    0.160035
    11  C   -0.298220
    12  C   -0.299844
    13  C   -0.475749
    14  H    0.149703
    15  H    0.149789
    16  H    0.151940
    17  H    0.152341
    18  H    0.155263
    19  H    0.155185
    20  H    0.160397
    21  C   -0.303507
    22  C   -0.299619
    23  C   -0.475923
    24  H    0.149586
    25  H    0.155401
    26  H    0.151650
    27  H    0.152930
    28  H    0.155355
    29  H    0.154914
    30  H    0.160149
    31  C   -0.301139
    32  C   -0.302268
    33  C   -0.476103
    34  H    0.150616
    35  H    0.150195
    36  H    0.152613
    37  H    0.152618
    38  H    0.155471
    39  H    0.155748
    40  H    0.160119
 Sum of Mulliken charges =   0.00000

 Dipole moment (field-independent basis, Debye):
    X=              0.0140    Y=             -0.0029    Z=              0.0062  Tot=              0.0156
 Quadrupole moment (field-independent basis, Debye-Ang):
   XX=            -85.3636   YY=            -84.6093   ZZ=            -84.7621
   XY=             -1.5197   XZ=              0.6707   YZ=             -0.9068

 Normal termination of Gaussian 16 at Wed May  5 15:19:26 2021.
