 Gaussian 16, Revision A.03,
 Gaussian 16:  EM64L-G16RevA.03 25-Dec-2016

 -------------
 #p 6-31g* mp2
 -------------

 ------------------------------------------------------
 Input file generated by CHIRIPA (05-May-2021 14:53:15)
 ------------------------------------------------------
 Symbolic Z-matrix:
 Charge =  0 Multiplicity = 1

                         Standard orientation:
 ---------------------------------------------------------------------
 Center     Atomic      Atomic             Coordinates (Angstroms)
 Number     Number       Type             X           Y           Z
 ---------------------------------------------------------------------
      1          6           0       -3.394542    0.160611   -0.071632
      2          6           0       -2.360554   -0.900116   -0.450725
      3          6           0       -0.922135   -0.404889   -0.297441
      4          1           0       -3.243202    1.051067   -0.697037
      5          1           0       -3.222842    0.475310    0.967058
      6          1           0       -2.535020   -1.213722   -1.487947
      7          1           0       -2.514495   -1.788221    0.175522
      8          1           0       -0.724479   -0.110174    0.738260
      9          1           0       -0.745120    0.467589   -0.934661
     10          1           0       -0.199438   -1.178998   -0.573706
     11          6           0       -4.837214   -0.319511   -0.219648
     12          6           0       -5.871203    0.741215    0.159445
     13          6           0       -7.309621    0.245988    0.006160
     14          1           0       -5.008915   -0.634210   -1.258339
     15          1           0       -4.988554   -1.209967    0.405756
     16          1           0       -5.717261    1.629321   -0.466803
     17          1           0       -5.696737    1.054822    1.196666
     18          1           0       -7.486636   -0.626490    0.643380
     19          1           0       -7.507278   -0.048726   -1.029541
     20          1           0       -8.032319    1.020098    0.282426
     21          6           0        3.389899    2.575546   -0.020237
     22          6           0        4.227699    1.773083   -0.801689
     23          6           0        4.139864    0.379362   -0.735544
     24          6           0        3.198673   -0.180923    0.126737
     25          6           0        2.349950    0.591700    0.917948
     26          6           0        2.455347    1.983337    0.835580
     27          1           0        3.464954    3.657412   -0.077922
     28          1           0        4.954416    2.230248   -1.467216
     29          1           0        4.776104   -0.265606   -1.329373
     30          1           0        1.635340    0.106983    1.572012
     31          1           0        1.803406    2.604052    1.443634
     32          7           0        3.096390   -1.655291    0.205351
     33          8           0        2.258910   -2.124426    0.972930
     34          8           0        3.855636   -2.313845   -0.502099
 ---------------------------------------------------------------------

 SCF Done:  E(RHF) =  -669.535406860     A.U. after   15 cycles
 E2 =    -0.2092110266D+01 EUMP2 =    -0.67162751712642D+03

 The electronic state is 1-A.
 Alpha  occ. eigenvalues --  -20.60809 -20.60793 -15.85833 -11.31137 -11.27727
 Alpha  occ. eigenvalues --  -11.27694 -11.27469 -11.26725 -11.26708 -11.21601
 Alpha  occ. eigenvalues --  -11.21427 -11.21357 -11.21300 -11.21057 -11.20927
 Alpha  occ. eigenvalues --   -1.59866  -1.39422  -1.19322  -1.08729  -1.08370
 Alpha  occ. eigenvalues --   -1.04722  -1.03452  -0.95924  -0.95563  -0.86954
 Alpha  occ. eigenvalues --   -0.86110  -0.82406  -0.79536  -0.78194  -0.77448
 Alpha  occ. eigenvalues --   -0.72058  -0.71185  -0.70444  -0.65009  -0.64979
 Alpha  occ. eigenvalues --   -0.64726  -0.62096  -0.60839  -0.59260  -0.57513
 Alpha  occ. eigenvalues --   -0.55315  -0.55142  -0.53142  -0.52849  -0.52529
 Alpha  occ. eigenvalues --   -0.52274  -0.49865  -0.48818  -0.48812  -0.47836
 Alpha  occ. eigenvalues --   -0.46556  -0.45731  -0.45657  -0.44852  -0.43655
 Alpha  occ. eigenvalues --   -0.37301  -0.36285
 Alpha virt. eigenvalues --    0.05065   0.11308   0.16540   0.21078   0.22936
 Alpha virt. eigenvalues --    0.24251   0.26056   0.26921   0.27648   0.27847
 Alpha virt. eigenvalues --    0.28952   0.30741   0.31469   0.31854   0.31965

 Mulliken charges:
               1
     1  C   -0.298012
     2  C   -0.300756
     3  C   -0.476934
     4  H    0.147247
     5  H    0.146937
     6  H    0.152596
     7  H    0.156560
     8  H    0.144805
     9  H    0.151033
    10  H    0.172343
    11  C   -0.298281
    12  C   -0.299406
    13  C   -0.475682
    14  H    0.150041
    15  H    0.151056
    16  H    0.150786
    17  H    0.151030
    18  H    0.155850
    19  H    0.155447
    20  H    0.159666
    21  C   -0.170574
    22  C   -0.218934
    23  C   -0.170867
    24  C    0.156604
    25  C   -0.165012
    26  C   -0.220273
    27  H    0.225380
    28  H    0.223113
    29  H    0.275287
    30  H    0.277513
    31  H    0.223283
    32  N    0.487813
    33  O   -0.459654
    34  O   -0.460004
 Sum of Mulliken charges =  -0.00000

 Dipole moment (field-independent basis, Debye):
    X=              0.3988    Y=              5.1030    Z=             -0.2924  Tot=              5.1269
 Quadrupole moment (field-independent basis, Debye-Ang):
   XX=            -91.5272   YY=            -97.1065   ZZ=            -92.1178
   XY=             16.3404   XZ=             -3.7648   YZ=              0.7324

 Normal termination of Gaussian 16 at Thu May  6 20:25:35 2021.
