 Gaussian 16, Revision A.03,
 Gaussian 16:  EM64L-G16RevA.03 25-Dec-2016

 -------------
 #p 6-31g* mp2
 -------------

 ------------------------------------------------------
 Input file generated by CHIRIPA (05-May-2021 14:51:08)
 ------------------------------------------------------
 Symbolic Z-matrix:
 Charge =  0 Multiplicity = 1

                         Standard orientation:
 ---------------------------------------------------------------------
 Center     Atomic      Atomic             Coordinates (Angstroms)
 Number     Number       Type             X           Y           Z
 ---------------------------------------------------------------------
      1          6           0        3.330899   -0.187316   -0.478935
      2          6           0        2.602852   -1.510031   -0.237363
      3          6           0        3.266128   -2.688718   -0.950494
      4          1           0        3.369884    0.010530   -1.558880
      5          1           0        4.372048   -0.282806   -0.140874
      6          1           0        1.563012   -1.411635   -0.574506
      7          1           0        2.565428   -1.704655    0.842145
      8          1           0        4.298032   -2.815366   -0.607366
      9          1           0        3.289920   -2.520681   -2.032067
     10          1           0        2.729436   -3.624200   -0.764229
     11          6           0        2.679753    1.000417    0.227485
     12          6           0        3.407799    2.323132   -0.014087
     13          6           0        2.744523    3.501819    0.699044
     14          1           0        1.638604    1.095907   -0.110576
     15          1           0        2.640768    0.802572    1.307430
     16          1           0        3.445224    2.517757   -1.093595
     17          1           0        4.447640    2.224736    0.323056
     18          1           0        2.720732    3.333782    1.780617
     19          1           0        1.712620    3.628467    0.355916
     20          1           0        3.281215    4.437301    0.512779
     21          6           0       -2.720719   -0.889498    0.644564
     22          6           0       -1.483983   -1.644421    0.156138
     23          6           0       -0.926192   -2.606730    1.205246
     24          1           0       -2.465998   -0.332437    1.556564
     25          1           0       -3.496312   -1.614594    0.927557
     26          1           0       -0.711453   -0.918089   -0.127155
     27          1           0       -1.741626   -2.199596   -0.754914
     28          1           0       -1.677799   -3.353303    1.481503
     29          1           0       -0.641772   -2.064515    2.112829
     30          1           0       -0.042481   -3.135837    0.835163
     31          6           0       -3.289933    0.076396   -0.393113
     32          6           0       -4.526670    0.831320    0.095312
     33          6           0       -5.084459    1.793629   -0.953795
     34          1           0       -2.514340    0.801493   -0.676108
     35          1           0       -3.544653   -0.480664   -1.305115
     36          1           0       -4.269025    1.386495    1.006363
     37          1           0       -5.299199    0.104987    0.378604
     38          1           0       -5.368880    1.251413   -1.861379
     39          1           0       -4.332854    2.540202   -1.230053
     40          1           0       -5.968171    2.322736   -0.583713
 ---------------------------------------------------------------------

 SCF Done:  E(RHF) =  -470.732885167     A.U. after   11 cycles
 E2 =    -0.1583629274D+01 EUMP2 =    -0.47231651444074D+03

 The electronic state is 1-A.
 Alpha  occ. eigenvalues --  -11.21633 -11.21607 -11.21581 -11.21540 -11.21433
 Alpha  occ. eigenvalues --  -11.21408 -11.21360 -11.21346 -11.21106 -11.21079
 Alpha  occ. eigenvalues --  -11.21075 -11.21017  -1.08467  -1.08410  -1.03586
 Alpha  occ. eigenvalues --   -1.03480  -0.96016  -0.95951  -0.87015  -0.86982
 Alpha  occ. eigenvalues --   -0.79645  -0.79564  -0.78342  -0.78172  -0.65161
 Alpha  occ. eigenvalues --   -0.64988  -0.61036  -0.60847  -0.59559  -0.59176
 Alpha  occ. eigenvalues --   -0.57751  -0.57416  -0.55286  -0.55253  -0.52719
 Alpha  occ. eigenvalues --   -0.52627  -0.52421  -0.52389  -0.49967  -0.49888
 Alpha  occ. eigenvalues --   -0.47968  -0.47880  -0.46860  -0.46496  -0.46000
 Alpha  occ. eigenvalues --   -0.45766  -0.45758  -0.45317  -0.43802  -0.43767
 Alpha virt. eigenvalues --    0.21029   0.23013   0.23330   0.24443   0.25316
 Alpha virt. eigenvalues --    0.26656   0.26688   0.27289   0.28370   0.29247
 Alpha virt. eigenvalues --    0.30615   0.30917   0.31536   0.31835   0.32424

 Mulliken charges:
               1
     1  C   -0.298019
     2  C   -0.307599
     3  C   -0.476474
     4  H    0.149403
     5  H    0.149472
     6  H    0.161381
     7  H    0.152669
     8  H    0.155258
     9  H    0.155211
    10  H    0.160052
    11  C   -0.299564
    12  C   -0.299643
    13  C   -0.475673
    14  H    0.149420
    15  H    0.149697
    16  H    0.152089
    17  H    0.152274
    18  H    0.155178
    19  H    0.154816
    20  H    0.160461
    21  C   -0.297715
    22  C   -0.304868
    23  C   -0.477265
    24  H    0.149917
    25  H    0.149535
    26  H    0.155733
    27  H    0.151391
    28  H    0.154570
    29  H    0.155106
    30  H    0.163705
    31  C   -0.298233
    32  C   -0.299658
    33  C   -0.475697
    34  H    0.148841
    35  H    0.149582
    36  H    0.152090
    37  H    0.152022
    38  H    0.155143
    39  H    0.155058
    40  H    0.160334
 Sum of Mulliken charges =  -0.00000

 Dipole moment (field-independent basis, Debye):
    X=              0.0087    Y=             -0.0032    Z=              0.0051  Tot=              0.0106
 Quadrupole moment (field-independent basis, Debye-Ang):
   XX=            -84.5376   YY=            -85.6811   ZZ=            -84.5999
   XY=              1.0920   XZ=              0.5465   YZ=              0.1875

 Normal termination of Gaussian 16 at Wed May  5 18:05:54 2021.
