 Gaussian 16, Revision A.03,
 Gaussian 16:  EM64L-G16RevA.03 25-Dec-2016

 -------------
 #p 6-31g* mp2
 -------------

 ------------------------------------------------------
 Input file generated by CHIRIPA (05-May-2021 14:55:24)
 ------------------------------------------------------
 Symbolic Z-matrix:
 Charge =  0 Multiplicity = 1

                         Standard orientation:
 ---------------------------------------------------------------------
 Center     Atomic      Atomic             Coordinates (Angstroms)
 Number     Number       Type             X           Y           Z
 ---------------------------------------------------------------------
      1          6           0        3.492530    2.631551    0.070262
      2          6           0        4.642482    1.874770    0.318083
      3          6           0        4.614523    0.481854    0.201675
      4          6           0        3.414249   -0.124218   -0.166171
      5          6           0        2.251829    0.602279   -0.419689
      6          6           0        2.302971    1.994014   -0.297185
      7          1           0        3.523254    3.713142    0.163058
      8          1           0        5.567705    2.367196    0.603609
      9          1           0        5.490046   -0.128288    0.387699
     10          1           0        1.344224    0.083024   -0.702610
     11          1           0        1.408360    2.579196   -0.490257
     12          7           0        3.372378   -1.598211   -0.292634
     13          8           0        2.302523   -2.108199   -0.618147
     14          8           0        4.410208   -2.215627   -0.063847
     15          6           0       -3.662860    0.027672    0.381487
     16          6           0       -2.755605   -1.191892    0.547432
     17          6           0       -1.326001   -0.816331    0.938555
     18          1           0       -3.235590    0.693581   -0.380714
     19          1           0       -3.676335    0.596559    1.321477
     20          1           0       -2.744939   -1.759062   -0.392154
     21          1           0       -3.185186   -1.855069    1.309189
     22          1           0       -1.317072   -0.269915    1.887213
     23          1           0       -0.874323   -0.173362    0.176203
     24          1           0       -0.694664   -1.703141    1.051879
     25          6           0       -5.095284   -0.331579   -0.009446
     26          6           0       -6.002538    0.887985   -0.175390
     27          6           0       -7.432143    0.512424   -0.566513
     28          1           0       -5.081809   -0.900466   -0.949436
     29          1           0       -5.522554   -0.997489    0.752755
     30          1           0       -5.572958    1.551162   -0.937147
     31          1           0       -6.013205    1.455154    0.764195
     32          1           0       -7.883820   -0.130546    0.195838
     33          1           0       -7.441072   -0.033993   -1.515171
     34          1           0       -8.063479    1.399233   -0.679838
 ---------------------------------------------------------------------

 SCF Done:  E(RHF) =  -669.535544824     A.U. after   15 cycles
 E2 =    -0.2091168742D+01 EUMP2 =    -0.67162671356582D+03

 The electronic state is 1-A.
 Alpha  occ. eigenvalues --  -20.60755 -20.60750 -15.85801 -11.31137 -11.27720
 Alpha  occ. eigenvalues --  -11.27677 -11.27465 -11.26732 -11.26717 -11.21691
 Alpha  occ. eigenvalues --  -11.21578 -11.21484 -11.21414 -11.21131 -11.21105
 Alpha  occ. eigenvalues --   -1.59825  -1.39379  -1.19316  -1.08719  -1.08489
 Alpha  occ. eigenvalues --   -1.04719  -1.03573  -0.96034  -0.95554  -0.87056
 Alpha  occ. eigenvalues --   -0.86115  -0.82389  -0.79644  -0.78311  -0.77433
 Alpha  occ. eigenvalues --   -0.72022  -0.71144  -0.70437  -0.65131  -0.64972
 Alpha  occ. eigenvalues --   -0.64727  -0.62108  -0.60956  -0.59368  -0.57627
 Alpha  occ. eigenvalues --   -0.55414  -0.55166  -0.53058  -0.52883  -0.52646
 Alpha  occ. eigenvalues --   -0.52415  -0.49982  -0.48779  -0.48775  -0.47951
 Alpha  occ. eigenvalues --   -0.46676  -0.45855  -0.45772  -0.44792  -0.43804
 Alpha  occ. eigenvalues --   -0.37302  -0.36312
 Alpha virt. eigenvalues --    0.05076   0.11317   0.16565   0.20695   0.22861
 Alpha virt. eigenvalues --    0.24077   0.25801   0.26826   0.27547   0.27869
 Alpha virt. eigenvalues --    0.29188   0.30901   0.31498   0.31786   0.32101

 Mulliken charges:
               1
     1  C   -0.170684
     2  C   -0.218874
     3  C   -0.170609
     4  C    0.157761
     5  C   -0.174150
     6  C   -0.220313
     7  H    0.225411
     8  H    0.223230
     9  H    0.275375
    10  H    0.283318
    11  H    0.223126
    12  N    0.487761
    13  O   -0.460751
    14  O   -0.460413
    15  C   -0.297807
    16  C   -0.300244
    17  C   -0.477912
    18  H    0.145405
    19  H    0.148412
    20  H    0.155799
    21  H    0.153981
    22  H    0.153339
    23  H    0.140538
    24  H    0.177096
    25  C   -0.298397
    26  C   -0.299466
    27  C   -0.475748
    28  H    0.150721
    29  H    0.150752
    30  H    0.150544
    31  H    0.151333
    32  H    0.155791
    33  H    0.155766
    34  H    0.159907
 Sum of Mulliken charges =  -0.00000

 Dipole moment (field-independent basis, Debye):
    X=              0.1201    Y=              5.0721    Z=              0.4847  Tot=              5.0966
 Quadrupole moment (field-independent basis, Debye-Ang):
   XX=            -90.1913   YY=            -96.5160   ZZ=            -94.5237
   XY=             17.8054   XZ=              2.3855   YZ=             -1.1597

 Normal termination of Gaussian 16 at Wed May  5 17:35:57 2021.
