 Gaussian 16, Revision A.03,
 Gaussian 16:  EM64L-G16RevA.03 25-Dec-2016

 -------------
 #p 6-31g* mp2
 -------------

 ------------------------------------------------------
 Input file generated by CHIRIPA (05-May-2021 14:55:19)
 ------------------------------------------------------
 Symbolic Z-matrix:
 Charge =  0 Multiplicity = 1

                         Standard orientation:
 ---------------------------------------------------------------------
 Center     Atomic      Atomic             Coordinates (Angstroms)
 Number     Number       Type             X           Y           Z
 ---------------------------------------------------------------------
      1          6           0        1.662940    1.390504    0.095370
      2          6           0        1.681444    0.021832   -0.192579
      3          6           0        2.894740   -0.663136   -0.307822
      4          6           0        4.075972    0.054994   -0.128186
      5          6           0        4.090368    1.418919    0.159551
      6          6           0        2.865341    2.083458    0.270208
      7          1           0        0.715866    1.914669    0.183113
      8          1           0        0.749193   -0.518889   -0.328864
      9          1           0        2.938035   -1.722467   -0.529996
     10          1           0        5.036006    1.930918    0.290105
     11          1           0        2.854007    3.146413    0.493912
     12          7           0        5.366643   -0.659337   -0.247761
     13          8           0        6.393529   -0.003853   -0.085026
     14          8           0        5.326947   -1.861188   -0.501955
     15          6           0       -4.190501   -0.146329    0.045971
     16          6           0       -3.373796   -0.830438    1.142773
     17          6           0       -1.866203   -0.672058    0.943092
     18          1           0       -3.902780   -0.561566   -0.929601
     19          1           0       -3.933437    0.921658    0.019203
     20          1           0       -3.633339   -1.896551    1.168385
     21          1           0       -3.663631   -0.413660    2.115865
     22          1           0       -1.587255    0.386608    0.939045
     23          1           0       -1.556791   -1.104708   -0.013818
     24          1           0       -1.301542   -1.168641    1.738343
     25          6           0       -5.699429   -0.295846    0.231736
     26          6           0       -6.516133    0.388262   -0.865067
     27          6           0       -8.023727    0.229882   -0.665386
     28          1           0       -5.956491   -1.363833    0.258503
     29          1           0       -5.987150    0.119390    1.207307
     30          1           0       -6.226297   -0.028516   -1.838159
     31          1           0       -6.256589    1.454375   -0.890678
     32          1           0       -8.333138    0.662533    0.291525
     33          1           0       -8.302674   -0.828784   -0.661338
     34          1           0       -8.588388    0.726465   -1.460637
 ---------------------------------------------------------------------

 SCF Done:  E(RHF) =  -669.535257287     A.U. after   15 cycles
 E2 =    -0.2091409446D+01 EUMP2 =    -0.67162666673323D+03

 The electronic state is 1-A.
 Alpha  occ. eigenvalues --  -20.60681 -20.60676 -15.85732 -11.31072 -11.27639
 Alpha  occ. eigenvalues --  -11.27611 -11.27359 -11.26659 -11.26549 -11.22558
 Alpha  occ. eigenvalues --  -11.22420 -11.22206 -11.22147 -11.22009 -11.21518
 Alpha  occ. eigenvalues --   -1.59757  -1.39311  -1.19235  -1.09196  -1.08634
 Alpha  occ. eigenvalues --   -1.04636  -1.04330  -0.96820  -0.95476  -0.87863
 Alpha  occ. eigenvalues --   -0.86020  -0.82309  -0.80425  -0.78970  -0.77355
 Alpha  occ. eigenvalues --   -0.71951  -0.71080  -0.70352  -0.65823  -0.64884
 Alpha  occ. eigenvalues --   -0.64647  -0.62016  -0.61717  -0.60183  -0.58386
 Alpha  occ. eigenvalues --   -0.56149  -0.55120  -0.53576  -0.53300  -0.52958
 Alpha  occ. eigenvalues --   -0.52591  -0.50754  -0.48774  -0.48709  -0.48639
 Alpha  occ. eigenvalues --   -0.47423  -0.46518  -0.46415  -0.44723  -0.44558
 Alpha  occ. eigenvalues --   -0.37213  -0.36231
 Alpha virt. eigenvalues --    0.05164   0.11385   0.16655   0.20146   0.22279
 Alpha virt. eigenvalues --    0.23761   0.25040   0.25654   0.26904   0.27223
 Alpha virt. eigenvalues --    0.29006   0.29619   0.30990   0.31619   0.32081

 Mulliken charges:
               1
     1  C   -0.174929
     2  C   -0.223345
     3  C   -0.173320
     4  C    0.158900
     5  C   -0.171563
     6  C   -0.218527
     7  H    0.225740
     8  H    0.235929
     9  H    0.275337
    10  H    0.275040
    11  H    0.222751
    12  N    0.488015
    13  O   -0.460850
    14  O   -0.460730
    15  C   -0.298974
    16  C   -0.300006
    17  C   -0.482632
    18  H    0.150128
    19  H    0.147820
    20  H    0.156234
    21  H    0.155537
    22  H    0.150132
    23  H    0.150671
    24  H    0.167482
    25  C   -0.298930
    26  C   -0.300107
    27  C   -0.476123
    28  H    0.151345
    29  H    0.150872
    30  H    0.152611
    31  H    0.151750
    32  H    0.155831
    33  H    0.156224
    34  H    0.161688
 Sum of Mulliken charges =  -0.00000

 Dipole moment (field-independent basis, Debye):
    X=             -4.8437    Y=              2.4610    Z=              0.4740  Tot=              5.4536
 Quadrupole moment (field-independent basis, Debye-Ang):
   XX=           -131.6369   YY=            -90.2696   ZZ=            -95.1519
   XY=             12.5614   XZ=              2.7353   YZ=              1.0659

 Normal termination of Gaussian 16 at Wed May  5 20:31:39 2021.
