 Gaussian 16, Revision A.03,
 Gaussian 16:  EM64L-G16RevA.03 25-Dec-2016

 -------------
 #p 6-31g* mp2
 -------------

 ------------------------------------------------------
 Input file generated by CHIRIPA (05-May-2021 14:51:08)
 ------------------------------------------------------
 Symbolic Z-matrix:
 Charge =  0 Multiplicity = 1

                         Standard orientation:
 ---------------------------------------------------------------------
 Center     Atomic      Atomic             Coordinates (Angstroms)
 Number     Number       Type             X           Y           Z
 ---------------------------------------------------------------------
      1          6           0       -2.988734   -0.782429    0.597788
      2          6           0       -1.515346   -1.136666    0.393749
      3          6           0       -1.069282   -2.324462    1.246956
      4          1           0       -3.161886   -0.558740    1.659356
      5          1           0       -3.606033   -1.659376    0.358411
      6          1           0       -0.901093   -0.258889    0.632110
      7          1           0       -1.345641   -1.359352   -0.667489
      8          1           0       -1.657102   -3.215572    1.004071
      9          1           0       -1.210027   -2.108857    2.311055
     10          1           0       -0.012845   -2.560513    1.085465
     11          6           0       -3.449598    0.403036   -0.248382
     12          6           0       -4.922985    0.757273   -0.044344
     13          6           0       -5.369049    1.945069   -0.897551
     14          1           0       -2.832298    1.279982   -0.009006
     15          1           0       -3.276446    0.179347   -1.309950
     16          1           0       -5.092690    0.979958    1.016895
     17          1           0       -5.537239   -0.120504   -0.282705
     18          1           0       -5.228304    1.729463   -1.961649
     19          1           0       -4.781230    2.836178   -0.654666
     20          1           0       -6.425487    2.181119   -0.736060
     21          6           0        3.617045    0.829996   -0.297756
     22          6           0        3.235207    1.971770    0.644866
     23          6           0        4.039817    3.245958    0.386325
     24          1           0        4.689272    0.616594   -0.189428
     25          1           0        3.466490    1.155411   -1.336425
     26          1           0        3.385125    1.643822    1.681490
     27          1           0        2.163725    2.182350    0.534419
     28          1           0        3.882272    3.599947   -0.637624
     29          1           0        5.110611    3.058360    0.515964
     30          1           0        3.750754    4.049207    1.071228
     31          6           0        2.821287   -0.450601   -0.051650
     32          6           0        3.203124   -1.592377   -0.994271
     33          6           0        2.398515   -2.866564   -0.735731
     34          1           0        2.971843   -0.776017    0.987019
     35          1           0        1.749060   -0.237201   -0.159978
     36          1           0        4.274607   -1.802955   -0.883825
     37          1           0        3.053207   -1.264428   -2.030896
     38          1           0        1.327720   -2.678966   -0.865369
     39          1           0        2.556060   -3.220554    0.288219
     40          1           0        2.687577   -3.669814   -1.420634
 ---------------------------------------------------------------------

 SCF Done:  E(RHF) =  -470.732790686     A.U. after   11 cycles
 E2 =    -0.1583658805D+01 EUMP2 =    -0.47231644949084D+03

 The electronic state is 1-A.
 Alpha  occ. eigenvalues --  -11.21614 -11.21610 -11.21609 -11.21608 -11.21412
 Alpha  occ. eigenvalues --  -11.21401 -11.21352 -11.21339 -11.21080 -11.21080
 Alpha  occ. eigenvalues --  -11.21073 -11.20934  -1.08456  -1.08413  -1.03579
 Alpha  occ. eigenvalues --   -1.03487  -0.96030  -0.95926  -0.87067  -0.86924
 Alpha  occ. eigenvalues --   -0.79620  -0.79581  -0.78316  -0.78188  -0.65078
 Alpha  occ. eigenvalues --   -0.65055  -0.60986  -0.60895  -0.59557  -0.59192
 Alpha  occ. eigenvalues --   -0.57775  -0.57406  -0.55336  -0.55188  -0.52838
 Alpha  occ. eigenvalues --   -0.52684  -0.52476  -0.52152  -0.49933  -0.49900
 Alpha  occ. eigenvalues --   -0.48008  -0.47770  -0.46639  -0.46631  -0.45927
 Alpha  occ. eigenvalues --   -0.45763  -0.45724  -0.45528  -0.43795  -0.43745
 Alpha virt. eigenvalues --    0.21077   0.23136   0.23363   0.24762   0.25693
 Alpha virt. eigenvalues --    0.26420   0.26840   0.27347   0.28271   0.29134
 Alpha virt. eigenvalues --    0.30129   0.31427   0.31515   0.31815   0.32103

 Mulliken charges:
               1
     1  C   -0.298134
     2  C   -0.302453
     3  C   -0.482849
     4  H    0.149981
     5  H    0.149723
     6  H    0.153497
     7  H    0.150851
     8  H    0.154470
     9  H    0.154518
    10  H    0.169300
    11  C   -0.298307
    12  C   -0.299639
    13  C   -0.475710
    14  H    0.149217
    15  H    0.149407
    16  H    0.152037
    17  H    0.152013
    18  H    0.155119
    19  H    0.155135
    20  H    0.160319
    21  C   -0.298044
    22  C   -0.299622
    23  C   -0.475697
    24  H    0.149696
    25  H    0.149579
    26  H    0.151930
    27  H    0.151476
    28  H    0.155266
    29  H    0.155262
    30  H    0.160184
    31  C   -0.304268
    32  C   -0.299095
    33  C   -0.481679
    34  H    0.149232
    35  H    0.156107
    36  H    0.151898
    37  H    0.151842
    38  H    0.161631
    39  H    0.155223
    40  H    0.160586
 Sum of Mulliken charges =  -0.00000

 Dipole moment (field-independent basis, Debye):
    X=              0.0194    Y=             -0.0094    Z=             -0.0068  Tot=              0.0226
 Quadrupole moment (field-independent basis, Debye-Ang):
   XX=            -84.7386   YY=            -85.9694   ZZ=            -84.0846
   XY=             -0.1926   XZ=              0.4540   YZ=              0.8320

 Normal termination of Gaussian 16 at Wed May  5 16:34:52 2021.
