 Gaussian 16, Revision A.03,
 Gaussian 16:  EM64L-G16RevA.03 25-Dec-2016

 -------------
 #p 6-31g* mp2
 -------------

 ------------------------------------------------------
 Input file generated by CHIRIPA (05-May-2021 14:53:15)
 ------------------------------------------------------
 Symbolic Z-matrix:
 Charge =  0 Multiplicity = 1

                         Standard orientation:
 ---------------------------------------------------------------------
 Center     Atomic      Atomic             Coordinates (Angstroms)
 Number     Number       Type             X           Y           Z
 ---------------------------------------------------------------------
      1          6           0        4.548291   -0.057877    0.343386
      2          6           0        5.885381   -0.398418   -0.315559
      3          6           0        6.688701   -1.430676    0.476220
      4          1           0        4.732613    0.319124    1.358690
      5          1           0        3.957195   -0.977535    0.453967
      6          1           0        6.473212    0.521824   -0.426123
      7          1           0        5.697867   -0.774472   -1.329481
      8          1           0        6.125110   -2.364053    0.575085
      9          1           0        6.904861   -1.060391    1.483576
     10          1           0        7.640795   -1.659421   -0.012711
     11          6           0        3.733711    0.972738   -0.436371
     12          6           0        2.396622    1.313279    0.222574
     13          6           0        1.593302    2.345537   -0.569205
     14          1           0        4.324808    1.892396   -0.546952
     15          1           0        3.549390    0.595737   -1.451675
     16          1           0        2.584136    1.689333    1.236496
     17          1           0        1.808791    0.393037    0.333138
     18          1           0        1.377141    1.975252   -1.576561
     19          1           0        2.156892    3.278914   -0.668070
     20          1           0        0.641208    2.574282   -0.080274
     21          6           0       -0.812586   -1.049604   -0.097390
     22          6           0       -1.334994   -0.558447    1.103599
     23          6           0       -2.675822   -0.171926    1.189221
     24          6           0       -3.469362   -0.290445    0.049250
     25          6           0       -2.978203   -0.776060   -1.161631
     26          6           0       -1.634409   -1.156654   -1.224186
     27          1           0        0.230154   -1.347561   -0.154945
     28          1           0       -0.699091   -0.474214    1.980285
     29          1           0       -3.106130    0.211608    2.106365
     30          1           0       -3.636721   -0.848467   -2.018678
     31          1           0       -1.231413   -1.537747   -2.158214
     32          7           0       -4.890407    0.115611    0.127683
     33          8           0       -5.568734    0.001435   -0.890881
     34          8           0       -5.298987    0.540364    1.206239
 ---------------------------------------------------------------------

 SCF Done:  E(RHF) =  -669.535238571     A.U. after   15 cycles
 E2 =    -0.2091939190D+01 EUMP2 =    -0.67162717776132D+03

 The electronic state is 1-A.
 Alpha  occ. eigenvalues --  -20.60770 -20.60765 -15.85824 -11.31199 -11.27770
 Alpha  occ. eigenvalues --  -11.27766 -11.27509 -11.26789 -11.26779 -11.22497
 Alpha  occ. eigenvalues --  -11.22256 -11.22192 -11.22135 -11.21706 -11.21643
 Alpha  occ. eigenvalues --   -1.59845  -1.39399  -1.19375  -1.09206  -1.08768
 Alpha  occ. eigenvalues --   -1.04778  -1.04243  -0.96662  -0.95604  -0.87675
 Alpha  occ. eigenvalues --   -0.86175  -0.82437  -0.80325  -0.79029  -0.77475
 Alpha  occ. eigenvalues --   -0.72042  -0.71169  -0.70520  -0.65850  -0.65028
 Alpha  occ. eigenvalues --   -0.64778  -0.62126  -0.61652  -0.60034  -0.58283
 Alpha  occ. eigenvalues --   -0.55967  -0.55289  -0.53352  -0.53118  -0.53031
 Alpha  occ. eigenvalues --   -0.52868  -0.50606  -0.48803  -0.48797  -0.48621
 Alpha  occ. eigenvalues --   -0.47369  -0.46553  -0.46494  -0.44802  -0.44500
 Alpha  occ. eigenvalues --   -0.37326  -0.36378
 Alpha virt. eigenvalues --    0.05031   0.11217   0.16439   0.19778   0.22567
 Alpha virt. eigenvalues --    0.23867   0.25202   0.26290   0.27016   0.27583
 Alpha virt. eigenvalues --    0.29168   0.30550   0.31121   0.31274   0.32264

 Mulliken charges:
               1
     1  C   -0.297523
     2  C   -0.300005
     3  C   -0.476010
     4  H    0.151460
     5  H    0.143133
     6  H    0.154228
     7  H    0.151941
     8  H    0.154342
     9  H    0.156260
    10  H    0.162393
    11  C   -0.298557
    12  C   -0.302204
    13  C   -0.475005
    14  H    0.153534
    15  H    0.148472
    16  H    0.153779
    17  H    0.140748
    18  H    0.154469
    19  H    0.158020
    20  H    0.164268
    21  C   -0.168990
    22  C   -0.218615
    23  C   -0.171448
    24  C    0.158597
    25  C   -0.170797
    26  C   -0.219538
    27  H    0.226407
    28  H    0.224588
    29  H    0.275716
    30  H    0.275677
    31  H    0.223331
    32  N    0.488085
    33  O   -0.460358
    34  O   -0.460398
 Sum of Mulliken charges =  -0.00000

 Dipole moment (field-independent basis, Debye):
    X=              5.1085    Y=             -1.3434    Z=             -0.2929  Tot=              5.2903
 Quadrupole moment (field-independent basis, Debye-Ang):
   XX=           -129.7930   YY=            -94.1807   ZZ=            -90.1286
   XY=              4.7549   XZ=              1.7981   YZ=              2.1418

 Normal termination of Gaussian 16 at Wed May  5 21:55:48 2021.
