 Gaussian 16, Revision A.03,
 Gaussian 16:  EM64L-G16RevA.03 25-Dec-2016

 -------------
 #p 6-31g* mp2
 -------------

 ------------------------------------------------------
 Input file generated by CHIRIPA (05-May-2021 14:55:25)
 ------------------------------------------------------
 Symbolic Z-matrix:
 Charge =  0 Multiplicity = 1

                         Standard orientation:
 ---------------------------------------------------------------------
 Center     Atomic      Atomic             Coordinates (Angstroms)
 Number     Number       Type             X           Y           Z
 ---------------------------------------------------------------------
      1          6           0       -1.168006   -1.534717    1.074681
      2          6           0       -0.961871   -0.290420    0.469905
      3          6           0       -2.032202    0.412045   -0.091773
      4          6           0       -3.301092   -0.161952   -0.030648
      5          6           0       -3.538515   -1.399758    0.564966
      6          6           0       -2.453404   -2.084446    1.120201
      7          1           0       -0.330807   -2.073504    1.508503
      8          1           0        0.035296    0.138938    0.433095
      9          1           0       -1.900895    1.377031   -0.566093
     10          1           0       -4.544024   -1.802144    0.586289
     11          1           0       -2.616455   -3.050606    1.589236
     12          7           0       -4.442026    0.572306   -0.621861
     13          8           0       -5.550224    0.044984   -0.555032
     14          8           0       -4.206490    1.661237   -1.140888
     15          6           0        3.891499   -0.348082   -0.350534
     16          6           0        5.196094   -1.141589   -0.430310
     17          6           0        4.993317   -2.560603   -0.962360
     18          1           0        3.182035   -0.884963    0.293954
     19          1           0        3.435315   -0.304517   -1.349230
     20          1           0        5.650382   -1.182465    0.567972
     21          1           0        5.902602   -0.602662   -1.074530
     22          1           0        4.562307   -2.536865   -1.968476
     23          1           0        4.308653   -3.119963   -0.316641
     24          1           0        5.938653   -3.109984   -1.011128
     25          6           0        4.077914    1.072477    0.179549
     26          6           0        2.773318    1.865984    0.259325
     27          6           0        2.976097    3.284997    0.791375
     28          1           0        4.534098    1.028912    1.178245
     29          1           0        4.787378    1.609358   -0.464939
     30          1           0        2.066811    1.327056    0.903544
     31          1           0        2.319031    1.906861   -0.738957
     32          1           0        3.660759    3.844359    0.145657
     33          1           0        3.407105    3.261260    1.797491
     34          1           0        2.030759    3.834379    0.840142
 ---------------------------------------------------------------------

 SCF Done:  E(RHF) =  -669.535630806     A.U. after   15 cycles
 E2 =    -0.2091230013D+01 EUMP2 =    -0.67162686081943D+03

 The electronic state is 1-A.
 Alpha  occ. eigenvalues --  -20.60711 -20.60706 -15.85763 -11.31114 -11.27683
 Alpha  occ. eigenvalues --  -11.27664 -11.27417 -11.26702 -11.26627 -11.22664
 Alpha  occ. eigenvalues --  -11.22335 -11.22281 -11.22221 -11.21825 -11.21721
 Alpha  occ. eigenvalues --   -1.59787  -1.39341  -1.19281  -1.09300  -1.08681
 Alpha  occ. eigenvalues --   -1.04680  -1.04344  -0.96757  -0.95520  -0.87774
 Alpha  occ. eigenvalues --   -0.86082  -0.82352  -0.80440  -0.79139  -0.77394
 Alpha  occ. eigenvalues --   -0.71982  -0.71110  -0.70397  -0.65941  -0.64932
 Alpha  occ. eigenvalues --   -0.64683  -0.62066  -0.61708  -0.60130  -0.58384
 Alpha  occ. eigenvalues --   -0.56033  -0.55190  -0.53453  -0.53186  -0.53014
 Alpha  occ. eigenvalues --   -0.52776  -0.50694  -0.48797  -0.48738  -0.48667
 Alpha  occ. eigenvalues --   -0.47466  -0.46648  -0.46571  -0.44750  -0.44603
 Alpha  occ. eigenvalues --   -0.37266  -0.36281
 Alpha virt. eigenvalues --    0.05130   0.11352   0.16619   0.19628   0.22537
 Alpha virt. eigenvalues --    0.23513   0.24868   0.25932   0.27163   0.28105
 Alpha virt. eigenvalues --    0.29490   0.29919   0.30833   0.31286   0.32093

 Mulliken charges:
               1
     1  C   -0.173023
     2  C   -0.227253
     3  C   -0.173771
     4  C    0.158939
     5  C   -0.171457
     6  C   -0.218407
     7  H    0.225006
     8  H    0.236932
     9  H    0.275664
    10  H    0.275273
    11  H    0.222994
    12  N    0.488064
    13  O   -0.460730
    14  O   -0.460611
    15  C   -0.298370
    16  C   -0.300252
    17  C   -0.475874
    18  H    0.141176
    19  H    0.151637
    20  H    0.153040
    21  H    0.154967
    22  H    0.156914
    23  H    0.152687
    24  H    0.162968
    25  C   -0.297902
    26  C   -0.307304
    27  C   -0.475279
    28  H    0.151618
    29  H    0.154154
    30  H    0.145944
    31  H    0.153098
    32  H    0.159225
    33  H    0.157451
    34  H    0.162482
 Sum of Mulliken charges =  -0.00000

 Dipole moment (field-independent basis, Debye):
    X=              4.2889    Y=             -2.5028    Z=              2.0393  Tot=              5.3681
 Quadrupole moment (field-independent basis, Debye-Ang):
   XX=           -118.8225   YY=            -92.0777   ZZ=            -94.5048
   XY=             10.9031   XZ=             -8.2819   YZ=             -2.1037

 Normal termination of Gaussian 16 at Wed May  5 22:28:45 2021.
