 Gaussian 16, Revision A.03,
 Gaussian 16:  EM64L-G16RevA.03 25-Dec-2016

 -------------
 #p 6-31g* mp2
 -------------

 ------------------------------------------------------
 Input file generated by CHIRIPA (05-May-2021 14:55:25)
 ------------------------------------------------------
 Symbolic Z-matrix:
 Charge =  0 Multiplicity = 1

                         Standard orientation:
 ---------------------------------------------------------------------
 Center     Atomic      Atomic             Coordinates (Angstroms)
 Number     Number       Type             X           Y           Z
 ---------------------------------------------------------------------
      1          6           0        1.363723    0.566206    2.469323
      2          6           0        0.620850   -0.416154    1.806278
      3          6           0        1.058644   -0.932598    0.583098
      4          6           0        2.249193   -0.441702    0.049333
      5          6           0        3.011567    0.536574    0.685770
      6          6           0        2.554611    1.038603    1.907943
      7          1           0        1.016191    0.961793    3.419128
      8          1           0       -0.304383   -0.784895    2.239891
      9          1           0        0.503154   -1.693527    0.048462
     10          1           0        3.929951    0.884432    0.228620
     11          1           0        3.133592    1.801473    2.420636
     12          7           0        2.722809   -0.980807   -1.245060
     13          8           0        3.775006   -0.531677   -1.694283
     14          8           0        2.032865   -1.842280   -1.785873
     15          6           0       -2.291765    1.017701   -0.176312
     16          6           0       -2.141282    2.027836   -1.314277
     17          6           0       -1.163134    3.154265   -0.979345
     18          1           0       -2.629539    1.541669    0.728294
     19          1           0       -1.306714    0.591356    0.058846
     20          1           0       -3.126544    2.451131   -1.548150
     21          1           0       -1.804011    1.501371   -2.216330
     22          1           0       -0.168225    2.749956   -0.766532
     23          1           0       -1.498272    3.705111   -0.094555
     24          1           0       -1.070721    3.864920   -1.806562
     25          6           0       -3.266342   -0.114403   -0.496110
     26          6           0       -3.416825   -1.124538    0.641856
     27          6           0       -4.394973   -2.250967    0.306922
     28          1           0       -4.251393    0.311942   -0.731267
     29          1           0       -2.928568   -0.638371   -1.400716
     30          1           0       -3.754096   -0.598074    1.543908
     31          1           0       -2.431563   -1.547833    0.875728
     32          1           0       -4.059835   -2.801813   -0.577867
     33          1           0       -5.389882   -1.846658    0.094110
     34          1           0       -4.487386   -2.961622    1.134141
 ---------------------------------------------------------------------

 SCF Done:  E(RHF) =  -669.534333944     A.U. after   15 cycles
 E2 =    -0.2094336318D+01 EUMP2 =    -0.67162867026210D+03

 The electronic state is 1-A.
 Alpha  occ. eigenvalues --  -20.60838 -20.60831 -15.85891 -11.31277 -11.27820
 Alpha  occ. eigenvalues --  -11.27814 -11.27537 -11.26847 -11.26799 -11.22300
 Alpha  occ. eigenvalues --  -11.21736 -11.21721 -11.21533 -11.21526 -11.21191
 Alpha  occ. eigenvalues --   -1.59913  -1.39465  -1.19446  -1.08841  -1.08766
 Alpha  occ. eigenvalues --   -1.04854  -1.03869  -0.96286  -0.95661  -0.87309
 Alpha  occ. eigenvalues --   -0.86232  -0.82505  -0.79974  -0.78616  -0.77521
 Alpha  occ. eigenvalues --   -0.72107  -0.71238  -0.70531  -0.65474  -0.65059
 Alpha  occ. eigenvalues --   -0.64828  -0.62189  -0.61268  -0.59671  -0.57913
 Alpha  occ. eigenvalues --   -0.55582  -0.55323  -0.53282  -0.53030  -0.52893
 Alpha  occ. eigenvalues --   -0.52671  -0.50240  -0.48868  -0.48862  -0.48269
 Alpha  occ. eigenvalues --   -0.47019  -0.46107  -0.46023  -0.44864  -0.44102
 Alpha  occ. eigenvalues --   -0.37409  -0.36305
 Alpha virt. eigenvalues --    0.04963   0.11164   0.16375   0.19755   0.22860
 Alpha virt. eigenvalues --    0.23809   0.25344   0.26349   0.27582   0.28214
 Alpha virt. eigenvalues --    0.29591   0.30321   0.31243   0.31574   0.32449

 Mulliken charges:
               1
     1  C   -0.170824
     2  C   -0.218803
     3  C   -0.175529
     4  C    0.159836
     5  C   -0.171961
     6  C   -0.218091
     7  H    0.226392
     8  H    0.229715
     9  H    0.276242
    10  H    0.275974
    11  H    0.224060
    12  N    0.488167
    13  O   -0.459934
    14  O   -0.460584
    15  C   -0.308412
    16  C   -0.299649
    17  C   -0.476374
    18  H    0.144369
    19  H    0.158823
    20  H    0.151625
    21  H    0.156281
    22  H    0.156689
    23  H    0.151916
    24  H    0.161935
    25  C   -0.298999
    26  C   -0.301335
    27  C   -0.475830
    28  H    0.151526
    29  H    0.154234
    30  H    0.150731
    31  H    0.140773
    32  H    0.159137
    33  H    0.158003
    34  H    0.159895
 Sum of Mulliken charges =  -0.00000

 Dipole moment (field-independent basis, Debye):
    X=             -1.6543    Y=              1.8983    Z=              4.5103  Tot=              5.1655
 Quadrupole moment (field-independent basis, Debye-Ang):
   XX=            -98.9772   YY=            -95.6964   ZZ=            -94.6561
   XY=              7.0368   XZ=             10.3858   YZ=             -1.5485

 Normal termination of Gaussian 16 at Thu May  6 16:05:02 2021.
