 Gaussian 16, Revision A.03,
 Gaussian 16:  EM64L-G16RevA.03 25-Dec-2016

 -------------
 #p 6-31g* mp2
 -------------

 ------------------------------------------------------
 Input file generated by CHIRIPA (05-May-2021 14:57:25)
 ------------------------------------------------------
 Symbolic Z-matrix:
 Charge =  0 Multiplicity = 1

                         Standard orientation:
 ---------------------------------------------------------------------
 Center     Atomic      Atomic             Coordinates (Angstroms)
 Number     Number       Type             X           Y           Z
 ---------------------------------------------------------------------
      1          6           0       -2.156280    2.058822    1.320146
      2          6           0       -1.484760    0.847142    1.513572
      3          6           0       -1.892694   -0.306511    0.837390
      4          6           0       -2.980947   -0.212056   -0.028678
      5          6           0       -3.670427    0.980496   -0.242514
      6          6           0       -3.245050    2.121522    0.444264
      7          1           0       -1.832612    2.950103    1.849536
      8          1           0       -0.638884    0.795490    2.193183
      9          1           0       -1.390852   -1.257502    0.968499
     10          1           0       -4.510243    1.000813   -0.926410
     11          1           0       -3.768450    3.061171    0.292093
     12          7           0       -3.422041   -1.426693   -0.750130
     13          8           0       -4.383660   -1.317160   -1.507711
     14          8           0       -2.797800   -2.465259   -0.544363
     15          6           0        3.095678   -2.180649    1.144138
     16          6           0        3.640200   -2.050201   -0.137658
     17          6           0        3.542260   -0.840094   -0.830909
     18          6           0        2.890130    0.223834   -0.209560
     19          6           0        2.337393    0.125059    1.066377
     20          6           0        2.447156   -1.094518    1.741013
     21          1           0        3.176353   -3.124368    1.675442
     22          1           0        4.144405   -2.892020   -0.603664
     23          1           0        3.954798   -0.711580   -1.824244
     24          1           0        1.840617    0.981975    1.504926
     25          1           0        2.023328   -1.192941    2.736365
     26          7           0        2.780187    1.509933   -0.933620
     27          8           0        2.200729    2.432269   -0.364269
     28          8           0        3.275553    1.571287   -2.056779
 ---------------------------------------------------------------------

 SCF Done:  E(RHF) =  -868.337442108     A.U. after   16 cycles
 E2 =    -0.2600388296D+01 EUMP2 =    -0.87093783040450D+03

 The electronic state is 1-A.
 Alpha  occ. eigenvalues --  -20.61193 -20.61170 -20.60773 -20.60757 -15.86241
 Alpha  occ. eigenvalues --  -15.85824 -11.31647 -11.31139 -11.28334 -11.28169
 Alpha  occ. eigenvalues --  -11.27939 -11.27780 -11.27699 -11.27442 -11.27322
 Alpha  occ. eigenvalues --  -11.27157 -11.26822 -11.26658  -1.60254  -1.59843
 Alpha  occ. eigenvalues --   -1.39809  -1.39399  -1.19825  -1.19320  -1.09194
 Alpha  occ. eigenvalues --   -1.08714  -1.05261  -1.04736  -0.96031  -0.95554
 Alpha  occ. eigenvalues --   -0.86640  -0.86137  -0.82884  -0.82406  -0.77943
 Alpha  occ. eigenvalues --   -0.77459  -0.72464  -0.72046  -0.71571  -0.71164
 Alpha  occ. eigenvalues --   -0.70929  -0.70409  -0.65488  -0.65285  -0.64983
 Alpha  occ. eigenvalues --   -0.64769  -0.62668  -0.62043  -0.55711  -0.55204
 Alpha  occ. eigenvalues --   -0.53561  -0.53387  -0.53009  -0.52813  -0.49227
 Alpha  occ. eigenvalues --   -0.49208  -0.48802  -0.48796  -0.45207  -0.44817
 Alpha  occ. eigenvalues --   -0.37771  -0.37263  -0.36927  -0.36243
 Alpha virt. eigenvalues --    0.04591   0.05118   0.10719   0.11346   0.16015
 Alpha virt. eigenvalues --    0.16613   0.19307   0.22153   0.25171   0.27479
 Alpha virt. eigenvalues --    0.28249   0.29167   0.30449   0.31305   0.32062

 Mulliken charges:
               1
     1  C   -0.165332
     2  C   -0.215676
     3  C   -0.170445
     4  C    0.158350
     5  C   -0.169447
     6  C   -0.217932
     7  H    0.228559
     8  H    0.211491
     9  H    0.272342
    10  H    0.276177
    11  H    0.225254
    12  N    0.488406
    13  O   -0.459588
    14  O   -0.462994
    15  C   -0.168720
    16  C   -0.217122
    17  C   -0.168850
    18  C    0.160162
    19  C   -0.172483
    20  C   -0.222590
    21  H    0.228805
    22  H    0.227072
    23  H    0.278175
    24  H    0.268477
    25  H    0.220107
    26  N    0.488772
    27  O   -0.463696
    28  O   -0.457280
 Sum of Mulliken charges =  -0.00000

 Dipole moment (field-independent basis, Debye):
    X=              2.0272    Y=             -0.2427    Z=              4.8854  Tot=              5.2949
 Quadrupole moment (field-independent basis, Debye-Ang):
   XX=           -108.0942   YY=           -107.0328   ZZ=           -103.1658
   XY=            -30.5079   XZ=             -0.9418   YZ=              1.2920

 Normal termination of Gaussian 16 at Thu May  6 06:42:24 2021.
