 Gaussian 16, Revision A.03,
 Gaussian 16:  EM64L-G16RevA.03 25-Dec-2016

 -------------
 #p 6-31g* mp2
 -------------

 ------------------------------------------------------
 Input file generated by CHIRIPA (05-May-2021 14:51:10)
 ------------------------------------------------------
 Symbolic Z-matrix:
 Charge =  0 Multiplicity = 1

                         Standard orientation:
 ---------------------------------------------------------------------
 Center     Atomic      Atomic             Coordinates (Angstroms)
 Number     Number       Type             X           Y           Z
 ---------------------------------------------------------------------
      1          6           0        2.819296    0.822069   -0.753823
      2          6           0        2.344357    1.968859    0.139088
      3          6           0        1.521510    3.008833   -0.621945
      4          1           0        3.417020    1.232007   -1.579427
      5          1           0        1.945923    0.336816   -1.211146
      6          1           0        3.218287    2.450926    0.595676
      7          1           0        1.747854    1.556125    0.962770
      8          1           0        0.632245    2.548056   -1.064091
      9          1           0        2.111033    3.447941   -1.433270
     10          1           0        1.192248    3.819593    0.035409
     11          6           0        3.643212   -0.225649   -0.007380
     12          6           0        4.118152   -1.372440   -0.900291
     13          6           0        4.940998   -2.412414   -0.139257
     14          1           0        4.516585    0.259603    0.449944
     15          1           0        3.045489   -0.635588    0.818224
     16          1           0        4.714654   -0.959706   -1.723972
     17          1           0        3.244221   -1.854507   -1.356879
     18          1           0        4.351476   -2.851522    0.672068
     19          1           0        5.830264   -1.951636    0.302888
     20          1           0        5.270261   -3.223174   -0.796611
     21          6           0       -3.973334   -0.395670    0.228116
     22          6           0       -4.291203   -0.387606   -1.267504
     23          6           0       -5.779756   -0.583690   -1.556558
     24          1           0       -4.310635   -1.346457    0.663059
     25          1           0       -4.551423    0.396973    0.723015
     26          1           0       -3.711637   -1.179129   -1.759652
     27          1           0       -3.952932    0.563195   -1.698975
     28          1           0       -6.370555    0.212283   -1.091815
     29          1           0       -6.127888   -1.539941   -1.152837
     30          1           0       -5.984555   -0.574612   -2.631655
     31          6           0       -2.489175   -0.200749    0.533086
     32          6           0       -2.171306   -0.208813    2.028707
     33          6           0       -0.682752   -0.012729    2.317760
     34          1           0       -1.911085   -0.993391    0.038187
     35          1           0       -2.151874    0.750039    0.098143
     36          1           0       -2.509576   -1.159614    2.460177
     37          1           0       -2.750872    0.582711    2.520855
     38          1           0       -0.334621    0.943522    1.914040
     39          1           0       -0.091955   -0.808702    1.853017
     40          1           0       -0.477954   -0.021807    3.392858
 ---------------------------------------------------------------------

 SCF Done:  E(RHF) =  -470.733290598     A.U. after   11 cycles
 E2 =    -0.1582980916D+01 EUMP2 =    -0.47231627151437D+03

 The electronic state is 1-A.
 Alpha  occ. eigenvalues --  -11.21668 -11.21635 -11.21571 -11.21496 -11.21461
 Alpha  occ. eigenvalues --  -11.21398 -11.21348 -11.21288 -11.21152 -11.21095
 Alpha  occ. eigenvalues --  -11.21054 -11.21050  -1.08485  -1.08376  -1.03590
 Alpha  occ. eigenvalues --   -1.03483  -0.96039  -0.95942  -0.87063  -0.86953
 Alpha  occ. eigenvalues --   -0.79682  -0.79523  -0.78304  -0.78179  -0.65127
 Alpha  occ. eigenvalues --   -0.65004  -0.61073  -0.60821  -0.59399  -0.59313
 Alpha  occ. eigenvalues --   -0.57657  -0.57541  -0.55378  -0.55181  -0.52731
 Alpha  occ. eigenvalues --   -0.52645  -0.52480  -0.52362  -0.50047  -0.49828
 Alpha  occ. eigenvalues --   -0.48084  -0.47793  -0.46759  -0.46464  -0.45923
 Alpha  occ. eigenvalues --   -0.45761  -0.45687  -0.45523  -0.43838  -0.43739
 Alpha virt. eigenvalues --    0.20824   0.23001   0.23589   0.24901   0.25589
 Alpha virt. eigenvalues --    0.26275   0.26812   0.27754   0.28249   0.29347
 Alpha virt. eigenvalues --    0.30374   0.31324   0.31812   0.31917   0.31931

 Mulliken charges:
               1
     1  C   -0.297632
     2  C   -0.307086
     3  C   -0.476546
     4  H    0.149219
     5  H    0.149644
     6  H    0.151513
     7  H    0.160294
     8  H    0.155113
     9  H    0.155397
    10  H    0.159521
    11  C   -0.299463
    12  C   -0.299582
    13  C   -0.475644
    14  H    0.149426
    15  H    0.150904
    16  H    0.151886
    17  H    0.151593
    18  H    0.155029
    19  H    0.155211
    20  H    0.160076
    21  C   -0.298307
    22  C   -0.299748
    23  C   -0.475746
    24  H    0.149810
    25  H    0.149787
    26  H    0.151871
    27  H    0.152087
    28  H    0.155300
    29  H    0.155215
    30  H    0.160409
    31  C   -0.298902
    32  C   -0.299604
    33  C   -0.481405
    34  H    0.149149
    35  H    0.150002
    36  H    0.152202
    37  H    0.152383
    38  H    0.160595
    39  H    0.155039
    40  H    0.160991
 Sum of Mulliken charges =  -0.00000

 Dipole moment (field-independent basis, Debye):
    X=             -0.0354    Y=             -0.0042    Z=              0.0265  Tot=              0.0445
 Quadrupole moment (field-independent basis, Debye-Ang):
   XX=            -85.4971   YY=            -84.2677   ZZ=            -85.0211
   XY=              0.6670   XZ=             -0.8130   YZ=              0.2429

 Normal termination of Gaussian 16 at Thu May  6 05:23:11 2021.
