 Gaussian 16, Revision A.03,
 Gaussian 16:  EM64L-G16RevA.03 25-Dec-2016

 -------------
 #p 6-31g* mp2
 -------------

 ------------------------------------------------------
 Input file generated by CHIRIPA (05-May-2021 14:55:22)
 ------------------------------------------------------
 Symbolic Z-matrix:
 Charge =  0 Multiplicity = 1

                         Standard orientation:
 ---------------------------------------------------------------------
 Center     Atomic      Atomic             Coordinates (Angstroms)
 Number     Number       Type             X           Y           Z
 ---------------------------------------------------------------------
      1          6           0        2.579119    2.381318    0.344034
      2          6           0        3.547938    2.032496   -0.602663
      3          6           0        3.975254    0.707081   -0.726046
      4          6           0        3.410010   -0.248223    0.117270
      5          6           0        2.442983    0.068003    1.070239
      6          6           0        2.030701    1.399688    1.175997
      7          1           0        2.253009    3.413368    0.433035
      8          1           0        3.975589    2.792742   -1.250109
      9          1           0        4.723720    0.409405   -1.450342
     10          1           0        2.035041   -0.711987    1.701601
     11          1           0        1.278140    1.667692    1.912116
     12          7           0        3.854433   -1.654700   -0.004020
     13          8           0        3.340949   -2.477633    0.750799
     14          8           0        4.707840   -1.907532   -0.851610
     15          6           0       -4.866152   -0.437363   -0.314195
     16          6           0       -6.161135    0.033078    0.348895
     17          6           0       -7.342618   -0.894238    0.062577
     18          1           0       -5.022617   -0.509926   -1.399182
     19          1           0       -4.630543   -1.451823    0.036168
     20          1           0       -6.393494    1.046888   -0.001556
     21          1           0       -6.001512    0.104713    1.432410
     22          1           0       -7.136081   -1.905391    0.427967
     23          1           0       -7.530291   -0.957864   -1.014146
     24          1           0       -8.258030   -0.539162    0.546108
     25          6           0       -3.675963    0.479396   -0.037192
     26          6           0       -2.380979    0.008955   -0.700281
     27          6           0       -1.199496    0.936270   -0.413963
     28          1           0       -3.911573    1.493856   -0.387554
     29          1           0       -3.519497    0.551959    1.047796
     30          1           0       -2.540603   -0.062681   -1.783796
     31          1           0       -2.148621   -1.004854   -0.349830
     32          1           0       -1.011824    0.999897    0.662760
     33          1           0       -1.406033    1.947425   -0.779353
     34          1           0       -0.284084    0.581196   -0.897494
 ---------------------------------------------------------------------

 SCF Done:  E(RHF) =  -669.534945711     A.U. after   15 cycles
 E2 =    -0.2091875090D+01 EUMP2 =    -0.67162682080094D+03

 The electronic state is 1-A.
 Alpha  occ. eigenvalues --  -20.60761 -20.60756 -15.85814 -11.31179 -11.27725
 Alpha  occ. eigenvalues --  -11.27716 -11.27457 -11.26756 -11.26734 -11.21862
 Alpha  occ. eigenvalues --  -11.21784 -11.21669 -11.21559 -11.21469 -11.21203
 Alpha  occ. eigenvalues --   -1.59837  -1.39390  -1.19344  -1.08741  -1.08668
 Alpha  occ. eigenvalues --   -1.04749  -1.03775  -0.96239  -0.95572  -0.87267
 Alpha  occ. eigenvalues --   -0.86136  -0.82407  -0.79845  -0.78480  -0.77455
 Alpha  occ. eigenvalues --   -0.72032  -0.71161  -0.70439  -0.65309  -0.64992
 Alpha  occ. eigenvalues --   -0.64753  -0.62109  -0.61173  -0.59605  -0.57841
 Alpha  occ. eigenvalues --   -0.55568  -0.55228  -0.53404  -0.52891  -0.52618
 Alpha  occ. eigenvalues --   -0.52576  -0.50184  -0.48791  -0.48787  -0.48159
 Alpha  occ. eigenvalues --   -0.46877  -0.46027  -0.45944  -0.44796  -0.44022
 Alpha  occ. eigenvalues --   -0.37305  -0.36281
 Alpha virt. eigenvalues --    0.05073   0.11268   0.16543   0.20892   0.22687
 Alpha virt. eigenvalues --    0.24047   0.25866   0.26672   0.27388   0.28297
 Alpha virt. eigenvalues --    0.28434   0.30091   0.31356   0.31726   0.32118

 Mulliken charges:
               1
     1  C   -0.171624
     2  C   -0.218535
     3  C   -0.171762
     4  C    0.158061
     5  C   -0.171956
     6  C   -0.211523
     7  H    0.225744
     8  H    0.223356
     9  H    0.275410
    10  H    0.275194
    11  H    0.223456
    12  N    0.488094
    13  O   -0.460526
    14  O   -0.460436
    15  C   -0.298583
    16  C   -0.299685
    17  C   -0.475876
    18  H    0.150539
    19  H    0.151076
    20  H    0.151405
    21  H    0.151453
    22  H    0.156078
    23  H    0.155647
    24  H    0.160444
    25  C   -0.298148
    26  C   -0.300822
    27  C   -0.474838
    28  H    0.148503
    29  H    0.147455
    30  H    0.153681
    31  H    0.154735
    32  H    0.144839
    33  H    0.151716
    34  H    0.167426
 Sum of Mulliken charges =  -0.00000

 Dipole moment (field-independent basis, Debye):
    X=             -1.5863    Y=              4.9414    Z=              0.3923  Tot=              5.2046
 Quadrupole moment (field-independent basis, Debye-Ang):
   XX=           -104.8320   YY=            -97.5439   ZZ=            -91.6651
   XY=             17.9368   XZ=             -1.2156   YZ=             -1.1566

 Normal termination of Gaussian 16 at Thu May  6 17:34:01 2021.
