 Gaussian 16, Revision A.03,
 Gaussian 16:  EM64L-G16RevA.03 25-Dec-2016

 -------------
 #p 6-31g* mp2
 -------------

 ------------------------------------------------------
 Input file generated by CHIRIPA (05-May-2021 14:55:20)
 ------------------------------------------------------
 Symbolic Z-matrix:
 Charge =  0 Multiplicity = 1

                         Standard orientation:
 ---------------------------------------------------------------------
 Center     Atomic      Atomic             Coordinates (Angstroms)
 Number     Number       Type             X           Y           Z
 ---------------------------------------------------------------------
      1          6           0       -3.401015   -2.131959   -0.987836
      2          6           0       -3.337990   -0.899309   -1.645957
      3          6           0       -2.813126    0.224217   -1.000390
      4          6           0       -2.358237    0.078578    0.309250
      5          6           0       -2.407590   -1.135979    0.991675
      6          6           0       -2.936432   -2.246158    0.326562
      7          1           0       -3.810287   -2.999556   -1.496920
      8          1           0       -3.698052   -0.807673   -2.666742
      9          1           0       -2.752475    1.190460   -1.486304
     10          1           0       -2.040879   -1.196278    2.009175
     11          1           0       -2.984135   -3.202196    0.840139
     12          7           0       -1.800481    1.260940    1.003029
     13          8           0       -1.406294    1.106419    2.156882
     14          8           0       -1.768060    2.319807    0.379823
     15          6           0        3.154361    0.901997   -0.375464
     16          6           0        1.772051    1.510268   -0.614657
     17          6           0        1.824813    3.017664   -0.865192
     18          1           0        3.624256    1.401556    0.482781
     19          1           0        3.793397    1.107914   -1.245307
     20          1           0        1.135390    1.302071    0.254787
     21          1           0        1.305315    1.009072   -1.472315
     22          1           0        2.437518    3.240807   -1.744624
     23          1           0        2.266629    3.535470   -0.007710
     24          1           0        0.825854    3.431830   -1.033740
     25          6           0        3.118054   -0.604296   -0.123497
     26          6           0        4.500363   -1.212567    0.115696
     27          6           0        4.447603   -2.719963    0.366232
     28          1           0        2.479018   -0.810214    0.746345
     29          1           0        2.648159   -1.103855   -0.981743
     30          1           0        4.967101   -0.711372    0.973353
     31          1           0        5.137025   -1.004370   -0.753747
     32          1           0        4.005787   -3.237769   -0.491251
     33          1           0        3.834897   -2.943106    1.245663
     34          1           0        5.446561   -3.134129    0.534778
 ---------------------------------------------------------------------

 SCF Done:  E(RHF) =  -669.536287162     A.U. after   15 cycles
 E2 =    -0.2092007358D+01 EUMP2 =    -0.67162829451968D+03

 The electronic state is 1-A.
 Alpha  occ. eigenvalues --  -20.60925 -20.60917 -15.85939 -11.31251 -11.27816
 Alpha  occ. eigenvalues --  -11.27812 -11.27553 -11.26822 -11.26812 -11.21314
 Alpha  occ. eigenvalues --  -11.20994 -11.20910 -11.20839 -11.20772 -11.20025
 Alpha  occ. eigenvalues --   -1.59979  -1.39534  -1.19419  -1.08827  -1.07924
 Alpha  occ. eigenvalues --   -1.04816  -1.02969  -0.95674  -0.95410  -0.86436
 Alpha  occ. eigenvalues --   -0.86217  -0.82509  -0.79077  -0.77740  -0.77563
 Alpha  occ. eigenvalues --   -0.72169  -0.71298  -0.70533  -0.65077  -0.64822
 Alpha  occ. eigenvalues --   -0.64551  -0.62165  -0.60364  -0.58807  -0.57000
 Alpha  occ. eigenvalues --   -0.55324  -0.54714  -0.53143  -0.52910  -0.52081
 Alpha  occ. eigenvalues --   -0.51845  -0.49379  -0.48931  -0.48923  -0.47376
 Alpha  occ. eigenvalues --   -0.46113  -0.45276  -0.45168  -0.44928  -0.43219
 Alpha  occ. eigenvalues --   -0.37394  -0.36414
 Alpha virt. eigenvalues --    0.04939   0.11229   0.16410   0.21341   0.23339
 Alpha virt. eigenvalues --    0.24864   0.27038   0.27285   0.27702   0.28262
 Alpha virt. eigenvalues --    0.28673   0.30871   0.31820   0.32121   0.32240

 Mulliken charges:
               1
     1  C   -0.170523
     2  C   -0.218707
     3  C   -0.170366
     4  C    0.158583
     5  C   -0.170732
     6  C   -0.218455
     7  H    0.225858
     8  H    0.223632
     9  H    0.275592
    10  H    0.275531
    11  H    0.223733
    12  N    0.488836
    13  O   -0.460088
    14  O   -0.459104
    15  C   -0.297512
    16  C   -0.302494
    17  C   -0.476833
    18  H    0.151526
    19  H    0.146833
    20  H    0.159611
    21  H    0.143737
    22  H    0.147175
    23  H    0.156382
    24  H    0.173408
    25  C   -0.298218
    26  C   -0.299143
    27  C   -0.475257
    28  H    0.150303
    29  H    0.145928
    30  H    0.153077
    31  H    0.151074
    32  H    0.152895
    33  H    0.154246
    34  H    0.159474
 Sum of Mulliken charges =  -0.00000

 Dipole moment (field-independent basis, Debye):
    X=             -2.1434    Y=             -4.0714    Z=             -2.3599  Tot=              5.1710
 Quadrupole moment (field-independent basis, Debye-Ang):
   XX=            -86.5604   YY=            -95.3198   ZZ=            -92.3491
   XY=              9.5833   XZ=              6.2445   YZ=             -3.5606

 Normal termination of Gaussian 16 at Wed May  5 23:47:48 2021.
