 Gaussian 16, Revision A.03,
 Gaussian 16:  EM64L-G16RevA.03 25-Dec-2016

 -------------
 #p 6-31g* mp2
 -------------

 ------------------------------------------------------
 Input file generated by CHIRIPA (05-May-2021 14:53:11)
 ------------------------------------------------------
 Symbolic Z-matrix:
 Charge =  0 Multiplicity = 1

                         Standard orientation:
 ---------------------------------------------------------------------
 Center     Atomic      Atomic             Coordinates (Angstroms)
 Number     Number       Type             X           Y           Z
 ---------------------------------------------------------------------
      1          6           0        4.130334    0.156380    0.471364
      2          6           0        4.824422   -1.006562   -0.238421
      3          6           0        5.860892   -1.703489    0.643518
      4          1           0        4.886989    0.884042    0.795287
      5          1           0        3.645103   -0.217119    1.383748
      6          1           0        5.307033   -0.631233   -1.149921
      7          1           0        4.066010   -1.731447   -0.560861
      8          1           0        5.390516   -2.104936    1.546949
      9          1           0        6.638590   -0.998471    0.954543
     10          1           0        6.344841   -2.531607    0.116381
     11          6           0        3.091396    0.863109   -0.397467
     12          6           0        2.397308    2.026050    0.312318
     13          6           0        1.360838    2.722977   -0.569621
     14          1           0        3.576627    1.236607   -1.309851
     15          1           0        2.334741    0.135447   -0.721391
     16          1           0        3.155721    2.750936    0.634758
     17          1           0        1.914697    1.650722    1.223817
     18          1           0        0.583140    2.017960   -0.880646
     19          1           0        1.831214    3.124425   -1.473052
     20          1           0        0.876889    3.551096   -0.042484
     21          6           0       -3.598582    1.972824    0.344414
     22          6           0       -4.395249    0.901135    0.760735
     23          6           0       -3.974429   -0.416737    0.559057
     24          6           0       -2.745814   -0.627463   -0.064953
     25          6           0       -1.929560    0.419195   -0.491011
     26          6           0       -2.370444    1.728864   -0.279031
     27          1           0       -3.933278    2.993392    0.505084
     28          1           0       -5.349499    1.087606    1.245174
     29          1           0       -4.571316   -1.265014    0.871415
     30          1           0       -0.983182    0.201796   -0.971141
     31          1           0       -1.749659    2.559202   -0.603392
     32          7           0       -2.289689   -2.018293   -0.283914
     33          8           0       -1.203170   -2.177337   -0.836018
     34          8           0       -3.027334   -2.923045    0.100715
 ---------------------------------------------------------------------

 SCF Done:  E(RHF) =  -669.534765881     A.U. after   15 cycles
 E2 =    -0.2092218247D+01 EUMP2 =    -0.67162698412807D+03

 The electronic state is 1-A.
 Alpha  occ. eigenvalues --  -20.60781 -20.60776 -15.85831 -11.31170 -11.27726
 Alpha  occ. eigenvalues --  -11.27714 -11.27448 -11.26744 -11.26665 -11.22058
 Alpha  occ. eigenvalues --  -11.21955 -11.21554 -11.21441 -11.21361 -11.20889
 Alpha  occ. eigenvalues --   -1.59855  -1.39410  -1.19331  -1.08730  -1.08578
 Alpha  occ. eigenvalues --   -1.04740  -1.03743  -0.96234  -0.95573  -0.87272
 Alpha  occ. eigenvalues --   -0.86125  -0.82415  -0.79834  -0.78325  -0.77458
 Alpha  occ. eigenvalues --   -0.72051  -0.71176  -0.70458  -0.65237  -0.64972
 Alpha  occ. eigenvalues --   -0.64739  -0.62237  -0.61025  -0.59643  -0.57794
 Alpha  occ. eigenvalues --   -0.55567  -0.55175  -0.53097  -0.53042  -0.52688
 Alpha  occ. eigenvalues --   -0.52645  -0.50165  -0.48807  -0.48802  -0.48129
 Alpha  occ. eigenvalues --   -0.46821  -0.45880  -0.45751  -0.44821  -0.43968
 Alpha  occ. eigenvalues --   -0.37309  -0.36319
 Alpha virt. eigenvalues --    0.05058   0.11312   0.16534   0.20048   0.22864
 Alpha virt. eigenvalues --    0.24035   0.25521   0.26398   0.27053   0.28191
 Alpha virt. eigenvalues --    0.29571   0.29983   0.31244   0.31533   0.32184

 Mulliken charges:
               1
     1  C   -0.298504
     2  C   -0.301318
     3  C   -0.475975
     4  H    0.148524
     5  H    0.151607
     6  H    0.150940
     7  H    0.158498
     8  H    0.156442
     9  H    0.153569
    10  H    0.161377
    11  C   -0.301699
    12  C   -0.299755
    13  C   -0.480866
    14  H    0.149745
    15  H    0.155295
    16  H    0.154210
    17  H    0.154632
    18  H    0.147028
    19  H    0.160139
    20  H    0.157449
    21  C   -0.171659
    22  C   -0.218448
    23  C   -0.171279
    24  C    0.159544
    25  C   -0.177761
    26  C   -0.220455
    27  H    0.225566
    28  H    0.223288
    29  H    0.275347
    30  H    0.277814
    31  H    0.229895
    32  N    0.488781
    33  O   -0.461750
    34  O   -0.460224
 Sum of Mulliken charges =  -0.00000

 Dipole moment (field-independent basis, Debye):
    X=             -1.4736    Y=              4.8549    Z=              0.8001  Tot=              5.1363
 Quadrupole moment (field-independent basis, Debye-Ang):
   XX=            -82.3663   YY=           -100.8616   ZZ=            -94.8374
   XY=            -10.1689   XZ=             -4.8349   YZ=             -1.5174

 Normal termination of Gaussian 16 at Thu May  6 00:54:13 2021.
