 Gaussian 16, Revision A.03,
 Gaussian 16:  EM64L-G16RevA.03 25-Dec-2016

 -------------
 #p 6-31g* mp2
 -------------

 ------------------------------------------------------
 Input file generated by CHIRIPA (05-May-2021 14:57:26)
 ------------------------------------------------------
 Symbolic Z-matrix:
 Charge =  0 Multiplicity = 1

                         Standard orientation:
 ---------------------------------------------------------------------
 Center     Atomic      Atomic             Coordinates (Angstroms)
 Number     Number       Type             X           Y           Z
 ---------------------------------------------------------------------
      1          6           0        4.220825    2.549974    0.352997
      2          6           0        2.929842    2.044206    0.168387
      3          6           0        2.729021    0.682417   -0.076050
      4          6           0        3.846813   -0.148826   -0.129581
      5          6           0        5.145461    0.324953    0.050242
      6          6           0        5.322572    1.690249    0.293440
      7          1           0        4.367619    3.609207    0.542400
      8          1           0        2.072352    2.709538    0.214103
      9          1           0        1.740534    0.264282   -0.222594
     10          1           0        5.980666   -0.362961   -0.000989
     11          1           0        6.326315    2.080249    0.436431
     12          7           0        3.646763   -1.592347   -0.387699
     13          8           0        4.648073   -2.303838   -0.430082
     14          8           0        2.492442   -1.984955   -0.542743
     15          6           0       -2.003342   -1.665221    0.687608
     16          6           0       -3.313756   -2.143664    0.585484
     17          6           0       -4.361290   -1.279424    0.253358
     18          6           0       -4.061191    0.063291    0.028979
     19          6           0       -2.766006    0.570174    0.123084
     20          6           0       -1.734124   -0.312215    0.456489
     21          1           0       -1.195672   -2.343632    0.946109
     22          1           0       -3.525782   -3.193935    0.764430
     23          1           0       -5.384956   -1.623173    0.167554
     24          1           0       -2.585708    1.622319   -0.061038
     25          1           0       -0.717403    0.062143    0.535092
     26          7           0       -5.161883    0.987829   -0.323306
     27          8           0       -4.871273    2.166387   -0.516137
     28          8           0       -6.294376    0.516419   -0.399924
 ---------------------------------------------------------------------

 SCF Done:  E(RHF) =  -868.338026126     A.U. after   16 cycles
 E2 =    -0.2599167861D+01 EUMP2 =    -0.87093719398652D+03

 The electronic state is 1-A.
 Alpha  occ. eigenvalues --  -20.61598 -20.61554 -20.60759 -20.60747 -15.86630
 Alpha  occ. eigenvalues --  -15.85812 -11.31943 -11.31122 -11.28593 -11.28439
 Alpha  occ. eigenvalues --  -11.28165 -11.27775 -11.27680 -11.27514 -11.27431
 Alpha  occ. eigenvalues --  -11.27332 -11.26778 -11.26610  -1.60648  -1.59833
 Alpha  occ. eigenvalues --   -1.40207  -1.39389  -1.20092  -1.19295  -1.09482
 Alpha  occ. eigenvalues --   -1.08669  -1.05498  -1.04717  -0.96338  -0.95514
 Alpha  occ. eigenvalues --   -0.86892  -0.86100  -0.83181  -0.82373  -0.78255
 Alpha  occ. eigenvalues --   -0.77451  -0.72852  -0.72030  -0.71965  -0.71200
 Alpha  occ. eigenvalues --   -0.71156  -0.70328  -0.65747  -0.65514  -0.64944
 Alpha  occ. eigenvalues --   -0.64737  -0.62878  -0.62062  -0.55962  -0.55103
 Alpha  occ. eigenvalues --   -0.53808  -0.53609  -0.53013  -0.52794  -0.49619
 Alpha  occ. eigenvalues --   -0.49589  -0.48790  -0.48781  -0.45626  -0.44808
 Alpha  occ. eigenvalues --   -0.38035  -0.37212  -0.37092  -0.36328
 Alpha virt. eigenvalues --    0.04289   0.05124   0.10554   0.11310   0.15818
 Alpha virt. eigenvalues --    0.16621   0.18590   0.22049   0.24762   0.27177
 Alpha virt. eigenvalues --    0.28384   0.29170   0.30349   0.30945   0.32144

 Mulliken charges:
               1
     1  C   -0.170058
     2  C   -0.219038
     3  C   -0.178733
     4  C    0.160098
     5  C   -0.169672
     6  C   -0.218071
     7  H    0.228957
     8  H    0.223262
     9  H    0.274366
    10  H    0.277533
    11  H    0.226446
    12  N    0.487976
    13  O   -0.456206
    14  O   -0.466700
    15  C   -0.170264
    16  C   -0.219210
    17  C   -0.170232
    18  C    0.158254
    19  C   -0.171926
    20  C   -0.220050
    21  H    0.237246
    22  H    0.225531
    23  H    0.275778
    24  H    0.271339
    25  H    0.217655
    26  N    0.488305
    27  O   -0.462647
    28  O   -0.459938
 Sum of Mulliken charges =  -0.00000

 Dipole moment (field-independent basis, Debye):
    X=              4.8386    Y=              1.7260    Z=              2.1874  Tot=              5.5835
 Quadrupole moment (field-independent basis, Debye-Ang):
   XX=           -122.8624   YY=           -104.0642   ZZ=           -106.7183
   XY=             35.9830   XZ=             -1.4251   YZ=             -1.1462

 Normal termination of Gaussian 16 at Thu May  6 06:45:47 2021.
