 Gaussian 16, Revision A.03,
 Gaussian 16:  EM64L-G16RevA.03 25-Dec-2016

 -------------
 #p 6-31g* mp2
 -------------

 ------------------------------------------------------
 Input file generated by CHIRIPA (05-May-2021 14:53:11)
 ------------------------------------------------------
 Symbolic Z-matrix:
 Charge =  0 Multiplicity = 1

                         Standard orientation:
 ---------------------------------------------------------------------
 Center     Atomic      Atomic             Coordinates (Angstroms)
 Number     Number       Type             X           Y           Z
 ---------------------------------------------------------------------
      1          6           0        4.027471    0.837222   -0.198263
      2          6           0        2.688245    1.573879   -0.240607
      3          6           0        2.849401    3.094328   -0.232889
      4          1           0        4.579373    1.144317    0.700648
      5          1           0        4.635687    1.146781   -1.059450
      6          1           0        2.082190    1.261983    0.619646
      7          1           0        2.139385    1.264850   -1.139422
      8          1           0        3.432303    3.424339   -1.098867
      9          1           0        3.374784    3.421456    0.670196
     10          1           0        1.879750    3.600978   -0.263590
     11          6           0        3.882856   -0.683556   -0.205444
     12          6           0        5.222083   -1.420213   -0.163101
     13          6           0        5.060927   -2.940662   -0.170819
     14          1           0        3.274641   -0.993115    0.655742
     15          1           0        3.330955   -0.990651   -1.104356
     16          1           0        5.770943   -1.111184    0.735715
     17          1           0        5.828138   -1.108317   -1.023353
     18          1           0        4.535544   -3.267790   -1.073903
     19          1           0        4.478024   -3.270673    0.695160
     20          1           0        6.030577   -3.447312   -0.140117
     21          6           0       -1.034401    1.098251    1.051537
     22          6           0       -1.910375    1.782976    0.202807
     23          6           0       -3.052366    1.151161   -0.298409
     24          6           0       -3.288697   -0.172003    0.071285
     25          6           0       -2.434949   -0.880928    0.914987
     26          6           0       -1.299018   -0.229175    1.404296
     27          1           0       -0.149629    1.596804    1.436270
     28          1           0       -1.707397    2.813929   -0.072836
     29          1           0       -3.747286    1.657677   -0.957154
     30          1           0       -2.663906   -1.908032    1.171995
     31          1           0       -0.620483   -0.763412    2.063256
     32          7           0       -4.494463   -0.851432   -0.453027
     33          8           0       -4.680199   -2.017649   -0.112326
     34          8           0       -5.230977   -0.204886   -1.194759
 ---------------------------------------------------------------------

 SCF Done:  E(RHF) =  -669.535268482     A.U. after   15 cycles
 E2 =    -0.2091450516D+01 EUMP2 =    -0.67162671899751D+03

 The electronic state is 1-A.
 Alpha  occ. eigenvalues --  -20.60737 -20.60731 -15.85791 -11.31149 -11.27726
 Alpha  occ. eigenvalues --  -11.27722 -11.27436 -11.26734 -11.26723 -11.22593
 Alpha  occ. eigenvalues --  -11.22163 -11.22141 -11.22074 -11.22039 -11.21524
 Alpha  occ. eigenvalues --   -1.59813  -1.39366  -1.19324  -1.09181  -1.08716
 Alpha  occ. eigenvalues --   -1.04728  -1.04282  -0.96716  -0.95554  -0.87728
 Alpha  occ. eigenvalues --   -0.86125  -0.82394  -0.80360  -0.78971  -0.77437
 Alpha  occ. eigenvalues --   -0.72009  -0.71136  -0.70451  -0.65811  -0.64976
 Alpha  occ. eigenvalues --   -0.64735  -0.62079  -0.61680  -0.60121  -0.58335
 Alpha  occ. eigenvalues --   -0.56001  -0.55214  -0.53423  -0.53141  -0.53047
 Alpha  occ. eigenvalues --   -0.52821  -0.50645  -0.48778  -0.48764  -0.48644
 Alpha  occ. eigenvalues --   -0.47384  -0.46506  -0.46418  -0.44774  -0.44527
 Alpha  occ. eigenvalues --   -0.37275  -0.36335
 Alpha virt. eigenvalues --    0.05083   0.11296   0.16510   0.19673   0.22544
 Alpha virt. eigenvalues --    0.23761   0.25357   0.26228   0.26502   0.27938
 Alpha virt. eigenvalues --    0.28973   0.29873   0.30901   0.31278   0.31896

 Mulliken charges:
               1
     1  C   -0.298648
     2  C   -0.301480
     3  C   -0.476382
     4  H    0.150220
     5  H    0.152802
     6  H    0.141260
     7  H    0.157500
     8  H    0.160882
     9  H    0.156848
    10  H    0.153713
    11  C   -0.297831
    12  C   -0.300273
    13  C   -0.476004
    14  H    0.145167
    15  H    0.152540
    16  H    0.152196
    17  H    0.153672
    18  H    0.156869
    19  H    0.154270
    20  H    0.162198
    21  C   -0.169132
    22  C   -0.220229
    23  C   -0.170956
    24  C    0.158324
    25  C   -0.170834
    26  C   -0.219600
    27  H    0.229137
    28  H    0.223166
    29  H    0.275426
    30  H    0.275474
    31  H    0.222787
    32  N    0.488086
    33  O   -0.460569
    34  O   -0.460595
 Sum of Mulliken charges =  -0.00000

 Dipole moment (field-independent basis, Debye):
    X=              4.4343    Y=              2.3664    Z=              1.7548  Tot=              5.3238
 Quadrupole moment (field-independent basis, Debye-Ang):
   XX=           -122.4800   YY=            -93.5193   ZZ=            -92.8080
   XY=             -9.8266   XZ=             -5.3900   YZ=             -2.6205

 Normal termination of Gaussian 16 at Wed May  5 20:06:02 2021.
