 Gaussian 16, Revision A.03,
 Gaussian 16:  EM64L-G16RevA.03 25-Dec-2016

 -------------
 #p 6-31g* mp2
 -------------

 ------------------------------------------------------
 Input file generated by CHIRIPA (05-May-2021 14:53:12)
 ------------------------------------------------------
 Symbolic Z-matrix:
 Charge =  0 Multiplicity = 1

                         Standard orientation:
 ---------------------------------------------------------------------
 Center     Atomic      Atomic             Coordinates (Angstroms)
 Number     Number       Type             X           Y           Z
 ---------------------------------------------------------------------
      1          6           0       -3.413667    0.990341   -0.140647
      2          6           0       -2.499233    1.734572    0.832962
      3          6           0       -2.272794    3.193063    0.433810
      4          1           0       -2.977933    1.032813   -1.148257
      5          1           0       -4.379926    1.510629   -0.195770
      6          1           0       -1.535468    1.212249    0.887284
      7          1           0       -2.937098    1.690159    1.838407
      8          1           0       -3.223517    3.734782    0.398215
      9          1           0       -1.813923    3.254157   -0.558312
     10          1           0       -1.616297    3.706211    1.143422
     11          6           0       -3.649566   -0.468905    0.244943
     12          6           0       -4.564000   -1.213137   -0.728666
     13          6           0       -4.790439   -2.671628   -0.329514
     14          1           0       -2.683307   -0.989194    0.300067
     15          1           0       -4.085300   -0.511378    1.252553
     16          1           0       -4.126135   -1.168723   -1.734110
     17          1           0       -5.527765   -0.690814   -0.782988
     18          1           0       -5.249310   -2.732722    0.662608
     19          1           0       -3.839716   -3.213347   -0.293919
     20          1           0       -5.446936   -3.184776   -1.039126
     21          6           0        2.570232    2.271459   -0.492317
     22          6           0        1.421629    1.518785   -0.226394
     23          6           0        1.514363    0.146691    0.025211
     24          6           0        2.777332   -0.442974    0.002916
     25          6           0        3.940156    0.279943   -0.258851
     26          6           0        3.823620    1.650730   -0.507670
     27          1           0        2.488949    3.336827   -0.686687
     28          1           0        0.446920    1.998189   -0.213823
     29          1           0        0.641427   -0.459820    0.233884
     30          1           0        4.897969   -0.226003   -0.264562
     31          1           0        4.717346    2.232770   -0.713896
     32          7           0        2.888104   -1.894856    0.267804
     33          8           0        4.012454   -2.390668    0.242404
     34          8           0        1.848481   -2.509538    0.495808
 ---------------------------------------------------------------------

 SCF Done:  E(RHF) =  -669.535192825     A.U. after   15 cycles
 E2 =    -0.2092278354D+01 EUMP2 =    -0.67162747117846D+03

 The electronic state is 1-A.
 Alpha  occ. eigenvalues --  -20.60750 -20.60745 -15.85802 -11.31157 -11.27721
 Alpha  occ. eigenvalues --  -11.27714 -11.27446 -11.26736 -11.26661 -11.22567
 Alpha  occ. eigenvalues --  -11.22161 -11.22043 -11.21842 -11.21771 -11.21108
 Alpha  occ. eigenvalues --   -1.59826  -1.39380  -1.19322  -1.09024  -1.08716
 Alpha  occ. eigenvalues --   -1.04731  -1.04110  -0.96553  -0.95557  -0.87567
 Alpha  occ. eigenvalues --   -0.86120  -0.82398  -0.80210  -0.78752  -0.77446
 Alpha  occ. eigenvalues --   -0.72021  -0.71148  -0.70436  -0.65772  -0.64969
 Alpha  occ. eigenvalues --   -0.64713  -0.62262  -0.61304  -0.59956  -0.58127
 Alpha  occ. eigenvalues --   -0.55871  -0.55199  -0.53258  -0.53052  -0.52953
 Alpha  occ. eigenvalues --   -0.52765  -0.50512  -0.48779  -0.48777  -0.48488
 Alpha  occ. eigenvalues --   -0.47270  -0.46292  -0.46188  -0.44788  -0.44340
 Alpha  occ. eigenvalues --   -0.37300  -0.36322
 Alpha virt. eigenvalues --    0.05082   0.11317   0.16548   0.18785   0.22846
 Alpha virt. eigenvalues --    0.23445   0.24398   0.26197   0.27193   0.28743
 Alpha virt. eigenvalues --    0.29815   0.30801   0.30928   0.31309   0.32255

 Mulliken charges:
               1
     1  C   -0.298744
     2  C   -0.305784
     3  C   -0.482653
     4  H    0.148513
     5  H    0.152721
     6  H    0.145288
     7  H    0.159490
     8  H    0.163775
     9  H    0.149407
    10  H    0.161219
    11  C   -0.300022
    12  C   -0.300094
    13  C   -0.476996
    14  H    0.150906
    15  H    0.152140
    16  H    0.152508
    17  H    0.151882
    18  H    0.155634
    19  H    0.160212
    20  H    0.161210
    21  C   -0.172978
    22  C   -0.227358
    23  C   -0.176220
    24  C    0.159209
    25  C   -0.171126
    26  C   -0.218465
    27  H    0.226018
    28  H    0.238433
    29  H    0.276354
    30  H    0.275420
    31  H    0.223265
    32  N    0.488258
    33  O   -0.460498
    34  O   -0.460923
 Sum of Mulliken charges =  -0.00000

 Dipole moment (field-independent basis, Debye):
    X=             -0.6081    Y=              5.0884    Z=             -0.8989  Tot=              5.2029
 Quadrupole moment (field-independent basis, Debye-Ang):
   XX=            -90.5115   YY=           -100.7301   ZZ=            -95.2639
   XY=             14.3453   XZ=             -3.8785   YZ=              0.7941

 Normal termination of Gaussian 16 at Thu May  6 13:37:49 2021.
