 Gaussian 16, Revision A.03,
 Gaussian 16:  EM64L-G16RevA.03 25-Dec-2016

 -------------
 #p 6-31g* mp2
 -------------

 ------------------------------------------------------
 Input file generated by CHIRIPA (05-May-2021 14:51:09)
 ------------------------------------------------------
 Symbolic Z-matrix:
 Charge =  0 Multiplicity = 1

                         Standard orientation:
 ---------------------------------------------------------------------
 Center     Atomic      Atomic             Coordinates (Angstroms)
 Number     Number       Type             X           Y           Z
 ---------------------------------------------------------------------
      1          6           0       -3.831912   -0.264521    0.336309
      2          6           0       -4.558180    0.643202   -0.656948
      3          6           0       -5.795084    1.309471   -0.053668
      4          1           0       -4.527431   -1.035657    0.694842
      5          1           0       -3.539402    0.325823    1.215699
      6          1           0       -4.848013    0.051626   -1.534815
      7          1           0       -3.860796    1.412151   -1.013304
      8          1           0       -5.519437    1.923261    0.809977
      9          1           0       -6.512263    0.555006    0.285502
     10          1           0       -6.298940    1.953820   -0.780856
     11          6           0       -2.593255   -0.937775   -0.252068
     12          6           0       -1.866987   -1.845498    0.741189
     13          6           0       -0.630083   -2.511767    0.137909
     14          1           0       -2.885765   -1.528118   -1.131458
     15          1           0       -1.897735   -0.166639   -0.610601
     16          1           0       -2.564371   -2.614447    1.097545
     17          1           0       -1.577153   -1.253922    1.619056
     18          1           0        0.087097   -1.757301   -0.201261
     19          1           0       -0.905730   -3.125556   -0.725736
     20          1           0       -0.126226   -3.156116    0.865097
     21          6           0        3.753441    0.068703    0.043939
     22          6           0        3.300552   -1.329426   -0.378094
     23          6           0        4.393524   -2.383711   -0.200070
     24          1           0        4.638135    0.353084   -0.542057
     25          1           0        4.070537    0.041925    1.095665
     26          1           0        2.983101   -1.299715   -1.428312
     27          1           0        2.416721   -1.610434    0.208840
     28          1           0        4.704890   -2.442658    0.847870
     29          1           0        5.274489   -2.130174   -0.798585
     30          1           0        4.048372   -3.375710   -0.507750
     31          6           0        2.671725    1.133593   -0.128180
     32          6           0        3.124614    2.531722    0.293853
     33          6           0        2.031643    3.586007    0.115829
     34          1           0        2.354629    1.160371   -1.179906
     35          1           0        1.787032    0.849212    0.457816
     36          1           0        4.008446    2.812730   -0.293081
     37          1           0        3.442065    2.502011    1.344071
     38          1           0        1.150677    3.332470    0.714344
     39          1           0        1.720276    3.644954   -0.932111
     40          1           0        2.376795    4.578005    0.423509
 ---------------------------------------------------------------------

 SCF Done:  E(RHF) =  -470.733104387     A.U. after   11 cycles
 E2 =    -0.1582828454D+01 EUMP2 =    -0.47231593284030D+03

 The electronic state is 1-A.
 Alpha  occ. eigenvalues --  -11.21636 -11.21595 -11.21591 -11.21526 -11.21433
 Alpha  occ. eigenvalues --  -11.21396 -11.21355 -11.21336 -11.21111 -11.21063
 Alpha  occ. eigenvalues --  -11.21032 -11.21021  -1.08446  -1.08416  -1.03548
 Alpha  occ. eigenvalues --   -1.03501  -0.95989  -0.95964  -0.87028  -0.86962
 Alpha  occ. eigenvalues --   -0.79679  -0.79510  -0.78294  -0.78194  -0.65125
 Alpha  occ. eigenvalues --   -0.65005  -0.61019  -0.60840  -0.59367  -0.59325
 Alpha  occ. eigenvalues --   -0.57602  -0.57570  -0.55300  -0.55243  -0.52700
 Alpha  occ. eigenvalues --   -0.52652  -0.52442  -0.52356  -0.50028  -0.49856
 Alpha  occ. eigenvalues --   -0.48021  -0.47795  -0.46773  -0.46512  -0.45899
 Alpha  occ. eigenvalues --   -0.45738  -0.45728  -0.45463  -0.43794  -0.43761
 Alpha virt. eigenvalues --    0.21497   0.23223   0.23823   0.24345   0.25955
 Alpha virt. eigenvalues --    0.26772   0.27026   0.27566   0.27893   0.29167
 Alpha virt. eigenvalues --    0.31066   0.31491   0.31715   0.31825   0.32032

 Mulliken charges:
               1
     1  C   -0.298226
     2  C   -0.299712
     3  C   -0.475693
     4  H    0.149614
     5  H    0.149317
     6  H    0.151894
     7  H    0.152168
     8  H    0.155168
     9  H    0.155121
    10  H    0.160269
    11  C   -0.298816
    12  C   -0.299364
    13  C   -0.481847
    14  H    0.149541
    15  H    0.150380
    16  H    0.151849
    17  H    0.151077
    18  H    0.162517
    19  H    0.155177
    20  H    0.159402
    21  C   -0.297844
    22  C   -0.306250
    23  C   -0.475387
    24  H    0.149579
    25  H    0.149305
    26  H    0.151412
    27  H    0.160347
    28  H    0.154776
    29  H    0.154809
    30  H    0.160617
    31  C   -0.299540
    32  C   -0.299563
    33  C   -0.475721
    34  H    0.149479
    35  H    0.149329
    36  H    0.152315
    37  H    0.152085
    38  H    0.154727
    39  H    0.155204
    40  H    0.160488
 Sum of Mulliken charges =  -0.00000

 Dipole moment (field-independent basis, Debye):
    X=              0.0083    Y=             -0.0025    Z=             -0.0100  Tot=              0.0132
 Quadrupole moment (field-independent basis, Debye-Ang):
   XX=            -85.7427   YY=            -85.2008   ZZ=            -83.8850
   XY=              1.6285   XZ=              0.1117   YZ=             -0.0142

 Normal termination of Gaussian 16 at Wed May  5 19:42:44 2021.
