 Gaussian 16, Revision A.03,
 Gaussian 16:  EM64L-G16RevA.03 25-Dec-2016

 -------------
 #p 6-31g* mp2
 -------------

 ------------------------------------------------------
 Input file generated by CHIRIPA (05-May-2021 14:55:20)
 ------------------------------------------------------
 Symbolic Z-matrix:
 Charge =  0 Multiplicity = 1

                         Standard orientation:
 ---------------------------------------------------------------------
 Center     Atomic      Atomic             Coordinates (Angstroms)
 Number     Number       Type             X           Y           Z
 ---------------------------------------------------------------------
      1          6           0        1.614000    1.375418   -0.053458
      2          6           0        2.892674    1.941283   -0.017265
      3          6           0        4.028942    1.127149    0.007752
      4          6           0        3.848978   -0.255152   -0.004409
      5          6           0        2.588275   -0.848980   -0.040288
      6          6           0        1.466142   -0.015456   -0.064834
      7          1           0        0.736809    2.015388   -0.072709
      8          1           0        3.010521    3.021134   -0.008354
      9          1           0        5.030560    1.538714    0.035931
     10          1           0        2.502619   -1.928803   -0.048366
     11          1           0        0.474335   -0.457693   -0.092925
     12          7           0        5.044412   -1.127303    0.021826
     13          8           0        4.858998   -2.342264    0.010431
     14          8           0        6.144172   -0.579421    0.053286
     15          6           0       -4.165500    0.569311    0.388367
     16          6           0       -3.212319    1.331771   -0.532550
     17          6           0       -2.199944    2.180891    0.236790
     18          1           0       -4.697474    1.285751    1.029196
     19          1           0       -3.579676   -0.074680    1.058800
     20          1           0       -3.799843    1.973094   -1.201980
     21          1           0       -2.682694    0.613446   -1.171394
     22          1           0       -1.588953    1.552067    0.892437
     23          1           0       -2.712450    2.919440    0.861677
     24          1           0       -1.528519    2.717318   -0.440922
     25          6           0       -5.183506   -0.284099   -0.366010
     26          6           0       -6.136687   -1.046559    0.554907
     27          6           0       -7.149062   -1.895679   -0.214433
     28          1           0       -5.769331    0.359891   -1.036443
     29          1           0       -4.651533   -1.000540   -1.006839
     30          1           0       -6.666312   -0.328235    1.193751
     31          1           0       -5.549164   -1.687883    1.224337
     32          1           0       -6.636557   -2.634229   -0.839320
     33          1           0       -7.760053   -1.266855   -0.870079
     34          1           0       -7.820487   -2.432107    0.463279
 ---------------------------------------------------------------------

 SCF Done:  E(RHF) =  -669.535227957     A.U. after   15 cycles
 E2 =    -0.2091429748D+01 EUMP2 =    -0.67162665770488D+03

 The electronic state is 1-A.
 Alpha  occ. eigenvalues --  -20.60703 -20.60698 -15.85757 -11.31100 -11.27681
 Alpha  occ. eigenvalues --  -11.27672 -11.27310 -11.26673 -11.26654 -11.22741
 Alpha  occ. eigenvalues --  -11.22530 -11.22286 -11.22177 -11.22077 -11.21535
 Alpha  occ. eigenvalues --   -1.59780  -1.39334  -1.19270  -1.09288  -1.08658
 Alpha  occ. eigenvalues --   -1.04677  -1.04425  -0.96903  -0.95496  -0.87926
 Alpha  occ. eigenvalues --   -0.86068  -0.82341  -0.80501  -0.79033  -0.77396
 Alpha  occ. eigenvalues --   -0.71975  -0.71103  -0.70386  -0.65926  -0.64917
 Alpha  occ. eigenvalues --   -0.64688  -0.62059  -0.61784  -0.60338  -0.58469
 Alpha  occ. eigenvalues --   -0.56242  -0.55172  -0.53505  -0.53307  -0.52996
 Alpha  occ. eigenvalues --   -0.52763  -0.50809  -0.48807  -0.48731  -0.48726
 Alpha  occ. eigenvalues --   -0.47512  -0.46587  -0.46480  -0.44744  -0.44656
 Alpha  occ. eigenvalues --   -0.37231  -0.36289
 Alpha virt. eigenvalues --    0.05139   0.11341   0.16620   0.19402   0.22511
 Alpha virt. eigenvalues --    0.23870   0.25362   0.26195   0.26663   0.27241
 Alpha virt. eigenvalues --    0.29165   0.29759   0.31067   0.31225   0.32228

 Mulliken charges:
               1
     1  C   -0.176070
     2  C   -0.220779
     3  C   -0.170605
     4  C    0.157989
     5  C   -0.170723
     6  C   -0.223567
     7  H    0.237327
     8  H    0.223423
     9  H    0.275199
    10  H    0.275082
    11  H    0.223159
    12  N    0.488061
    13  O   -0.460831
    14  O   -0.460672
    15  C   -0.299323
    16  C   -0.299940
    17  C   -0.485437
    18  H    0.152480
    19  H    0.148904
    20  H    0.157079
    21  H    0.150221
    22  H    0.153368
    23  H    0.163595
    24  H    0.156647
    25  C   -0.298938
    26  C   -0.300286
    27  C   -0.476184
    28  H    0.151337
    29  H    0.149854
    30  H    0.153074
    31  H    0.152472
    32  H    0.155865
    33  H    0.156031
    34  H    0.162189
 Sum of Mulliken charges =  -0.00000

 Dipole moment (field-independent basis, Debye):
    X=             -4.5369    Y=              3.1070    Z=             -0.0813  Tot=              5.4994
 Quadrupole moment (field-independent basis, Debye-Ang):
   XX=           -125.0120   YY=            -92.9374   ZZ=            -95.8354
   XY=             14.6011   XZ=             -0.6130   YZ=             -0.1447

 Normal termination of Gaussian 16 at Thu May  6 19:04:38 2021.
