 Gaussian 16, Revision A.03,
 Gaussian 16:  EM64L-G16RevA.03 25-Dec-2016

 -------------
 #p 6-31g* mp2
 -------------

 ------------------------------------------------------
 Input file generated by CHIRIPA (05-May-2021 14:55:20)
 ------------------------------------------------------
 Symbolic Z-matrix:
 Charge =  0 Multiplicity = 1

                         Standard orientation:
 ---------------------------------------------------------------------
 Center     Atomic      Atomic             Coordinates (Angstroms)
 Number     Number       Type             X           Y           Z
 ---------------------------------------------------------------------
      1          6           0       -0.978164   -0.762902    2.034527
      2          6           0       -0.709109    0.322788    1.194641
      3          6           0       -1.586942    0.653039    0.157871
      4          6           0       -2.729587   -0.127392   -0.011184
      5          6           0       -3.025321   -1.215127    0.808977
      6          6           0       -2.133375   -1.527047    1.839358
      7          1           0       -0.290760   -1.012329    2.837433
      8          1           0        0.187274    0.917999    1.343863
      9          1           0       -1.403062    1.488218   -0.507020
     10          1           0       -3.926988   -1.789856    0.635475
     11          1           0       -2.344885   -2.370767    2.490085
     12          7           0       -3.666381    0.212527   -1.105384
     13          8           0       -4.666207   -0.490744   -1.233426
     14          8           0       -3.383075    1.175789   -1.814257
     15          6           0        3.821414   -0.226686   -0.524233
     16          6           0        3.441048   -1.706263   -0.459737
     17          6           0        4.501611   -2.616833   -1.079301
     18          1           0        3.984124    0.058157   -1.572724
     19          1           0        4.779976   -0.078849   -0.007806
     20          1           0        2.482806   -1.851036   -0.974934
     21          1           0        3.279036   -1.987569    0.588707
     22          1           0        5.458825   -2.501781   -0.560547
     23          1           0        4.658069   -2.364472   -2.133073
     24          1           0        4.209362   -3.670028   -1.022445
     25          6           0        2.771079    0.696227    0.091200
     26          6           0        3.151445    2.175804    0.026704
     27          6           0        2.090882    3.086376    0.646268
     28          1           0        1.812516    0.548390   -0.425227
     29          1           0        2.608369    0.411384    1.139692
     30          1           0        3.313456    2.457110   -1.021741
     31          1           0        4.109688    2.320577    0.541901
     32          1           0        1.934423    2.834013    1.700040
     33          1           0        1.133669    2.971322    0.127514
     34          1           0        2.383132    4.139570    0.589412
 ---------------------------------------------------------------------

 SCF Done:  E(RHF) =  -669.533988731     A.U. after   15 cycles
 E2 =    -0.2093666963D+01 EUMP2 =    -0.67162765569454D+03

 The electronic state is 1-A.
 Alpha  occ. eigenvalues --  -20.60706 -20.60701 -15.85755 -11.31098 -11.27642
 Alpha  occ. eigenvalues --  -11.27623 -11.27350 -11.26677 -11.26498 -11.22500
 Alpha  occ. eigenvalues --  -11.22333 -11.22210 -11.22183 -11.22058 -11.21525
 Alpha  occ. eigenvalues --   -1.59781  -1.39335  -1.19248  -1.09262  -1.08643
 Alpha  occ. eigenvalues --   -1.04660  -1.04306  -0.96789  -0.95493  -0.87805
 Alpha  occ. eigenvalues --   -0.86054  -0.82352  -0.80401  -0.79117  -0.77335
 Alpha  occ. eigenvalues --   -0.71974  -0.71103  -0.70363  -0.65878  -0.64890
 Alpha  occ. eigenvalues --   -0.64665  -0.62076  -0.61684  -0.60108  -0.58410
 Alpha  occ. eigenvalues --   -0.56090  -0.55146  -0.53461  -0.53297  -0.52923
 Alpha  occ. eigenvalues --   -0.52758  -0.50730  -0.48798  -0.48733  -0.48576
 Alpha  occ. eigenvalues --   -0.47423  -0.46533  -0.46468  -0.44747  -0.44561
 Alpha  occ. eigenvalues --   -0.37220  -0.36206
 Alpha virt. eigenvalues --    0.05120   0.11383   0.16549   0.19795   0.22517
 Alpha virt. eigenvalues --    0.23540   0.24315   0.26048   0.26900   0.28052
 Alpha virt. eigenvalues --    0.29294   0.30561   0.30772   0.31394   0.32248

 Mulliken charges:
               1
     1  C   -0.175328
     2  C   -0.221055
     3  C   -0.179309
     4  C    0.159542
     5  C   -0.171907
     6  C   -0.218087
     7  H    0.224811
     8  H    0.241319
     9  H    0.274794
    10  H    0.275032
    11  H    0.222819
    12  N    0.488171
    13  O   -0.460725
    14  O   -0.460936
    15  C   -0.297860
    16  C   -0.300244
    17  C   -0.476260
    18  H    0.153611
    19  H    0.150902
    20  H    0.155580
    21  H    0.148182
    22  H    0.155495
    23  H    0.157482
    24  H    0.161702
    25  C   -0.306684
    26  C   -0.297866
    27  C   -0.484391
    28  H    0.153715
    29  H    0.140821
    30  H    0.157713
    31  H    0.155333
    32  H    0.151571
    33  H    0.152124
    34  H    0.169935
 Sum of Mulliken charges =  -0.00000

 Dipole moment (field-independent basis, Debye):
    X=              3.5489    Y=             -1.1566    Z=              3.7576  Tot=              5.2964
 Quadrupole moment (field-independent basis, Debye-Ang):
   XX=           -111.2868   YY=            -92.0332   ZZ=            -94.5272
   XY=              6.1988   XZ=            -11.1456   YZ=             -2.0749

 Normal termination of Gaussian 16 at Thu May  6 19:05:14 2021.
