 Gaussian 16, Revision A.03,
 Gaussian 16:  EM64L-G16RevA.03 25-Dec-2016

 -------------
 #p 6-31g* mp2
 -------------

 ------------------------------------------------------
 Input file generated by CHIRIPA (05-May-2021 14:57:24)
 ------------------------------------------------------
 Symbolic Z-matrix:
 Charge =  0 Multiplicity = 1

                         Standard orientation:
 ---------------------------------------------------------------------
 Center     Atomic      Atomic             Coordinates (Angstroms)
 Number     Number       Type             X           Y           Z
 ---------------------------------------------------------------------
      1          6           0        1.766142    2.210131    0.794689
      2          6           0        2.143518    1.150601    1.626257
      3          6           0        2.878970    0.075953    1.117543
      4          6           0        3.221609    0.093405   -0.233599
      5          6           0        2.860448    1.134412   -1.087506
      6          6           0        2.125178    2.198675   -0.557155
      7          1           0        1.194896    3.040909    1.198274
      8          1           0        1.866080    1.156828    2.676512
      9          1           0        3.184206   -0.757206    1.738908
     10          1           0        3.151706    1.100074   -2.130294
     11          1           0        1.833474    3.020166   -1.205311
     12          7           0        4.000103   -1.038779   -0.783605
     13          8           0        4.289563   -0.999654   -1.977472
     14          8           0        4.306085   -1.943872   -0.010418
     15          6           0       -4.970658    0.427429   -1.387083
     16          6           0       -4.750830   -0.929818   -1.130031
     17          6           0       -3.713598   -1.333300   -0.283921
     18          6           0       -2.911808   -0.348395    0.290869
     19          6           0       -3.105588    1.011665    0.054276
     20          6           0       -4.148785    1.392139   -0.795153
     21          1           0       -5.778721    0.731927   -2.045650
     22          1           0       -5.387529   -1.681220   -1.588347
     23          1           0       -3.521142   -2.377152   -0.067701
     24          1           0       -2.454265    1.737561    0.525732
     25          1           0       -4.317172    2.446917   -0.992978
     26          7           0       -1.810580   -0.763364    1.188365
     27          8           0       -1.118242    0.123874    1.682443
     28          8           0       -1.660629   -1.967996    1.380748
 ---------------------------------------------------------------------

 SCF Done:  E(RHF) =  -868.338295684     A.U. after   16 cycles
 E2 =    -0.2600112271D+01 EUMP2 =    -0.87093840795549D+03

 The electronic state is 1-A.
 Alpha  occ. eigenvalues --  -20.61273 -20.61261 -20.60003 -20.59978 -15.86302
 Alpha  occ. eigenvalues --  -15.85039 -11.31600 -11.30250 -11.28207 -11.28121
 Alpha  occ. eigenvalues --  -11.27876 -11.27183 -11.27121 -11.26852 -11.26670
 Alpha  occ. eigenvalues --  -11.26516 -11.25913 -11.25656  -1.60329  -1.59071
 Alpha  occ. eigenvalues --   -1.39889  -1.38628  -1.19761  -1.18392  -1.09167
 Alpha  occ. eigenvalues --   -1.07827  -1.05159  -1.03764  -0.96020  -0.94693
 Alpha  occ. eigenvalues --   -0.86559  -0.85184  -0.82861  -0.81527  -0.77920
 Alpha  occ. eigenvalues --   -0.76590  -0.72552  -0.71636  -0.71265  -0.70872
 Alpha  occ. eigenvalues --   -0.70388  -0.69540  -0.65422  -0.65163  -0.64054
 Alpha  occ. eigenvalues --   -0.63781  -0.62514  -0.61125  -0.55655  -0.54323
 Alpha  occ. eigenvalues --   -0.53485  -0.53253  -0.52103  -0.51872  -0.49314
 Alpha  occ. eigenvalues --   -0.49267  -0.48026  -0.48008  -0.45306  -0.44068
 Alpha  occ. eigenvalues --   -0.37732  -0.36758  -0.36348  -0.35290
 Alpha virt. eigenvalues --    0.04617   0.05927   0.10899   0.12328   0.16143
 Alpha virt. eigenvalues --    0.17455   0.20966   0.22282   0.26842   0.27731
 Alpha virt. eigenvalues --    0.28283   0.29125   0.30657   0.31657   0.32461

 Mulliken charges:
               1
     1  C   -0.169294
     2  C   -0.197590
     3  C   -0.170471
     4  C    0.157313
     5  C   -0.174028
     6  C   -0.221005
     7  H    0.219611
     8  H    0.228331
     9  H    0.276199
    10  H    0.270895
    11  H    0.216036
    12  N    0.488172
    13  O   -0.464966
    14  O   -0.459946
    15  C   -0.170354
    16  C   -0.218247
    17  C   -0.170019
    18  C    0.159256
    19  C   -0.169966
    20  C   -0.218379
    21  H    0.226874
    22  H    0.225480
    23  H    0.277702
    24  H    0.269687
    25  H    0.222573
    26  N    0.490406
    27  O   -0.467687
    28  O   -0.456582
 Sum of Mulliken charges =  -0.00000

 Dipole moment (field-independent basis, Debye):
    X=             -6.8885    Y=              5.2581    Z=             -0.9915  Tot=              8.7226
 Quadrupole moment (field-independent basis, Debye-Ang):
   XX=           -101.2626   YY=           -100.4602   ZZ=           -104.1995
   XY=             11.0819   XZ=             16.3485   YZ=             -0.5556

 Normal termination of Gaussian 16 at Thu May  6 21:14:02 2021.
