 Gaussian 16, Revision A.03,
 Gaussian 16:  EM64L-G16RevA.03 25-Dec-2016

 -------------
 #p 6-31g* mp2
 -------------

 ------------------------------------------------------
 Input file generated by CHIRIPA (05-May-2021 14:53:16)
 ------------------------------------------------------
 Symbolic Z-matrix:
 Charge =  0 Multiplicity = 1

                         Standard orientation:
 ---------------------------------------------------------------------
 Center     Atomic      Atomic             Coordinates (Angstroms)
 Number     Number       Type             X           Y           Z
 ---------------------------------------------------------------------
      1          6           0       -3.951028    0.668127    0.496070
      2          6           0       -2.984374    1.650906   -0.165527
      3          6           0       -2.159732    2.442908    0.849604
      4          1           0       -4.623938    1.220487    1.166171
      5          1           0       -3.380999   -0.026434    1.128563
      6          1           0       -3.555917    2.342535   -0.797669
      7          1           0       -2.313812    1.096166   -0.834277
      8          1           0       -1.564743    1.767835    1.473195
      9          1           0       -2.813905    3.021287    1.510012
     10          1           0       -1.475462    3.139363    0.355050
     11          6           0       -4.782481   -0.131053   -0.505792
     12          6           0       -5.749135   -1.113832    0.155805
     13          6           0       -6.573777   -1.905835   -0.859327
     14          1           0       -5.352510    0.563507   -1.138285
     15          1           0       -4.109571   -0.683413   -1.175893
     16          1           0       -6.419697   -0.559092    0.824555
     17          1           0       -5.177592   -1.805462    0.787947
     18          1           0       -5.919604   -2.484213   -1.519734
     19          1           0       -7.168766   -1.230762   -1.482917
     20          1           0       -7.258047   -2.602290   -0.364772
     21          6           0        0.945422   -0.061801    0.515997
     22          6           0        1.505711    0.755984   -0.470830
     23          6           0        2.870914    0.682493   -0.763002
     24          6           0        3.649941   -0.224102   -0.045720
     25          6           0        3.121180   -1.052214    0.943184
     26          6           0        1.753521   -0.961702    1.218616
     27          1           0       -0.116055    0.001901    0.736461
     28          1           0        0.880545    1.455785   -1.018087
     29          1           0        3.330673    1.303829   -1.521937
     30          1           0        3.769815   -1.740067    1.471911
     31          1           0        1.321119   -1.598038    1.985526
     32          7           0        5.096521   -0.310913   -0.346168
     33          8           0        5.761367   -1.117852    0.299948
     34          8           0        5.538114    0.429627   -1.222088
 ---------------------------------------------------------------------

 SCF Done:  E(RHF) =  -669.535299149     A.U. after   15 cycles
 E2 =    -0.2091624012D+01 EUMP2 =    -0.67162692316092D+03

 The electronic state is 1-A.
 Alpha  occ. eigenvalues --  -20.60736 -20.60731 -15.85790 -11.31152 -11.27721
 Alpha  occ. eigenvalues --  -11.27715 -11.27429 -11.26734 -11.26718 -11.22822
 Alpha  occ. eigenvalues --  -11.22444 -11.22345 -11.22303 -11.22202 -11.21639
 Alpha  occ. eigenvalues --   -1.59812  -1.39365  -1.19322  -1.09401  -1.08715
 Alpha  occ. eigenvalues --   -1.04726  -1.04486  -0.96928  -0.95551  -0.87935
 Alpha  occ. eigenvalues --   -0.86120  -0.82388  -0.80556  -0.79164  -0.77434
 Alpha  occ. eigenvalues --   -0.72007  -0.71135  -0.70477  -0.66047  -0.64972
 Alpha  occ. eigenvalues --   -0.64729  -0.62101  -0.61866  -0.60310  -0.58519
 Alpha  occ. eigenvalues --   -0.56316  -0.55125  -0.53613  -0.53323  -0.53052
 Alpha  occ. eigenvalues --   -0.52809  -0.50862  -0.48859  -0.48763  -0.48759
 Alpha  occ. eigenvalues --   -0.47615  -0.46704  -0.46620  -0.44772  -0.44721
 Alpha  occ. eigenvalues --   -0.37291  -0.36331
 Alpha virt. eigenvalues --    0.05083   0.11307   0.16524   0.18278   0.22551
 Alpha virt. eigenvalues --    0.23989   0.24887   0.25594   0.26805   0.27725
 Alpha virt. eigenvalues --    0.29270   0.29776   0.30938   0.31372   0.31837

 Mulliken charges:
               1
     1  C   -0.298284
     2  C   -0.304614
     3  C   -0.479552
     4  H    0.154087
     5  H    0.144167
     6  H    0.158517
     7  H    0.146177
     8  H    0.149244
     9  H    0.162997
    10  H    0.161466
    11  C   -0.298913
    12  C   -0.300138
    13  C   -0.476264
    14  H    0.152172
    15  H    0.149743
    16  H    0.153478
    17  H    0.151332
    18  H    0.155934
    19  H    0.156510
    20  H    0.162284
    21  C   -0.174533
    22  C   -0.221195
    23  C   -0.170986
    24  C    0.158483
    25  C   -0.170752
    26  C   -0.219610
    27  H    0.232170
    28  H    0.224953
    29  H    0.275478
    30  H    0.275416
    31  H    0.223243
    32  N    0.488041
    33  O   -0.460531
    34  O   -0.460517
 Sum of Mulliken charges =  -0.00000

 Dipole moment (field-independent basis, Debye):
    X=             -5.3609    Y=              0.3635    Z=              1.0492  Tot=              5.4747
 Quadrupole moment (field-independent basis, Debye-Ang):
   XX=           -131.3761   YY=            -92.3821   ZZ=            -93.2293
   XY=              0.6973   XZ=              4.1294   YZ=             -3.4774

 Normal termination of Gaussian 16 at Thu May  6 10:39:03 2021.
