 Gaussian 16, Revision A.03,
 Gaussian 16:  EM64L-G16RevA.03 25-Dec-2016

 -------------
 #p 6-31g* mp2
 -------------

 ------------------------------------------------------
 Input file generated by CHIRIPA (05-May-2021 14:51:09)
 ------------------------------------------------------
 Symbolic Z-matrix:
 Charge =  0 Multiplicity = 1

                         Standard orientation:
 ---------------------------------------------------------------------
 Center     Atomic      Atomic             Coordinates (Angstroms)
 Number     Number       Type             X           Y           Z
 ---------------------------------------------------------------------
      1          6           0       -3.719038   -0.159058   -0.255487
      2          6           0       -2.945028   -1.456545   -0.490905
      3          6           0       -3.861076   -2.651007   -0.759068
      4          1           0       -4.402862   -0.296363    0.593323
      5          1           0       -4.347360    0.049178   -1.132552
      6          1           0       -2.317307   -1.661542    0.385769
      7          1           0       -2.262829   -1.316074   -1.339132
      8          1           0       -4.477869   -2.472050   -1.645715
      9          1           0       -4.532656   -2.819481    0.088987
     10          1           0       -3.287000   -3.568011   -0.924597
     11          6           0       -2.817035    1.044068    0.013968
     12          6           0       -3.591044    2.341555    0.249386
     13          6           0       -2.674996    3.536017    0.517549
     14          1           0       -2.188712    0.835833    0.891033
     15          1           0       -2.133211    1.181374   -0.834842
     16          1           0       -4.273243    2.201084    1.097613
     17          1           0       -4.218765    2.546553   -0.627288
     18          1           0       -2.003416    3.704492   -0.330506
     19          1           0       -2.058204    3.357060    1.404196
     20          1           0       -3.249072    4.453021    0.683078
     21          6           0        2.632692   -0.834081   -0.041838
     22          6           0        2.124605   -1.678081    1.127563
     23          6           0        0.852927   -2.455598    0.786834
     24          1           0        1.844411   -0.133629   -0.349938
     25          1           0        2.822317   -1.489708   -0.902994
     26          1           0        1.937309   -1.021243    1.986692
     27          1           0        2.914255   -2.376474    1.433040
     28          1           0        1.029778   -3.133864   -0.054165
     29          1           0        0.047281   -1.770935    0.502632
     30          1           0        0.507183   -3.052089    1.636846
     31          6           0        3.903381   -0.050930    0.283357
     32          6           0        4.411467    0.793070   -0.886044
     33          6           0        5.683144    1.570588   -0.545316
     34          1           0        3.713755    0.604698    1.144513
     35          1           0        4.691660   -0.751382    0.591458
     36          1           0        3.621817    1.491463   -1.191521
     37          1           0        4.598763    0.136233   -1.745172
     38          1           0        6.488791    0.885924   -0.261113
     39          1           0        5.506295    2.248854    0.295684
     40          1           0        6.028888    2.167079   -1.395326
 ---------------------------------------------------------------------

 SCF Done:  E(RHF) =  -470.733135921     A.U. after   11 cycles
 E2 =    -0.1582711582D+01 EUMP2 =    -0.47231584750346D+03

 The electronic state is 1-A.
 Alpha  occ. eigenvalues --  -11.21635 -11.21584 -11.21562 -11.21561 -11.21436
 Alpha  occ. eigenvalues --  -11.21377 -11.21364 -11.21317 -11.21107 -11.21057
 Alpha  occ. eigenvalues --  -11.21044 -11.20975  -1.08452  -1.08398  -1.03549
 Alpha  occ. eigenvalues --   -1.03486  -0.95993  -0.95942  -0.87023  -0.86949
 Alpha  occ. eigenvalues --   -0.79683  -0.79496  -0.78298  -0.78180  -0.65100
 Alpha  occ. eigenvalues --   -0.65014  -0.60997  -0.60846  -0.59366  -0.59313
 Alpha  occ. eigenvalues --   -0.57639  -0.57519  -0.55296  -0.55224  -0.52694
 Alpha  occ. eigenvalues --   -0.52638  -0.52450  -0.52336  -0.50004  -0.49858
 Alpha  occ. eigenvalues --   -0.48074  -0.47735  -0.46744  -0.46516  -0.45898
 Alpha  occ. eigenvalues --   -0.45743  -0.45706  -0.45474  -0.43794  -0.43752
 Alpha virt. eigenvalues --    0.21957   0.23158   0.23803   0.24490   0.25863
 Alpha virt. eigenvalues --    0.26489   0.27005   0.27659   0.28034   0.29064
 Alpha virt. eigenvalues --    0.30959   0.31479   0.31661   0.31951   0.32028

 Mulliken charges:
               1
     1  C   -0.297767
     2  C   -0.305165
     3  C   -0.475394
     4  H    0.149578
     5  H    0.149523
     6  H    0.158292
     7  H    0.152082
     8  H    0.154878
     9  H    0.154913
    10  H    0.160955
    11  C   -0.299077
    12  C   -0.299521
    13  C   -0.475753
    14  H    0.149053
    15  H    0.149366
    16  H    0.152144
    17  H    0.152219
    18  H    0.155066
    19  H    0.155004
    20  H    0.160466
    21  C   -0.298522
    22  C   -0.299236
    23  C   -0.482222
    24  H    0.150137
    25  H    0.149318
    26  H    0.151353
    27  H    0.151571
    28  H    0.154749
    29  H    0.163222
    30  H    0.159000
    31  C   -0.298236
    32  C   -0.299638
    33  C   -0.475688
    34  H    0.149496
    35  H    0.149566
    36  H    0.151938
    37  H    0.151814
    38  H    0.155133
    39  H    0.155213
    40  H    0.160171
 Sum of Mulliken charges =  -0.00000

 Dipole moment (field-independent basis, Debye):
    X=             -0.0331    Y=             -0.0002    Z=             -0.0075  Tot=              0.0339
 Quadrupole moment (field-independent basis, Debye-Ang):
   XX=            -85.6322   YY=            -85.4492   ZZ=            -83.7447
   XY=             -1.4812   XZ=             -0.4516   YZ=             -0.1764

 Normal termination of Gaussian 16 at Wed May  5 21:20:43 2021.
