 Gaussian 16, Revision A.03,
 Gaussian 16:  EM64L-G16RevA.03 25-Dec-2016

 -------------
 #p 6-31g* mp2
 -------------

 ------------------------------------------------------
 Input file generated by CHIRIPA (05-May-2021 14:51:11)
 ------------------------------------------------------
 Symbolic Z-matrix:
 Charge =  0 Multiplicity = 1

                         Standard orientation:
 ---------------------------------------------------------------------
 Center     Atomic      Atomic             Coordinates (Angstroms)
 Number     Number       Type             X           Y           Z
 ---------------------------------------------------------------------
      1          6           0        5.000929   -0.149412    0.285464
      2          6           0        5.514517   -1.232719   -0.663568
      3          6           0        7.028962   -1.424615   -0.577392
      4          1           0        5.505766    0.799094    0.056509
      5          1           0        5.280235   -0.411503    1.315362
      6          1           0        5.233123   -0.969360   -1.691223
      7          1           0        5.008258   -2.178713   -0.432453
      8          1           0        7.323833   -1.711327    0.437225
      9          1           0        7.549975   -0.495103   -0.828697
     10          1           0        7.374647   -2.203619   -1.264061
     11          6           0        3.488732    0.054107    0.210857
     12          6           0        2.975144    1.137414    1.159888
     13          6           0        1.460699    1.329310    1.073712
     14          1           0        3.209426    0.316198   -0.819042
     15          1           0        2.983895   -0.894399    0.439811
     16          1           0        3.481403    2.083407    0.928773
     17          1           0        3.256538    0.874055    2.187543
     18          1           0        0.939686    0.399798    1.325017
     19          1           0        1.165828    1.616022    0.059095
     20          1           0        1.115014    2.108314    1.760382
     21          6           0       -3.587956    0.227994   -0.593740
     22          6           0       -3.201354    1.698464   -0.431761
     23          6           0       -1.884952    2.043831   -1.128612
     24          1           0       -2.782682   -0.402583   -0.192675
     25          1           0       -3.665811   -0.007680   -1.664156
     26          1           0       -3.125604    1.931646    0.638054
     27          1           0       -4.007728    2.325616   -0.833084
     28          1           0       -1.952003    1.839084   -2.202011
     29          1           0       -1.064868    1.442876   -0.722514
     30          1           0       -1.627668    3.099835   -1.000087
     31          6           0       -4.901704   -0.132688    0.097419
     32          6           0       -5.288306   -1.603160   -0.064559
     33          6           0       -6.604709   -1.948526    0.632292
     34          1           0       -4.823850    0.102985    1.167836
     35          1           0       -5.706979    0.497888   -0.303646
     36          1           0       -4.481933   -2.230311    0.336764
     37          1           0       -5.364057   -1.836341   -1.134374
     38          1           0       -7.424792   -1.347570    0.226194
     39          1           0       -6.537657   -1.743779    1.705690
     40          1           0       -6.861992   -3.004530    0.503767
 ---------------------------------------------------------------------

 SCF Done:  E(RHF) =  -470.733082997     A.U. after   11 cycles
 E2 =    -0.1582343869D+01 EUMP2 =    -0.47231542686663D+03

 The electronic state is 1-A.
 Alpha  occ. eigenvalues --  -11.21607 -11.21603 -11.21576 -11.21529 -11.21410
 Alpha  occ. eigenvalues --  -11.21362 -11.21351 -11.21301 -11.21074 -11.21072
 Alpha  occ. eigenvalues --  -11.21051 -11.20938  -1.08436  -1.08381  -1.03545
 Alpha  occ. eigenvalues --   -1.03468  -0.96018  -0.95900  -0.87062  -0.86895
 Alpha  occ. eigenvalues --   -0.79654  -0.79495  -0.78254  -0.78190  -0.65072
 Alpha  occ. eigenvalues --   -0.65008  -0.60990  -0.60833  -0.59357  -0.59291
 Alpha  occ. eigenvalues --   -0.57661  -0.57493  -0.55412  -0.55109  -0.52710
 Alpha  occ. eigenvalues --   -0.52618  -0.52528  -0.52230  -0.50076  -0.49717
 Alpha  occ. eigenvalues --   -0.48020  -0.47750  -0.46699  -0.46478  -0.45823
 Alpha  occ. eigenvalues --   -0.45730  -0.45695  -0.45602  -0.43791  -0.43732
 Alpha virt. eigenvalues --    0.22470   0.22933   0.23711   0.24651   0.26189
 Alpha virt. eigenvalues --    0.26560   0.27111   0.27624   0.27663   0.29014
 Alpha virt. eigenvalues --    0.30762   0.31282   0.31720   0.31860   0.32145

 Mulliken charges:
               1
     1  C   -0.298280
     2  C   -0.299668
     3  C   -0.475713
     4  H    0.149721
     5  H    0.149501
     6  H    0.152031
     7  H    0.151904
     8  H    0.155158
     9  H    0.155206
    10  H    0.160273
    11  C   -0.298424
    12  C   -0.299827
    13  C   -0.479095
    14  H    0.149780
    15  H    0.149432
    16  H    0.152127
    17  H    0.151739
    18  H    0.153885
    19  H    0.160054
    20  H    0.160591
    21  C   -0.298409
    22  C   -0.299080
    23  C   -0.482441
    24  H    0.149713
    25  H    0.149304
    26  H    0.152014
    27  H    0.151381
    28  H    0.154014
    29  H    0.164083
    30  H    0.159441
    31  C   -0.298276
    32  C   -0.299594
    33  C   -0.475675
    34  H    0.149482
    35  H    0.149562
    36  H    0.151803
    37  H    0.151867
    38  H    0.155151
    39  H    0.155131
    40  H    0.160133
 Sum of Mulliken charges =  -0.00000

 Dipole moment (field-independent basis, Debye):
    X=              0.0314    Y=              0.0052    Z=              0.0045  Tot=              0.0321
 Quadrupole moment (field-independent basis, Debye-Ang):
   XX=            -86.6882   YY=            -84.4998   ZZ=            -83.7593
   XY=             -0.0755   XZ=              0.7713   YZ=             -0.5280

 Normal termination of Gaussian 16 at Thu May  6 05:27:01 2021.
