 Gaussian 16, Revision A.03,
 Gaussian 16:  EM64L-G16RevA.03 25-Dec-2016

 -------------
 #p 6-31g* mp2
 -------------

 ------------------------------------------------------
 Input file generated by CHIRIPA (05-May-2021 14:51:14)
 ------------------------------------------------------
 Symbolic Z-matrix:
 Charge =  0 Multiplicity = 1

                         Standard orientation:
 ---------------------------------------------------------------------
 Center     Atomic      Atomic             Coordinates (Angstroms)
 Number     Number       Type             X           Y           Z
 ---------------------------------------------------------------------
      1          6           0        2.337204   -1.516952    0.106850
      2          6           0        1.200288   -1.837674    1.077698
      3          6           0        0.952973   -3.339513    1.222983
      4          1           0        2.104046   -1.948400   -0.876224
      5          1           0        3.256310   -2.008948    0.454092
      6          1           0        0.283921   -1.344084    0.729478
      7          1           0        1.436091   -1.405248    2.058525
      8          1           0        1.851559   -3.843917    1.592741
      9          1           0        0.692844   -3.782406    0.256143
     10          1           0        0.136181   -3.546150    1.921562
     11          6           0        2.596467   -0.019547   -0.048998
     12          6           0        3.733383    0.301175   -1.019846
     13          6           0        3.980698    1.803015   -1.165131
     14          1           0        1.677361    0.472450   -0.396240
     15          1           0        2.829625    0.411901    0.934076
     16          1           0        3.497580   -0.131251   -2.000673
     17          1           0        4.649750   -0.192414   -0.671626
     18          1           0        4.240827    2.245907   -0.198291
     19          1           0        3.082112    2.307418   -1.534889
     20          1           0        4.797490    2.009652   -1.863710
     21          6           0       -2.449758    1.442942    0.328746
     22          6           0       -1.033510    1.970593    0.560721
     23          6           0       -1.015824    3.321169    1.277257
     24          1           0       -3.016685    2.178484   -0.258210
     25          1           0       -2.962915    1.352557    1.296163
     26          1           0       -0.522710    2.058644   -0.406723
     27          1           0       -0.469831    1.233623    1.147030
     28          1           0       -1.501199    3.244601    2.255596
     29          1           0       -1.554380    4.074310    0.693017
     30          1           0        0.006471    3.679728    1.432855
     31          6           0       -2.483913    0.093556   -0.386598
     32          6           0       -3.900161   -0.434094   -0.618572
     33          6           0       -3.917847   -1.784670   -1.335109
     34          1           0       -1.970755    0.183941   -1.354015
     35          1           0       -1.916985   -0.641986    0.200358
     36          1           0       -4.463840    0.302875   -1.204882
     37          1           0       -4.410961   -0.522146    0.348870
     38          1           0       -3.379291   -2.537811   -0.750869
     39          1           0       -3.432472   -1.708103   -2.313448
     40          1           0       -4.940142   -2.143230   -1.490706
 ---------------------------------------------------------------------

 SCF Done:  E(RHF) =  -470.732752981     A.U. after   11 cycles
 E2 =    -0.1584521835D+01 EUMP2 =    -0.47231727481654D+03

 The electronic state is 1-A.
 Alpha  occ. eigenvalues --  -11.21641 -11.21591 -11.21563 -11.21562 -11.21445
 Alpha  occ. eigenvalues --  -11.21381 -11.21350 -11.21268 -11.21104 -11.21078
 Alpha  occ. eigenvalues --  -11.21067 -11.21055  -1.08488  -1.08374  -1.03554
 Alpha  occ. eigenvalues --   -1.03509  -0.96009  -0.95952  -0.87025  -0.86968
 Alpha  occ. eigenvalues --   -0.79651  -0.79570  -0.78491  -0.78005  -0.65172
 Alpha  occ. eigenvalues --   -0.64967  -0.60950  -0.60916  -0.59378  -0.59327
 Alpha  occ. eigenvalues --   -0.57674  -0.57512  -0.55312  -0.55227  -0.52713
 Alpha  occ. eigenvalues --   -0.52643  -0.52452  -0.52364  -0.49971  -0.49886
 Alpha  occ. eigenvalues --   -0.48028  -0.47893  -0.46805  -0.46660  -0.46287
 Alpha  occ. eigenvalues --   -0.45739  -0.45653  -0.44940  -0.43806  -0.43742
 Alpha virt. eigenvalues --    0.21162   0.22850   0.23581   0.24145   0.25268
 Alpha virt. eigenvalues --    0.26354   0.26913   0.27511   0.28014   0.29797
 Alpha virt. eigenvalues --    0.31093   0.31459   0.31756   0.31902   0.32178

 Mulliken charges:
               1
     1  C   -0.297071
     2  C   -0.311027
     3  C   -0.475385
     4  H    0.149383
     5  H    0.149139
     6  H    0.162545
     7  H    0.151082
     8  H    0.155471
     9  H    0.155376
    10  H    0.159321
    11  C   -0.304320
    12  C   -0.299519
    13  C   -0.475533
    14  H    0.157634
    15  H    0.148631
    16  H    0.151577
    17  H    0.151680
    18  H    0.155040
    19  H    0.154723
    20  H    0.160125
    21  C   -0.297694
    22  C   -0.305610
    23  C   -0.475710
    24  H    0.149617
    25  H    0.149496
    26  H    0.151723
    27  H    0.158729
    28  H    0.155081
    29  H    0.154949
    30  H    0.160909
    31  C   -0.306069
    32  C   -0.298826
    33  C   -0.475928
    34  H    0.148541
    35  H    0.156773
    36  H    0.152157
    37  H    0.152099
    38  H    0.155405
    39  H    0.154979
    40  H    0.160504
 Sum of Mulliken charges =  -0.00000

 Dipole moment (field-independent basis, Debye):
    X=             -0.0341    Y=              0.0122    Z=              0.0053  Tot=              0.0366
 Quadrupole moment (field-independent basis, Debye-Ang):
   XX=            -84.5562   YY=            -86.6727   ZZ=            -83.6855
   XY=             -0.4904   XZ=              0.5076   YZ=             -0.6889

 Normal termination of Gaussian 16 at Wed May  5 16:55:07 2021.
