 Gaussian 16, Revision A.03,
 Gaussian 16:  EM64L-G16RevA.03 25-Dec-2016

 -------------
 #p 6-31g* mp2
 -------------

 ------------------------------------------------------
 Input file generated by CHIRIPA (05-May-2021 14:51:12)
 ------------------------------------------------------
 Symbolic Z-matrix:
 Charge =  0 Multiplicity = 1

                         Standard orientation:
 ---------------------------------------------------------------------
 Center     Atomic      Atomic             Coordinates (Angstroms)
 Number     Number       Type             X           Y           Z
 ---------------------------------------------------------------------
      1          6           0        3.083468   -0.470871    0.794856
      2          6           0        1.723200   -1.065060    0.427982
      3          6           0        1.163577   -1.978676    1.518818
      4          1           0        3.792214   -1.287108    0.990767
      5          1           0        2.988539    0.092661    1.733373
      6          1           0        1.820359   -1.626149   -0.510290
      7          1           0        1.017661   -0.247313    0.232736
      8          1           0        1.038082   -1.427247    2.456250
      9          1           0        1.845341   -2.813917    1.709003
     10          1           0        0.190702   -2.392534    1.235808
     11          6           0        3.655950    0.444715   -0.285744
     12          6           0        5.016218    1.038904    0.081130
     13          6           0        5.575841    1.952520   -1.009705
     14          1           0        3.750879   -0.118817   -1.224261
     15          1           0        2.947204    1.260952   -0.481654
     16          1           0        5.721757    0.221157    0.276377
     17          1           0        4.919059    1.599993    1.019402
     18          1           0        4.894077    2.787761   -1.199890
     19          1           0        5.701336    1.401091   -1.947137
     20          1           0        6.548716    2.366378   -0.726696
     21          6           0       -3.221258   -0.551441   -0.747216
     22          6           0       -2.146619   -1.520473   -0.253142
     23          6           0       -1.860727   -2.644303   -1.249670
     24          1           0       -4.145825   -1.110141   -0.947154
     25          1           0       -2.903097   -0.120060   -1.706423
     26          1           0       -2.466083   -1.948852    0.705529
     27          1           0       -1.224561   -0.959371   -0.054174
     28          1           0       -1.517664   -2.234056   -2.204974
     29          1           0       -2.766241   -3.229158   -1.440955
     30          1           0       -1.089541   -3.325323   -0.876383
     31          6           0       -3.518160    0.577596    0.238104
     32          6           0       -4.592799    1.546630   -0.255971
     33          6           0       -4.878691    2.670458    0.740558
     34          1           0       -3.836321    0.146216    1.197311
     35          1           0       -2.593593    1.136298    0.438042
     36          1           0       -5.514857    0.985527   -0.454939
     37          1           0       -4.273335    1.975008   -1.214643
     38          1           0       -3.973177    3.255315    0.931843
     39          1           0       -5.221755    2.260212    1.695862
     40          1           0       -5.649876    3.351479    0.367270
 ---------------------------------------------------------------------

 SCF Done:  E(RHF) =  -470.731941652     A.U. after   11 cycles
 E2 =    -0.1584166935D+01 EUMP2 =    -0.47231610858667D+03

 The electronic state is 1-A.
 Alpha  occ. eigenvalues --  -11.21617 -11.21615 -11.21602 -11.21519 -11.21421
 Alpha  occ. eigenvalues --  -11.21395 -11.21361 -11.21331 -11.21085 -11.21076
 Alpha  occ. eigenvalues --  -11.21069 -11.20974  -1.08474  -1.08395  -1.03631
 Alpha  occ. eigenvalues --   -1.03440  -0.96063  -0.95900  -0.86996  -0.86992
 Alpha  occ. eigenvalues --   -0.79631  -0.79585  -0.78327  -0.78186  -0.65147
 Alpha  occ. eigenvalues --   -0.64999  -0.61081  -0.60839  -0.59809  -0.59046
 Alpha  occ. eigenvalues --   -0.57910  -0.57154  -0.55280  -0.55238  -0.52773
 Alpha  occ. eigenvalues --   -0.52587  -0.52451  -0.52287  -0.49952  -0.49883
 Alpha  occ. eigenvalues --   -0.47928  -0.47900  -0.46840  -0.46468  -0.45918
 Alpha  occ. eigenvalues --   -0.45765  -0.45733  -0.45451  -0.43799  -0.43756
 Alpha virt. eigenvalues --    0.21423   0.23129   0.23314   0.25148   0.25579
 Alpha virt. eigenvalues --    0.26721   0.26861   0.27413   0.27950   0.29211
 Alpha virt. eigenvalues --    0.30332   0.31208   0.31544   0.31654   0.32027

 Mulliken charges:
               1
     1  C   -0.297604
     2  C   -0.302506
     3  C   -0.483839
     4  H    0.149881
     5  H    0.149629
     6  H    0.152803
     7  H    0.151793
     8  H    0.154860
     9  H    0.154763
    10  H    0.170853
    11  C   -0.298331
    12  C   -0.299661
    13  C   -0.475708
    14  H    0.149565
    15  H    0.149267
    16  H    0.152056
    17  H    0.151966
    18  H    0.155085
    19  H    0.155205
    20  H    0.160331
    21  C   -0.297102
    22  C   -0.310312
    23  C   -0.477978
    24  H    0.149328
    25  H    0.149285
    26  H    0.151143
    27  H    0.163549
    28  H    0.155509
    29  H    0.155411
    30  H    0.161403
    31  C   -0.298143
    32  C   -0.299648
    33  C   -0.475674
    34  H    0.149651
    35  H    0.148739
    36  H    0.152062
    37  H    0.151898
    38  H    0.154985
    39  H    0.155214
    40  H    0.160275
 Sum of Mulliken charges =  -0.00000

 Dipole moment (field-independent basis, Debye):
    X=              0.0066    Y=             -0.0061    Z=             -0.0012  Tot=              0.0091
 Quadrupole moment (field-independent basis, Debye-Ang):
   XX=            -84.5360   YY=            -85.0668   ZZ=            -85.3043
   XY=             -0.0462   XZ=             -0.0079   YZ=              0.0408

 Normal termination of Gaussian 16 at Wed May  5 19:54:35 2021.
