 Gaussian 16, Revision A.03,
 Gaussian 16:  EM64L-G16RevA.03 25-Dec-2016

 -------------
 #p 6-31g* mp2
 -------------

 ------------------------------------------------------
 Input file generated by CHIRIPA (05-May-2021 14:57:23)
 ------------------------------------------------------
 Symbolic Z-matrix:
 Charge =  0 Multiplicity = 1

                         Standard orientation:
 ---------------------------------------------------------------------
 Center     Atomic      Atomic             Coordinates (Angstroms)
 Number     Number       Type             X           Y           Z
 ---------------------------------------------------------------------
      1          6           0       -2.757882    2.072998    1.394546
      2          6           0       -1.812167    1.668388    0.446687
      3          6           0       -2.073982    0.588007   -0.401121
      4          6           0       -3.297305   -0.068041   -0.273167
      5          6           0       -4.259786    0.311224    0.661220
      6          6           0       -3.976524    1.394320    1.498604
      7          1           0       -2.546167    2.913318    2.049095
      8          1           0       -0.864906    2.193596    0.363629
      9          1           0       -1.359704    0.253721   -1.143735
     10          1           0       -5.195137   -0.231952    0.720356
     11          1           0       -4.712851    1.706339    2.233800
     12          7           0       -3.585830   -1.213229   -1.165185
     13          8           0       -4.671115   -1.774641   -1.032482
     14          8           0       -2.721227   -1.527731   -1.980162
     15          6           0        2.486430   -1.792639    1.854700
     16          6           0        1.643219   -0.742823    1.476020
     17          6           0        2.055710    0.189380    0.519256
     18          6           0        3.323548    0.040937   -0.040958
     19          6           0        4.186593   -0.994144    0.315485
     20          6           0        3.753193   -1.914734    1.274248
     21          1           0        2.157876   -2.512286    2.598715
     22          1           0        0.658903   -0.645523    1.925133
     23          1           0        1.423158    1.011712    0.207700
     24          1           0        5.162222   -1.065021   -0.149857
     25          1           0        4.410164   -2.729029    1.566408
     26          7           0        3.771302    1.021671   -1.054900
     27          8           0        4.892985    0.868843   -1.533553
     28          8           0        2.992090    1.924628   -1.351775
 ---------------------------------------------------------------------

 SCF Done:  E(RHF) =  -868.337737371     A.U. after   16 cycles
 E2 =    -0.2600195585D+01 EUMP2 =    -0.87093793295663D+03

 The electronic state is 1-A.
 Alpha  occ. eigenvalues --  -20.61161 -20.61132 -20.61125 -20.61115 -15.86201
 Alpha  occ. eigenvalues --  -15.86182 -11.31660 -11.31557 -11.28267 -11.28250
 Alpha  occ. eigenvalues --  -11.28204 -11.28052 -11.28017 -11.27778 -11.27328
 Alpha  occ. eigenvalues --  -11.27253 -11.27109 -11.27064  -1.60219  -1.60199
 Alpha  occ. eigenvalues --   -1.39778  -1.39748  -1.19863  -1.19702  -1.09226
 Alpha  occ. eigenvalues --   -1.09086  -1.05299  -1.05100  -0.96036  -0.95938
 Alpha  occ. eigenvalues --   -0.86666  -0.86503  -0.82891  -0.82756  -0.77962
 Alpha  occ. eigenvalues --   -0.77783  -0.72421  -0.72393  -0.71538  -0.71530
 Alpha  occ. eigenvalues --   -0.70947  -0.70809  -0.65511  -0.65367  -0.65306
 Alpha  occ. eigenvalues --   -0.65072  -0.62777  -0.62308  -0.55758  -0.55573
 Alpha  occ. eigenvalues --   -0.53614  -0.53440  -0.53383  -0.53141  -0.49190
 Alpha  occ. eigenvalues --   -0.49167  -0.49160  -0.49142  -0.45186  -0.45128
 Alpha  occ. eigenvalues --   -0.37844  -0.37645  -0.36947  -0.36664
 Alpha virt. eigenvalues --    0.04567   0.04747   0.10728   0.10936   0.15939
 Alpha virt. eigenvalues --    0.16238   0.19117   0.21890   0.24682   0.27433
 Alpha virt. eigenvalues --    0.27855   0.29079   0.29910   0.31252   0.31948

 Mulliken charges:
               1
     1  C   -0.171171
     2  C   -0.229789
     3  C   -0.174095
     4  C    0.157855
     5  C   -0.170297
     6  C   -0.219146
     7  H    0.228385
     8  H    0.227960
     9  H    0.280034
    10  H    0.277198
    11  H    0.225272
    12  N    0.487822
    13  O   -0.459747
    14  O   -0.457961
    15  C   -0.169787
    16  C   -0.219217
    17  C   -0.177070
    18  C    0.161219
    19  C   -0.169752
    20  C   -0.217555
    21  H    0.227842
    22  H    0.225376
    23  H    0.267814
    24  H    0.277066
    25  H    0.225548
    26  N    0.488020
    27  O   -0.457117
    28  O   -0.464705
 Sum of Mulliken charges =  -0.00000

 Dipole moment (field-independent basis, Debye):
    X=             -0.5806    Y=              0.4449    Z=              6.7329  Tot=              6.7725
 Quadrupole moment (field-independent basis, Debye-Ang):
   XX=           -113.3460   YY=           -105.4184   ZZ=           -107.0187
   XY=            -27.4622   XZ=             -1.3510   YZ=             -1.1511

 Normal termination of Gaussian 16 at Fri May  7 04:53:14 2021.
