 Gaussian 16, Revision A.03,
 Gaussian 16:  EM64L-G16RevA.03 25-Dec-2016

 -------------
 #p 6-31g* mp2
 -------------

 ------------------------------------------------------
 Input file generated by CHIRIPA (05-May-2021 14:57:25)
 ------------------------------------------------------
 Symbolic Z-matrix:
 Charge =  0 Multiplicity = 1

                         Standard orientation:
 ---------------------------------------------------------------------
 Center     Atomic      Atomic             Coordinates (Angstroms)
 Number     Number       Type             X           Y           Z
 ---------------------------------------------------------------------
      1          6           0        1.862176   -0.819996    1.460430
      2          6           0        1.681935   -0.007568    0.336155
      3          6           0        2.779322    0.402395   -0.426879
      4          6           0        4.048569   -0.020542   -0.035180
      5          6           0        4.260571   -0.830060    1.079730
      6          6           0        3.148650   -1.227930    1.827981
      7          1           0        1.004054   -1.133768    2.047431
      8          1           0        0.683999    0.310766    0.048351
      9          1           0        2.668397    1.031284   -1.301872
     10          1           0        5.267546   -1.131308    1.341778
     11          1           0        3.291626   -1.858880    2.700624
     12          7           0        5.218016    0.407067   -0.835145
     13          8           0        6.325939    0.020881   -0.469078
     14          8           0        5.004563    1.120316   -1.813077
     15          6           0       -3.431154    2.467491    0.636780
     16          6           0       -2.363065    1.573883    0.505744
     17          6           0       -2.586620    0.254792    0.100071
     18          6           0       -3.896886   -0.138732   -0.167570
     19          6           0       -4.981944    0.727999   -0.046264
     20          6           0       -4.734885    2.042447    0.360844
     21          1           0       -3.248361    3.490390    0.952474
     22          1           0       -1.349521    1.901207    0.719365
     23          1           0       -1.778178   -0.457827   -0.009533
     24          1           0       -5.981256    0.372510   -0.266306
     25          1           0       -5.566310    2.734254    0.461755
     26          7           0       -4.145994   -1.532737   -0.597798
     27          8           0       -5.309658   -1.854783   -0.827601
     28          8           0       -3.172865   -2.276916   -0.697060
 ---------------------------------------------------------------------

 SCF Done:  E(RHF) =  -868.336625889     A.U. after   16 cycles
 E2 =    -0.2600098300D+01 EUMP2 =    -0.87093672418938D+03

 The electronic state is 1-A.
 Alpha  occ. eigenvalues --  -20.61448 -20.61434 -20.61046 -20.61038 -15.86502
 Alpha  occ. eigenvalues --  -15.86105 -11.31984 -11.31558 -11.28670 -11.28497
 Alpha  occ. eigenvalues --  -11.28271 -11.28214 -11.28133 -11.27951 -11.27667
 Alpha  occ. eigenvalues --  -11.27509 -11.27335 -11.27129  -1.60516  -1.60119
 Alpha  occ. eigenvalues --   -1.40068  -1.39670  -1.20157  -1.19764  -1.09513
 Alpha  occ. eigenvalues --   -1.09144  -1.05606  -1.05194  -0.96339  -0.95954
 Alpha  occ. eigenvalues --   -0.86974  -0.86606  -0.83195  -0.82791  -0.78253
 Alpha  occ. eigenvalues --   -0.77809  -0.72716  -0.72322  -0.71842  -0.71443
 Alpha  occ. eigenvalues --   -0.71260  -0.70861  -0.65837  -0.65608  -0.65427
 Alpha  occ. eigenvalues --   -0.65269  -0.63048  -0.62424  -0.56043  -0.55685
 Alpha  occ. eigenvalues --   -0.53889  -0.53717  -0.53479  -0.53300  -0.49484
 Alpha  occ. eigenvalues --   -0.49466  -0.49089  -0.49069  -0.45450  -0.45055
 Alpha  occ. eigenvalues --   -0.38100  -0.37741  -0.37204  -0.36793
 Alpha virt. eigenvalues --    0.04329   0.04743   0.10464   0.10772   0.15794
 Alpha virt. eigenvalues --    0.16181   0.17858   0.22087   0.24695   0.27035
 Alpha virt. eigenvalues --    0.27679   0.29182   0.29937   0.31394   0.31682

 Mulliken charges:
               1
     1  C   -0.170311
     2  C   -0.224665
     3  C   -0.170403
     4  C    0.159002
     5  C   -0.169445
     6  C   -0.218349
     7  H    0.226983
     8  H    0.218096
     9  H    0.276831
    10  H    0.277527
    11  H    0.226141
    12  N    0.488038
    13  O   -0.458961
    14  O   -0.459881
    15  C   -0.169901
    16  C   -0.220995
    17  C   -0.177095
    18  C    0.160882
    19  C   -0.169601
    20  C   -0.218011
    21  H    0.228936
    22  H    0.220084
    23  H    0.270037
    24  H    0.278314
    25  H    0.226867
    26  N    0.488401
    27  O   -0.457142
    28  O   -0.461380
 Sum of Mulliken charges =  -0.00000

 Dipole moment (field-independent basis, Debye):
    X=             -3.3210    Y=              3.3983    Z=              4.3669  Tot=              6.4535
 Quadrupole moment (field-independent basis, Debye-Ang):
   XX=           -136.5959   YY=           -105.5158   ZZ=           -104.7910
   XY=            -28.8400   XZ=              8.1569   YZ=             -2.9792

 Normal termination of Gaussian 16 at Thu May  6 11:26:18 2021.
