 Gaussian 16, Revision A.03,
 Gaussian 16:  EM64L-G16RevA.03 25-Dec-2016

 -------------
 #p 6-31g* mp2
 -------------

 ------------------------------------------------------
 Input file generated by CHIRIPA (05-May-2021 14:55:22)
 ------------------------------------------------------
 Symbolic Z-matrix:
 Charge =  0 Multiplicity = 1

                         Standard orientation:
 ---------------------------------------------------------------------
 Center     Atomic      Atomic             Coordinates (Angstroms)
 Number     Number       Type             X           Y           Z
 ---------------------------------------------------------------------
      1          6           0       -0.471448   -2.232005    1.032249
      2          6           0       -0.213398   -1.756749   -0.257737
      3          6           0       -1.104624   -0.879409   -0.882668
      4          6           0       -2.249296   -0.496234   -0.185391
      5          6           0       -2.534277   -0.952402    1.100683
      6          6           0       -1.629023   -1.829025    1.706153
      7          1           0        0.226327   -2.913265    1.510151
      8          1           0        0.684790   -2.068014   -0.783491
      9          1           0       -0.929451   -0.496180   -1.880600
     10          1           0       -3.438066   -0.624260    1.599589
     11          1           0       -1.832007   -2.196511    2.708050
     12          7           0       -3.200222    0.432187   -0.836677
     13          8           0       -4.201562    0.754688   -0.201107
     14          8           0       -2.926213    0.819802   -1.970392
     15          6           0        2.989297    0.405497   -0.453037
     16          6           0        4.126556   -0.490720    0.038310
     17          6           0        4.738200   -1.335929   -1.079414
     18          1           0        2.210041   -0.219370   -0.910473
     19          1           0        3.367754    1.064233   -1.246908
     20          1           0        3.746406   -1.146611    0.831977
     21          1           0        4.903108    0.136336    0.494801
     22          1           0        5.143892   -0.695125   -1.868961
     23          1           0        3.980619   -1.985361   -1.529869
     24          1           0        5.549191   -1.968999   -0.706083
     25          6           0        2.367686    1.256581    0.652849
     26          6           0        1.230427    2.152798    0.161502
     27          6           0        0.618783    2.998007    1.279227
     28          1           0        1.989229    0.597845    1.446721
     29          1           0        3.146942    1.881447    1.110285
     30          1           0        0.453875    1.525741   -0.294989
     31          1           0        1.610576    2.808690   -0.632165
     32          1           0        1.376363    3.647439    1.729681
     33          1           0        0.213091    2.357202    2.068773
     34          1           0       -0.192209    3.631078    0.905896
 ---------------------------------------------------------------------

 SCF Done:  E(RHF) =  -669.534557124     A.U. after   15 cycles
 E2 =    -0.2094726743D+01 EUMP2 =    -0.67162928386677D+03

 The electronic state is 1-A.
 Alpha  occ. eigenvalues --  -20.60847 -20.60842 -15.85902 -11.31313 -11.27878
 Alpha  occ. eigenvalues --  -11.27874 -11.27631 -11.26903 -11.26893 -11.22239
 Alpha  occ. eigenvalues --  -11.21900 -11.21763 -11.21672 -11.21599 -11.21047
 Alpha  occ. eigenvalues --   -1.59921  -1.39473  -1.19499  -1.08896  -1.08809
 Alpha  occ. eigenvalues --   -1.04909  -1.03876  -0.96335  -0.95704  -0.87352
 Alpha  occ. eigenvalues --   -0.86297  -0.82541  -0.79968  -0.78632  -0.77566
 Alpha  occ. eigenvalues --   -0.72118  -0.71247  -0.70591  -0.65607  -0.65142
 Alpha  occ. eigenvalues --   -0.64833  -0.62240  -0.61288  -0.59720  -0.57927
 Alpha  occ. eigenvalues --   -0.55658  -0.55386  -0.53248  -0.53023  -0.52986
 Alpha  occ. eigenvalues --   -0.52729  -0.50288  -0.48883  -0.48871  -0.48269
 Alpha  occ. eigenvalues --   -0.47028  -0.46150  -0.46067  -0.44860  -0.44127
 Alpha  occ. eigenvalues --   -0.37451  -0.36414
 Alpha virt. eigenvalues --    0.04930   0.11026   0.16311   0.19542   0.23089
 Alpha virt. eigenvalues --    0.23574   0.25392   0.26435   0.27505   0.28316
 Alpha virt. eigenvalues --    0.29493   0.29600   0.31291   0.31585   0.31986

 Mulliken charges:
               1
     1  C   -0.172913
     2  C   -0.215037
     3  C   -0.174636
     4  C    0.160917
     5  C   -0.170846
     6  C   -0.218515
     7  H    0.226482
     8  H    0.225805
     9  H    0.277018
    10  H    0.276271
    11  H    0.224155
    12  N    0.488194
    13  O   -0.459951
    14  O   -0.460150
    15  C   -0.299522
    16  C   -0.300097
    17  C   -0.474913
    18  H    0.141096
    19  H    0.152825
    20  H    0.146266
    21  H    0.155905
    22  H    0.159127
    23  H    0.147758
    24  H    0.162097
    25  C   -0.297147
    26  C   -0.304037
    27  C   -0.476884
    28  H    0.147592
    29  H    0.150463
    30  H    0.156046
    31  H    0.153033
    32  H    0.154311
    33  H    0.153535
    34  H    0.165753
 Sum of Mulliken charges =  -0.00000

 Dipole moment (field-independent basis, Debye):
    X=              3.2853    Y=             -3.2138    Z=              2.3091  Tot=              5.1433
 Quadrupole moment (field-independent basis, Debye-Ang):
   XX=           -108.2357   YY=            -92.0054   ZZ=            -93.0477
   XY=              6.8504   XZ=             -8.3697   YZ=             -1.4473

 Normal termination of Gaussian 16 at Wed May  5 17:30:06 2021.
