 Gaussian 16, Revision A.03,
 Gaussian 16:  EM64L-G16RevA.03 25-Dec-2016

 -------------
 #p 6-31g* mp2
 -------------

 ------------------------------------------------------
 Input file generated by CHIRIPA (05-May-2021 14:51:10)
 ------------------------------------------------------
 Symbolic Z-matrix:
 Charge =  0 Multiplicity = 1

                         Standard orientation:
 ---------------------------------------------------------------------
 Center     Atomic      Atomic             Coordinates (Angstroms)
 Number     Number       Type             X           Y           Z
 ---------------------------------------------------------------------
      1          6           0        3.274303   -0.737917   -0.110078
      2          6           0        1.885792   -0.831369   -0.743550
      3          6           0        1.293292   -2.238647   -0.664134
      4          1           0        3.946669   -1.449089   -0.609180
      5          1           0        3.211971   -1.051732    0.941126
      6          1           0        1.950464   -0.516151   -1.792869
      7          1           0        1.216702   -0.119755   -0.243010
      8          1           0        1.199868   -2.559023    0.378570
      9          1           0        1.937799   -2.957671   -1.180095
     10          1           0        0.300569   -2.282757   -1.122845
     11          6           0        3.879813    0.662784   -0.181653
     12          6           0        5.268325    0.756237    0.451819
     13          6           0        5.860825    2.163514    0.372402
     14          1           0        3.942145    0.976599   -1.232857
     15          1           0        3.207447    1.373956    0.317449
     16          1           0        5.937414    0.044622   -0.048721
     17          1           0        5.203653    0.441018    1.501138
     18          1           0        5.216318    2.882538    0.888364
     19          1           0        5.954249    2.483891   -0.670302
     20          1           0        6.853548    2.207624    0.831113
     21          6           0       -3.835936    0.592997   -0.310107
     22          6           0       -4.529578    1.725586    0.447580
     23          6           0       -5.042013    2.829216   -0.478273
     24          1           0       -2.998499    1.006448   -0.888641
     25          1           0       -4.538076    0.164871   -1.038874
     26          1           0       -3.826777    2.150534    1.175663
     27          1           0       -5.365343    1.309361    1.024529
     28          1           0       -5.763218    2.425666   -1.196335
     29          1           0       -4.215909    3.271618   -1.044341
     30          1           0       -5.534342    3.628665    0.084180
     31          6           0       -3.318181   -0.517864    0.601838
     32          6           0       -2.624539   -1.650453   -0.155849
     33          6           0       -2.112104   -2.754083    0.770005
     34          1           0       -2.616040   -0.089738    1.330606
     35          1           0       -4.155618   -0.931315    1.180373
     36          1           0       -1.788773   -1.234229   -0.732797
     37          1           0       -3.327340   -2.075401   -0.883932
     38          1           0       -2.938207   -3.196486    1.336073
     39          1           0       -1.390899   -2.350533    1.488067
     40          1           0       -1.619775   -3.553532    0.207551
 ---------------------------------------------------------------------

 SCF Done:  E(RHF) =  -470.732446769     A.U. after   11 cycles
 E2 =    -0.1583363445D+01 EUMP2 =    -0.47231581021400D+03

 The electronic state is 1-A.
 Alpha  occ. eigenvalues --  -11.21618 -11.21614 -11.21602 -11.21573 -11.21420
 Alpha  occ. eigenvalues --  -11.21400 -11.21361 -11.21341 -11.21083 -11.21070
 Alpha  occ. eigenvalues --  -11.20997 -11.20984  -1.08456  -1.08410  -1.03594
 Alpha  occ. eigenvalues --   -1.03461  -0.96072  -0.95873  -0.87070  -0.86905
 Alpha  occ. eigenvalues --   -0.79615  -0.79570  -0.78261  -0.78238  -0.65143
 Alpha  occ. eigenvalues --   -0.65007  -0.61151  -0.60790  -0.59586  -0.59112
 Alpha  occ. eigenvalues --   -0.57750  -0.57391  -0.55458  -0.55051  -0.52819
 Alpha  occ. eigenvalues --   -0.52529  -0.52419  -0.52295  -0.50062  -0.49743
 Alpha  occ. eigenvalues --   -0.47956  -0.47875  -0.46701  -0.46519  -0.45801
 Alpha  occ. eigenvalues --   -0.45777  -0.45737  -0.45670  -0.43803  -0.43726
 Alpha virt. eigenvalues --    0.21058   0.23172   0.23493   0.25367   0.26313
 Alpha virt. eigenvalues --    0.26527   0.26883   0.27164   0.28005   0.29121
 Alpha virt. eigenvalues --    0.29813   0.31061   0.31216   0.32131   0.32458

 Mulliken charges:
               1
     1  C   -0.298273
     2  C   -0.300864
     3  C   -0.480532
     4  H    0.149944
     5  H    0.149490
     6  H    0.151711
     7  H    0.151112
     8  H    0.156921
     9  H    0.154342
    10  H    0.166318
    11  C   -0.298246
    12  C   -0.299661
    13  C   -0.475707
    14  H    0.149543
    15  H    0.149365
    16  H    0.152024
    17  H    0.151936
    18  H    0.155118
    19  H    0.155201
    20  H    0.160316
    21  C   -0.298476
    22  C   -0.299609
    23  C   -0.475719
    24  H    0.149735
    25  H    0.149543
    26  H    0.151772
    27  H    0.151963
    28  H    0.155198
    29  H    0.155217
    30  H    0.160230
    31  C   -0.297648
    32  C   -0.305377
    33  C   -0.475279
    34  H    0.149076
    35  H    0.149719
    36  H    0.156034
    37  H    0.151723
    38  H    0.154373
    39  H    0.155464
    40  H    0.162000
 Sum of Mulliken charges =  -0.00000

 Dipole moment (field-independent basis, Debye):
    X=              0.0017    Y=             -0.0197    Z=             -0.0035  Tot=              0.0201
 Quadrupole moment (field-independent basis, Debye-Ang):
   XX=            -84.3800   YY=            -86.1658   ZZ=            -84.2657
   XY=              0.1783   XZ=             -0.5199   YZ=              0.7166

 Normal termination of Gaussian 16 at Wed May  5 15:12:35 2021.
