 Gaussian 16, Revision A.03,
 Gaussian 16:  EM64L-G16RevA.03 25-Dec-2016

 -------------
 #p 6-31g* mp2
 -------------

 ------------------------------------------------------
 Input file generated by CHIRIPA (05-May-2021 14:53:14)
 ------------------------------------------------------
 Symbolic Z-matrix:
 Charge =  0 Multiplicity = 1

                         Standard orientation:
 ---------------------------------------------------------------------
 Center     Atomic      Atomic             Coordinates (Angstroms)
 Number     Number       Type             X           Y           Z
 ---------------------------------------------------------------------
      1          6           0        3.160000    0.600216   -0.509201
      2          6           0        3.369865    2.037733   -0.032245
      3          6           0        2.250874    2.978497   -0.480145
      4          1           0        3.088204    0.591143   -1.605425
      5          1           0        2.196600    0.232358   -0.129811
      6          1           0        4.333219    2.402294   -0.411272
      7          1           0        3.441362    2.043360    1.062960
      8          1           0        1.285050    2.641599   -0.089908
      9          1           0        2.181974    3.002572   -1.572516
     10          1           0        2.420985    4.000821   -0.128326
     11          6           0        4.270438   -0.352234   -0.069320
     12          6           0        4.060573   -1.789750   -0.546276
     13          6           0        5.179565   -2.730515   -0.098376
     14          1           0        5.233838    0.015624   -0.448710
     15          1           0        4.342235   -0.343161    1.026904
     16          1           0        3.989077   -1.795378   -1.641480
     17          1           0        3.097220   -2.154312   -0.167249
     18          1           0        5.248464   -2.754590    0.993995
     19          1           0        6.145389   -2.393617   -0.488613
     20          1           0        5.009454   -3.752839   -0.450194
     21          6           0       -4.859994   -0.926749   -1.132507
     22          6           0       -4.260691   -1.763174   -0.185011
     23          6           0       -3.175524   -1.313920    0.573364
     24          6           0       -2.713273   -0.016638    0.357319
     25          6           0       -3.289082    0.840553   -0.579141
     26          6           0       -4.373135    0.370159   -1.326207
     27          1           0       -5.702544   -1.283951   -1.717238
     28          1           0       -4.636681   -2.770845   -0.032447
     29          1           0       -2.692777   -1.940416    1.313549
     30          1           0       -2.892038    1.840041   -0.708752
     31          1           0       -4.836592    1.021942   -2.061346
     32          7           0       -1.565046    0.470157    1.154190
     33          8           0       -1.176577    1.617293    0.944883
     34          8           0       -1.075275   -0.304645    1.972996
 ---------------------------------------------------------------------

 SCF Done:  E(RHF) =  -669.536534763     A.U. after   15 cycles
 E2 =    -0.2091027951D+01 EUMP2 =    -0.67162756271350D+03

 The electronic state is 1-A.
 Alpha  occ. eigenvalues --  -20.61031 -20.61026 -15.86056 -11.31329 -11.27889
 Alpha  occ. eigenvalues --  -11.27882 -11.27620 -11.26886 -11.26875 -11.20946
 Alpha  occ. eigenvalues --  -11.20563 -11.20533 -11.20481 -11.20363 -11.19683
 Alpha  occ. eigenvalues --   -1.60087  -1.39644  -1.19494  -1.08908  -1.07524
 Alpha  occ. eigenvalues --   -1.04883  -1.02606  -0.95757  -0.95050  -0.86286
 Alpha  occ. eigenvalues --   -0.86072  -0.82592  -0.78703  -0.77650  -0.77322
 Alpha  occ. eigenvalues --   -0.72278  -0.71396  -0.70603  -0.65151  -0.64887
 Alpha  occ. eigenvalues --   -0.64142  -0.62231  -0.59986  -0.58467  -0.56667
 Alpha  occ. eigenvalues --   -0.55392  -0.54315  -0.53217  -0.52975  -0.51769
 Alpha  occ. eigenvalues --   -0.51482  -0.49132  -0.49036  -0.48883  -0.47013
 Alpha  occ. eigenvalues --   -0.45747  -0.45079  -0.44860  -0.44678  -0.42873
 Alpha  occ. eigenvalues --   -0.37470  -0.36482
 Alpha virt. eigenvalues --    0.04842   0.11174   0.16324   0.21298   0.23763
 Alpha virt. eigenvalues --    0.25288   0.27231   0.27501   0.28098   0.28415
 Alpha virt. eigenvalues --    0.29026   0.30856   0.32186   0.32489   0.32631

 Mulliken charges:
               1
     1  C   -0.299535
     2  C   -0.297225
     3  C   -0.488110
     4  H    0.143970
     5  H    0.157214
     6  H    0.145723
     7  H    0.154879
     8  H    0.182300
     9  H    0.145634
    10  H    0.155282
    11  C   -0.297668
    12  C   -0.299424
    13  C   -0.475216
    14  H    0.146459
    15  H    0.151835
    16  H    0.148804
    17  H    0.153348
    18  H    0.155833
    19  H    0.153734
    20  H    0.157291
    21  C   -0.170415
    22  C   -0.218593
    23  C   -0.170547
    24  C    0.157770
    25  C   -0.170470
    26  C   -0.218581
    27  H    0.226172
    28  H    0.223947
    29  H    0.275795
    30  H    0.276272
    31  H    0.224081
    32  N    0.490217
    33  O   -0.461540
    34  O   -0.459235
 Sum of Mulliken charges =  -0.00000

 Dipole moment (field-independent basis, Debye):
    X=             -4.3759    Y=             -1.7420    Z=             -2.6668  Tot=              5.4125
 Quadrupole moment (field-independent basis, Debye-Ang):
   XX=            -74.5786   YY=            -92.0491   ZZ=            -95.7413
   XY=              5.1992   XZ=              6.4258   YZ=             -2.7846

 Normal termination of Gaussian 16 at Thu May  6 17:07:25 2021.
