 Gaussian 16, Revision A.03,
 Gaussian 16:  EM64L-G16RevA.03 25-Dec-2016

 -------------
 #p 6-31g* mp2
 -------------

 ------------------------------------------------------
 Input file generated by CHIRIPA (05-May-2021 14:55:25)
 ------------------------------------------------------
 Symbolic Z-matrix:
 Charge =  0 Multiplicity = 1

                         Standard orientation:
 ---------------------------------------------------------------------
 Center     Atomic      Atomic             Coordinates (Angstroms)
 Number     Number       Type             X           Y           Z
 ---------------------------------------------------------------------
      1          6           0       -5.184099   -0.626112   -0.755325
      2          6           0       -4.758633    0.664537   -0.424080
      3          6           0       -3.480284    0.878076    0.100109
      4          6           0       -2.649689   -0.226797    0.280824
      5          6           0       -3.044624   -1.524761   -0.039498
      6          6           0       -4.327247   -1.714723   -0.562317
      7          1           0       -6.178811   -0.782837   -1.161996
      8          1           0       -5.421938    1.511841   -0.572901
      9          1           0       -3.125343    1.866614    0.365113
     10          1           0       -2.360888   -2.349648    0.120144
     11          1           0       -4.654990   -2.718174   -0.818669
     12          7           0       -1.294096   -0.013213    0.835034
     13          8           0       -0.581354   -1.003280    0.984713
     14          8           0       -0.969993    1.140216    1.109252
     15          6           0        3.228410    0.803370   -0.645832
     16          6           0        2.487388    1.825327    0.216998
     17          6           0        1.592844    2.754463   -0.604155
     18          1           0        3.835502    1.334289   -1.391827
     19          1           0        2.495357    0.206995   -1.206513
     20          1           0        3.221572    2.418674    0.776934
     21          1           0        1.882138    1.291916    0.961150
     22          1           0        0.838725    2.179160   -1.150901
     23          1           0        2.185768    3.312320   -1.336165
     24          1           0        1.072649    3.476929    0.032477
     25          6           0        4.126745   -0.132655    0.160755
     26          6           0        4.867767   -1.154611   -0.702075
     27          6           0        5.762311   -2.083747    0.119078
     28          1           0        4.859798    0.463721    0.721437
     29          1           0        3.519653   -0.663573    0.906751
     30          1           0        5.473017   -0.621200   -1.446227
     31          1           0        4.133583   -1.747958   -1.262011
     32          1           0        5.169387   -2.641604    0.851087
     33          1           0        6.516430   -1.508444    0.665825
     34          1           0        6.282505   -2.806213   -0.517553
 ---------------------------------------------------------------------

 SCF Done:  E(RHF) =  -669.536595774     A.U. after   15 cycles
 E2 =    -0.2092188226D+01 EUMP2 =    -0.67162878399984D+03

 The electronic state is 1-A.
 Alpha  occ. eigenvalues --  -20.61139 -20.61107 -15.86116 -11.31385 -11.27937
 Alpha  occ. eigenvalues --  -11.27930 -11.27663 -11.26929 -11.26918 -11.20630
 Alpha  occ. eigenvalues --  -11.20254 -11.20128 -11.19986 -11.19757 -11.19546
 Alpha  occ. eigenvalues --   -1.60163  -1.39720  -1.19544  -1.08961  -1.07107
 Alpha  occ. eigenvalues --   -1.04929  -1.02213  -0.95813  -0.94711  -0.86332
 Alpha  occ. eigenvalues --   -0.85749  -0.82645  -0.78320  -0.77707  -0.76877
 Alpha  occ. eigenvalues --   -0.72338  -0.71473  -0.70651  -0.65200  -0.64934
 Alpha  occ. eigenvalues --   -0.63721  -0.62276  -0.59598  -0.58118  -0.56304
 Alpha  occ. eigenvalues --   -0.55436  -0.54021  -0.53260  -0.53018  -0.51439
 Alpha  occ. eigenvalues --   -0.51153  -0.49137  -0.49097  -0.48685  -0.46634
 Alpha  occ. eigenvalues --   -0.45340  -0.45076  -0.44452  -0.44226  -0.42477
 Alpha  occ. eigenvalues --   -0.37519  -0.36526
 Alpha virt. eigenvalues --    0.04800   0.11129   0.16297   0.21255   0.24143
 Alpha virt. eigenvalues --    0.25556   0.27193   0.27846   0.28215   0.28877
 Alpha virt. eigenvalues --    0.29141   0.30883   0.32327   0.32627   0.32988

 Mulliken charges:
               1
     1  C   -0.170341
     2  C   -0.218571
     3  C   -0.170520
     4  C    0.158275
     5  C   -0.170680
     6  C   -0.218607
     7  H    0.226370
     8  H    0.224270
     9  H    0.276411
    10  H    0.275865
    11  H    0.224132
    12  N    0.488553
    13  O   -0.460237
    14  O   -0.456911
    15  C   -0.295830
    16  C   -0.308101
    17  C   -0.465698
    18  H    0.142033
    19  H    0.148091
    20  H    0.142813
    21  H    0.180509
    22  H    0.149220
    23  H    0.143245
    24  H    0.159966
    25  C   -0.299337
    26  C   -0.298449
    27  C   -0.475172
    28  H    0.145620
    29  H    0.158241
    30  H    0.148386
    31  H    0.150745
    32  H    0.155954
    33  H    0.153480
    34  H    0.156274
 Sum of Mulliken charges =  -0.00000

 Dipole moment (field-independent basis, Debye):
    X=             -5.2207    Y=             -0.8513    Z=             -1.7455  Tot=              5.5702
 Quadrupole moment (field-independent basis, Debye-Ang):
   XX=            -71.0294   YY=            -90.3031   ZZ=            -97.0932
   XY=              2.8951   XZ=              4.1054   YZ=              1.1519

 Normal termination of Gaussian 16 at Thu May  6 17:45:42 2021.
