 Gaussian 16, Revision A.03,
 Gaussian 16:  EM64L-G16RevA.03 25-Dec-2016

 -------------
 #p 6-31g* mp2
 -------------

 ------------------------------------------------------
 Input file generated by CHIRIPA (05-May-2021 14:57:24)
 ------------------------------------------------------
 Symbolic Z-matrix:
 Charge =  0 Multiplicity = 1

                         Standard orientation:
 ---------------------------------------------------------------------
 Center     Atomic      Atomic             Coordinates (Angstroms)
 Number     Number       Type             X           Y           Z
 ---------------------------------------------------------------------
      1          6           0       -1.561385    2.050007   -0.863457
      2          6           0       -2.924003    2.144106   -0.561901
      3          6           0       -3.658034    1.001803   -0.228900
      4          6           0       -2.994605   -0.224033   -0.207021
      5          6           0       -1.638134   -0.350243   -0.502566
      6          6           0       -0.923923    0.805327   -0.832881
      7          1           0       -0.998870    2.942528   -1.121097
      8          1           0       -3.421683    3.109421   -0.584852
      9          1           0       -4.713933    1.046013    0.008882
     10          1           0       -1.169612   -1.326424   -0.471320
     11          1           0        0.134199    0.729246   -1.066621
     12          7           0       -3.761200   -1.440361    0.144091
     13          8           0       -3.153426   -2.508583    0.156303
     14          8           0       -4.955315   -1.302466    0.400432
     15          6           0        1.555117    1.851300    1.405489
     16          6           0        2.288068    2.133836    0.248131
     17          6           0        3.019316    1.128941   -0.392192
     18          6           0        2.995212   -0.153130    0.154619
     19          6           0        2.274741   -0.465947    1.306296
     20          6           0        1.550800    0.554597    1.929953
     21          1           0        0.989904    2.638006    1.896434
     22          1           0        2.293253    3.139960   -0.161419
     23          1           0        3.595378    1.320034   -1.289439
     24          1           0        2.288872   -1.478517    1.690899
     25          1           0        0.982486    0.332280    2.828639
     26          7           0        3.765482   -1.225251   -0.514440
     27          8           0        3.727953   -2.346639   -0.012727
     28          8           0        4.392164   -0.923890   -1.527893
 ---------------------------------------------------------------------

 SCF Done:  E(RHF) =  -868.336080137     A.U. after   16 cycles
 E2 =    -0.2604110608D+01 EUMP2 =    -0.87094019074426D+03

 The electronic state is 1-A.
 Alpha  occ. eigenvalues --  -20.61515 -20.61500 -20.60990 -20.60981 -15.86573
 Alpha  occ. eigenvalues --  -15.86036 -11.32179 -11.31451 -11.28779 -11.28677
 Alpha  occ. eigenvalues --  -11.28419 -11.27985 -11.27896 -11.27783 -11.27753
 Alpha  occ. eigenvalues --  -11.27638 -11.27097 -11.26870  -1.60587  -1.60063
 Alpha  occ. eigenvalues --   -1.40131  -1.39614  -1.20373  -1.19600  -1.09690
 Alpha  occ. eigenvalues --   -1.09004  -1.05761  -1.04987  -0.96478  -0.95836
 Alpha  occ. eigenvalues --   -0.87122  -0.86396  -0.83285  -0.82652  -0.78318
 Alpha  occ. eigenvalues --   -0.77692  -0.72769  -0.72252  -0.71931  -0.71391
 Alpha  occ. eigenvalues --   -0.71374  -0.70743  -0.65955  -0.65701  -0.65245
 Alpha  occ. eigenvalues --   -0.65038  -0.63061  -0.62377  -0.56183  -0.55588
 Alpha  occ. eigenvalues --   -0.54436  -0.53790  -0.53295  -0.52662  -0.49553
 Alpha  occ. eigenvalues --   -0.49520  -0.49009  -0.49007  -0.45482  -0.45008
 Alpha  occ. eigenvalues --   -0.38690  -0.37563  -0.37349  -0.36299
 Alpha virt. eigenvalues --    0.04101   0.04849   0.10167   0.11062   0.15643
 Alpha virt. eigenvalues --    0.16331   0.20139   0.21570   0.25949   0.27143
 Alpha virt. eigenvalues --    0.27377   0.28484   0.30000   0.30913   0.32050

 Mulliken charges:
               1
     1  C   -0.179342
     2  C   -0.218380
     3  C   -0.173369
     4  C    0.158838
     5  C   -0.176863
     6  C   -0.214263
     7  H    0.218797
     8  H    0.222271
     9  H    0.275484
    10  H    0.277045
    11  H    0.233237
    12  N    0.487624
    13  O   -0.458864
    14  O   -0.460305
    15  C   -0.165628
    16  C   -0.229349
    17  C   -0.179880
    18  C    0.157076
    19  C   -0.174527
    20  C   -0.215273
    21  H    0.228539
    22  H    0.223073
    23  H    0.278408
    24  H    0.281591
    25  H    0.230415
    26  N    0.487861
    27  O   -0.455542
    28  O   -0.458674
 Sum of Mulliken charges =  -0.00000

 Dipole moment (field-independent basis, Debye):
    X=              0.2104    Y=              7.8872    Z=              1.3113  Tot=              7.9982
 Quadrupole moment (field-independent basis, Debye-Ang):
   XX=           -134.1808   YY=           -105.1976   ZZ=           -101.9557
   XY=             -3.2823   XZ=              8.2815   YZ=             -2.4872

 Normal termination of Gaussian 16 at Thu May  6 16:21:20 2021.
