 Gaussian 16, Revision A.03,
 Gaussian 16:  EM64L-G16RevA.03 25-Dec-2016

 -------------
 #p 6-31g* mp2
 -------------

 ------------------------------------------------------
 Input file generated by CHIRIPA (05-May-2021 14:55:21)
 ------------------------------------------------------
 Symbolic Z-matrix:
 Charge =  0 Multiplicity = 1

                         Standard orientation:
 ---------------------------------------------------------------------
 Center     Atomic      Atomic             Coordinates (Angstroms)
 Number     Number       Type             X           Y           Z
 ---------------------------------------------------------------------
      1          6           0       -1.744740    1.998576    0.881268
      2          6           0       -2.877873    2.011785    0.061294
      3          6           0       -3.487695    0.814986   -0.326440
      4          6           0       -2.935418   -0.382268    0.126178
      5          6           0       -1.807381   -0.428250    0.943924
      6          6           0       -1.214046    0.780747    1.319193
      7          1           0       -1.277419    2.933016    1.177627
      8          1           0       -3.292193    2.956078   -0.280312
      9          1           0       -4.365751    0.796252   -0.960542
     10          1           0       -1.417301   -1.385257    1.268567
     11          1           0       -0.334126    0.767453    1.956068
     12          7           0       -3.572282   -1.655722   -0.277701
     13          8           0       -3.066362   -2.697258    0.134468
     14          8           0       -4.565318   -1.588206   -0.998784
     15          6           0        4.124636   -0.127573    0.212106
     16          6           0        4.883142   -1.265676   -0.471542
     17          6           0        5.883029   -1.952567    0.459157
     18          1           0        4.845594    0.611425    0.587671
     19          1           0        3.596815   -0.523784    1.090637
     20          1           0        5.408257   -0.867703   -1.349317
     21          1           0        4.160285   -2.001955   -0.845692
     22          1           0        5.371155   -2.376280    1.329246
     23          1           0        6.626218   -1.235583    0.822759
     24          1           0        6.414097   -2.762917   -0.049918
     25          6           0        3.121329    0.568883   -0.705525
     26          6           0        2.362824    1.706987   -0.021876
     27          6           0        1.362936    2.393877   -0.952576
     28          1           0        3.649150    0.965095   -1.584057
     29          1           0        2.400371   -0.170113   -1.081090
     30          1           0        3.085681    2.443267    0.352273
     31          1           0        1.837709    1.309014    0.855898
     32          1           0        0.619748    1.676894   -1.316177
     33          1           0        1.874810    2.817591   -1.822664
     34          1           0        0.831868    3.204228   -0.443500
 ---------------------------------------------------------------------

 SCF Done:  E(RHF) =  -669.534511382     A.U. after   15 cycles
 E2 =    -0.2093009625D+01 EUMP2 =    -0.67162752100667D+03

 The electronic state is 1-A.
 Alpha  occ. eigenvalues --  -20.60781 -20.60776 -15.85836 -11.31199 -11.27786
 Alpha  occ. eigenvalues --  -11.27781 -11.27513 -11.26774 -11.26764 -11.22350
 Alpha  occ. eigenvalues --  -11.21931 -11.21907 -11.21826 -11.21720 -11.21335
 Alpha  occ. eigenvalues --   -1.59858  -1.39411  -1.19386  -1.08954  -1.08765
 Alpha  occ. eigenvalues --   -1.04792  -1.04032  -0.96478  -0.95602  -0.87488
 Alpha  occ. eigenvalues --   -0.86186  -0.82444  -0.80116  -0.78742  -0.77488
 Alpha  occ. eigenvalues --   -0.72055  -0.71183  -0.70504  -0.65625  -0.65033
 Alpha  occ. eigenvalues --   -0.64777  -0.62175  -0.61395  -0.59879  -0.58090
 Alpha  occ. eigenvalues --   -0.55782  -0.55308  -0.53289  -0.52957  -0.52919
 Alpha  occ. eigenvalues --   -0.52842  -0.50371  -0.48822  -0.48809  -0.48410
 Alpha  occ. eigenvalues --   -0.47134  -0.46278  -0.46191  -0.44818  -0.44296
 Alpha  occ. eigenvalues --   -0.37294  -0.36386
 Alpha virt. eigenvalues --    0.05041   0.11161   0.16472   0.19860   0.22729
 Alpha virt. eigenvalues --    0.24158   0.24991   0.26418   0.26628   0.28192
 Alpha virt. eigenvalues --    0.28685   0.29740   0.31180   0.31796   0.32327

 Mulliken charges:
               1
     1  C   -0.165832
     2  C   -0.219967
     3  C   -0.170748
     4  C    0.158038
     5  C   -0.172674
     6  C   -0.218351
     7  H    0.226235
     8  H    0.223653
     9  H    0.275755
    10  H    0.275401
    11  H    0.224968
    12  N    0.488129
    13  O   -0.460656
    14  O   -0.460382
    15  C   -0.297967
    16  C   -0.300408
    17  C   -0.475973
    18  H    0.150006
    19  H    0.146339
    20  H    0.153011
    21  H    0.154162
    22  H    0.155171
    23  H    0.155074
    24  H    0.162201
    25  C   -0.299235
    26  C   -0.300829
    27  C   -0.474996
    28  H    0.152102
    29  H    0.152756
    30  H    0.152935
    31  H    0.142116
    32  H    0.163604
    33  H    0.157540
    34  H    0.148823
 Sum of Mulliken charges =  -0.00000

 Dipole moment (field-independent basis, Debye):
    X=              2.3016    Y=              4.4531    Z=              1.3296  Tot=              5.1860
 Quadrupole moment (field-independent basis, Debye-Ang):
   XX=           -105.7013   YY=            -97.4398   ZZ=            -93.8518
   XY=            -15.4997   XZ=             -2.7001   YZ=             -1.3983

 Normal termination of Gaussian 16 at Thu May  6 12:31:15 2021.
