 Gaussian 16, Revision A.03,
 Gaussian 16:  EM64L-G16RevA.03 25-Dec-2016

 -------------
 #p 6-31g* mp2
 -------------

 ------------------------------------------------------
 Input file generated by CHIRIPA (05-May-2021 14:51:08)
 ------------------------------------------------------
 Symbolic Z-matrix:
 Charge =  0 Multiplicity = 1

                         Standard orientation:
 ---------------------------------------------------------------------
 Center     Atomic      Atomic             Coordinates (Angstroms)
 Number     Number       Type             X           Y           Z
 ---------------------------------------------------------------------
      1          6           0        3.644374    1.007551    0.117736
      2          6           0        2.789626    2.235671   -0.197084
      3          6           0        3.433838    3.540398    0.272462
      4          1           0        3.823089    0.960926    1.200710
      5          1           0        4.628679    1.123098   -0.356803
      6          1           0        1.806744    2.117211    0.276758
      7          1           0        2.612764    2.279272   -1.279413
      8          1           0        4.405906    3.685468   -0.209866
      9          1           0        3.595306    3.522486    1.355147
     10          1           0        2.805979    4.405486    0.037352
     11          6           0        3.013669   -0.304428   -0.345568
     12          6           0        3.868417   -1.532548   -0.030748
     13          6           0        3.224205   -2.837274   -0.500293
     14          1           0        2.029364   -0.419974    0.128972
     15          1           0        2.834954   -0.257803   -1.428542
     16          1           0        4.045279   -1.576148    1.051581
     17          1           0        4.851299   -1.414087   -0.504590
     18          1           0        3.062737   -2.819362   -1.582979
     19          1           0        2.252137   -2.982344   -0.017966
     20          1           0        3.852064   -3.702362   -0.265184
     21          6           0       -2.953888   -1.015794    0.075153
     22          6           0       -1.527716   -0.939496    0.621227
     23          6           0       -0.790109   -2.276138    0.536856
     24          1           0       -3.512592   -1.780326    0.632186
     25          1           0       -2.921233   -1.352265   -0.970368
     26          1           0       -1.562962   -0.601940    1.664985
     27          1           0       -0.972399   -0.174922    0.062958
     28          1           0       -0.725372   -2.615509   -0.502007
     29          1           0       -1.319291   -3.044954    1.109123
     30          1           0        0.227397   -2.198853    0.932544
     31          6           0       -3.704155    0.312671    0.152679
     32          6           0       -5.130327    0.236372   -0.393396
     33          6           0       -5.867935    1.573013   -0.309024
     34          1           0       -3.736810    0.649141    1.198200
     35          1           0       -3.145451    1.077202   -0.404354
     36          1           0       -5.685645   -0.528201    0.164873
     37          1           0       -5.095082   -0.101184   -1.437153
     38          1           0       -5.338753    2.341830   -0.881291
     39          1           0       -5.932671    1.912386    0.729839
     40          1           0       -6.885441    1.495730   -0.704712
 ---------------------------------------------------------------------

 SCF Done:  E(RHF) =  -470.732937237     A.U. after   11 cycles
 E2 =    -0.1583272789D+01 EUMP2 =    -0.47231621002578D+03

 The electronic state is 1-A.
 Alpha  occ. eigenvalues --  -11.21647 -11.21615 -11.21599 -11.21567 -11.21430
 Alpha  occ. eigenvalues --  -11.21384 -11.21369 -11.21323 -11.21109 -11.21081
 Alpha  occ. eigenvalues --  -11.21067 -11.20966  -1.08462  -1.08406  -1.03574
 Alpha  occ. eigenvalues --   -1.03492  -0.96022  -0.95941  -0.87053  -0.86947
 Alpha  occ. eigenvalues --   -0.79659  -0.79533  -0.78276  -0.78220  -0.65122
 Alpha  occ. eigenvalues --   -0.65023  -0.61005  -0.60902  -0.59469  -0.59230
 Alpha  occ. eigenvalues --   -0.57629  -0.57556  -0.55306  -0.55241  -0.52785
 Alpha  occ. eigenvalues --   -0.52638  -0.52441  -0.52328  -0.49981  -0.49855
 Alpha  occ. eigenvalues --   -0.47982  -0.47836  -0.46671  -0.46564  -0.45858
 Alpha  occ. eigenvalues --   -0.45757  -0.45736  -0.45611  -0.43780  -0.43743
 Alpha virt. eigenvalues --    0.20814   0.23104   0.23608   0.24456   0.25970
 Alpha virt. eigenvalues --    0.26679   0.26948   0.27256   0.28214   0.29281
 Alpha virt. eigenvalues --    0.30206   0.31317   0.31698   0.31985   0.32089

 Mulliken charges:
               1
     1  C   -0.297910
     2  C   -0.300152
     3  C   -0.475649
     4  H    0.149529
     5  H    0.149590
     6  H    0.152277
     7  H    0.151652
     8  H    0.155201
     9  H    0.155241
    10  H    0.160189
    11  C   -0.304225
    12  C   -0.299409
    13  C   -0.481696
    14  H    0.155488
    15  H    0.149319
    16  H    0.151239
    17  H    0.151837
    18  H    0.154569
    19  H    0.162299
    20  H    0.159747
    21  C   -0.298599
    22  C   -0.301808
    23  C   -0.480767
    24  H    0.149814
    25  H    0.149899
    26  H    0.151567
    27  H    0.153975
    28  H    0.156838
    29  H    0.155475
    30  H    0.164200
    31  C   -0.298391
    32  C   -0.299669
    33  C   -0.475728
    34  H    0.149456
    35  H    0.149885
    36  H    0.151961
    37  H    0.152025
    38  H    0.155248
    39  H    0.155171
    40  H    0.160311
 Sum of Mulliken charges =  -0.00000

 Dipole moment (field-independent basis, Debye):
    X=             -0.0409    Y=             -0.0074    Z=             -0.0002  Tot=              0.0415
 Quadrupole moment (field-independent basis, Debye-Ang):
   XX=            -85.1385   YY=            -86.5824   ZZ=            -83.1575
   XY=              0.4449   XZ=             -0.8171   YZ=             -0.6131

 Normal termination of Gaussian 16 at Thu May  6 00:31:49 2021.
