 Gaussian 16, Revision A.03,
 Gaussian 16:  EM64L-G16RevA.03 25-Dec-2016

 -------------
 #p 6-31g* mp2
 -------------

 ------------------------------------------------------
 Input file generated by CHIRIPA (05-May-2021 14:51:13)
 ------------------------------------------------------
 Symbolic Z-matrix:
 Charge =  0 Multiplicity = 1

                         Standard orientation:
 ---------------------------------------------------------------------
 Center     Atomic      Atomic             Coordinates (Angstroms)
 Number     Number       Type             X           Y           Z
 ---------------------------------------------------------------------
      1          6           0        2.825213   -0.695884    0.508291
      2          6           0        2.046616   -1.759800   -0.266211
      3          6           0        1.406297   -2.805624    0.647046
      4          1           0        3.603470   -1.185365    1.109682
      5          1           0        2.148197   -0.199611    1.217344
      6          1           0        2.724576   -2.252971   -0.974567
      7          1           0        1.270247   -1.267713   -0.865975
      8          1           0        0.708241   -2.332029    1.344919
      9          1           0        2.170833   -3.322886    1.235710
     10          1           0        0.854751   -3.556449    0.072661
     11          6           0        3.471148    0.356682   -0.390931
     12          6           0        4.249745    1.420598    0.383572
     13          6           0        4.890064    2.466422   -0.529686
     14          1           0        4.148164   -0.139591   -1.099984
     15          1           0        2.692892    0.846163   -0.992321
     16          1           0        5.026114    0.928511    0.983336
     17          1           0        3.571785    1.913769    1.091928
     18          1           0        4.125528    2.983684   -1.118350
     19          1           0        5.588120    1.992828   -1.227559
     20          1           0        5.441610    3.217247    0.044700
     21          6           0       -3.656484    0.733421   -0.143338
     22          6           0       -3.148708    2.087307    0.353795
     23          6           0       -4.176856    3.205206    0.177705
     24          1           0       -3.929776    0.818440   -1.204011
     25          1           0       -4.577514    0.474205    0.396945
     26          1           0       -2.228151    2.343247   -0.186284
     27          1           0       -2.876412    1.999005    1.413358
     28          1           0       -5.093590    2.976063    0.730602
     29          1           0       -4.441645    3.322261   -0.878129
     30          1           0       -3.793151    4.164204    0.539579
     31          6           0       -2.639877   -0.394219    0.025978
     32          6           0       -3.147653   -1.748105   -0.471155
     33          6           0       -2.119505   -2.866004   -0.295065
     34          1           0       -1.718847   -0.135003   -0.514305
     35          1           0       -2.366584   -0.479239    1.086651
     36          1           0       -3.419950   -1.659803   -1.530718
     37          1           0       -4.068210   -2.004045    0.068925
     38          1           0       -1.854716   -2.983059    0.760768
     39          1           0       -1.202772   -2.636861   -0.847963
     40          1           0       -2.503211   -3.825002   -0.656939
 ---------------------------------------------------------------------

 SCF Done:  E(RHF) =  -470.732276178     A.U. after   11 cycles
 E2 =    -0.1583495564D+01 EUMP2 =    -0.47231577174211D+03

 The electronic state is 1-A.
 Alpha  occ. eigenvalues --  -11.21637 -11.21591 -11.21583 -11.21577 -11.21437
 Alpha  occ. eigenvalues --  -11.21387 -11.21378 -11.21326 -11.21097 -11.21066
 Alpha  occ. eigenvalues --  -11.20972 -11.20916  -1.08457  -1.08400  -1.03578
 Alpha  occ. eigenvalues --   -1.03456  -0.96069  -0.95860  -0.87119  -0.86843
 Alpha  occ. eigenvalues --   -0.79669  -0.79498  -0.78268  -0.78224  -0.65108
 Alpha  occ. eigenvalues --   -0.65016  -0.61000  -0.60870  -0.59393  -0.59307
 Alpha  occ. eigenvalues --   -0.57730  -0.57439  -0.55275  -0.55222  -0.52881
 Alpha  occ. eigenvalues --   -0.52646  -0.52400  -0.52128  -0.49937  -0.49855
 Alpha  occ. eigenvalues --   -0.47892  -0.47836  -0.46735  -0.46500  -0.45855
 Alpha  occ. eigenvalues --   -0.45787  -0.45694  -0.45605  -0.43814  -0.43711
 Alpha virt. eigenvalues --    0.20836   0.23238   0.23475   0.24976   0.25515
 Alpha virt. eigenvalues --    0.26420   0.26916   0.27634   0.28251   0.29371
 Alpha virt. eigenvalues --    0.29897   0.30904   0.31239   0.31948   0.32294

 Mulliken charges:
               1
     1  C   -0.298273
     2  C   -0.302818
     3  C   -0.476878
     4  H    0.149773
     5  H    0.150011
     6  H    0.151723
     7  H    0.152205
     8  H    0.156340
     9  H    0.153852
    10  H    0.163960
    11  C   -0.298177
    12  C   -0.299673
    13  C   -0.475675
    14  H    0.149439
    15  H    0.149159
    16  H    0.151954
    17  H    0.152035
    18  H    0.155056
    19  H    0.155144
    20  H    0.160240
    21  C   -0.298203
    22  C   -0.299605
    23  C   -0.475716
    24  H    0.149809
    25  H    0.149815
    26  H    0.151519
    27  H    0.151837
    28  H    0.155319
    29  H    0.155271
    30  H    0.160283
    31  C   -0.299122
    32  C   -0.300274
    33  C   -0.478886
    34  H    0.149461
    35  H    0.149128
    36  H    0.151547
    37  H    0.151677
    38  H    0.157261
    39  H    0.160361
    40  H    0.159119
 Sum of Mulliken charges =  -0.00000

 Dipole moment (field-independent basis, Debye):
    X=             -0.0126    Y=             -0.0227    Z=              0.0085  Tot=              0.0273
 Quadrupole moment (field-independent basis, Debye-Ang):
   XX=            -84.7132   YY=            -85.8922   ZZ=            -84.2079
   XY=             -0.2695   XZ=             -0.1964   YZ=              0.3408

 Normal termination of Gaussian 16 at Wed May  5 16:52:04 2021.
