 Gaussian 16, Revision A.03,
 Gaussian 16:  EM64L-G16RevA.03 25-Dec-2016

 -------------
 #p 6-31g* mp2
 -------------

 ------------------------------------------------------
 Input file generated by CHIRIPA (05-May-2021 14:53:11)
 ------------------------------------------------------
 Symbolic Z-matrix:
 Charge =  0 Multiplicity = 1

                         Standard orientation:
 ---------------------------------------------------------------------
 Center     Atomic      Atomic             Coordinates (Angstroms)
 Number     Number       Type             X           Y           Z
 ---------------------------------------------------------------------
      1          6           0        3.408833    0.119478    0.216417
      2          6           0        4.324023   -0.632548   -0.750469
      3          6           0        5.002446   -1.840505   -0.103648
      4          1           0        3.995048    0.448154    1.085480
      5          1           0        2.643995   -0.570878    0.598289
      6          1           0        5.086068    0.059366   -1.131466
      7          1           0        3.735603   -0.959305   -1.617422
      8          1           0        4.255086   -2.552669    0.260877
      9          1           0        5.613224   -1.528209    0.749593
     10          1           0        5.651985   -2.363441   -0.812518
     11          6           0        2.723405    1.329647   -0.415571
     12          6           0        1.808215    2.081674    0.551315
     13          6           0        1.129793    3.289630   -0.095506
     14          1           0        3.488243    2.020003   -0.797443
     15          1           0        2.137191    1.000971   -1.284634
     16          1           0        2.396636    2.408431    1.418268
     17          1           0        1.046171    1.389759    0.932312
     18          1           0        0.519014    2.977334   -0.948747
     19          1           0        1.877152    4.001794   -0.460031
     20          1           0        0.480254    3.812567    0.613364
     21          6           0       -0.184972   -1.557126    0.783275
     22          6           0       -1.016076   -0.953063    1.732429
     23          6           0       -2.243004   -0.400670    1.352878
     24          6           0       -2.609102   -0.470253    0.009592
     25          6           0       -1.802998   -1.065399   -0.959576
     26          6           0       -0.580387   -1.611270   -0.557335
     27          1           0        0.766458   -1.983705    1.086932
     28          1           0       -0.711569   -0.909568    2.774269
     29          1           0       -2.905781    0.072883    2.066945
     30          1           0       -2.133702   -1.093518   -1.990722
     31          1           0        0.063030   -2.079774   -1.296635
     32          7           0       -3.905710    0.111089   -0.404233
     33          8           0       -4.205317    0.036921   -1.593927
     34          8           0       -4.597832    0.629905    0.468942
 ---------------------------------------------------------------------

 SCF Done:  E(RHF) =  -669.535142550     A.U. after   15 cycles
 E2 =    -0.2093575165D+01 EUMP2 =    -0.67162871771464D+03

 The electronic state is 1-A.
 Alpha  occ. eigenvalues --  -20.60840 -20.60835 -15.85896 -11.31300 -11.27881
 Alpha  occ. eigenvalues --  -11.27877 -11.27624 -11.26905 -11.26895 -11.22371
 Alpha  occ. eigenvalues --  -11.22149 -11.21908 -11.21889 -11.21848 -11.21255
 Alpha  occ. eigenvalues --   -1.59915  -1.39467  -1.19489  -1.09056  -1.08856
 Alpha  occ. eigenvalues --   -1.04892  -1.04066  -0.96528  -0.95702  -0.87537
 Alpha  occ. eigenvalues --   -0.86285  -0.82532  -0.80155  -0.78845  -0.77564
 Alpha  occ. eigenvalues --   -0.72113  -0.71238  -0.70623  -0.65702  -0.65136
 Alpha  occ. eigenvalues --   -0.64869  -0.62231  -0.61472  -0.59909  -0.58137
 Alpha  occ. eigenvalues --   -0.55904  -0.55347  -0.53285  -0.53139  -0.52977
 Alpha  occ. eigenvalues --   -0.52939  -0.50469  -0.48877  -0.48865  -0.48459
 Alpha  occ. eigenvalues --   -0.47204  -0.46364  -0.46281  -0.44864  -0.44333
 Alpha  occ. eigenvalues --   -0.37398  -0.36483
 Alpha virt. eigenvalues --    0.04933   0.11083   0.16298   0.19577   0.22988
 Alpha virt. eigenvalues --    0.23641   0.25510   0.25975   0.27441   0.27729
 Alpha virt. eigenvalues --    0.29432   0.30218   0.31143   0.31401   0.31877

 Mulliken charges:
               1
     1  C   -0.300432
     2  C   -0.299963
     3  C   -0.474742
     4  H    0.151630
     5  H    0.139867
     6  H    0.156272
     7  H    0.148922
     8  H    0.147569
     9  H    0.157802
    10  H    0.163391
    11  C   -0.296957
    12  C   -0.305658
    13  C   -0.475748
    14  H    0.151544
    15  H    0.149095
    16  H    0.149948
    17  H    0.156205
    18  H    0.157319
    19  H    0.155226
    20  H    0.161864
    21  C   -0.168920
    22  C   -0.219876
    23  C   -0.170630
    24  C    0.159004
    25  C   -0.170984
    26  C   -0.219343
    27  H    0.227889
    28  H    0.224990
    29  H    0.276345
    30  H    0.276146
    31  H    0.224232
    32  N    0.488085
    33  O   -0.460131
    34  O   -0.459961
 Sum of Mulliken charges =  -0.00000

 Dipole moment (field-independent basis, Debye):
    X=              4.5324    Y=             -2.0028    Z=              1.4440  Tot=              5.1613
 Quadrupole moment (field-independent basis, Debye-Ang):
   XX=           -118.5374   YY=            -93.6259   ZZ=            -90.2971
   XY=              4.0058   XZ=             -4.8735   YZ=              1.1783

 Normal termination of Gaussian 16 at Wed May  5 23:18:36 2021.
