 Gaussian 16, Revision A.03,
 Gaussian 16:  EM64L-G16RevA.03 25-Dec-2016

 -------------
 #p 6-31g* mp2
 -------------

 ------------------------------------------------------
 Input file generated by CHIRIPA (05-May-2021 14:57:23)
 ------------------------------------------------------
 Symbolic Z-matrix:
 Charge =  0 Multiplicity = 1

                         Standard orientation:
 ---------------------------------------------------------------------
 Center     Atomic      Atomic             Coordinates (Angstroms)
 Number     Number       Type             X           Y           Z
 ---------------------------------------------------------------------
      1          6           0        1.807798    2.621758    0.509493
      2          6           0        3.197797    2.477869    0.570491
      3          6           0        3.797301    1.247056    0.287221
      4          6           0        2.972890    0.176352   -0.055168
      5          6           0        1.585092    0.288140   -0.124512
      6          6           0        1.007293    1.528362    0.162797
      7          1           0        1.350519    3.581537    0.731112
      8          1           0        3.821962    3.325287    0.839458
      9          1           0        4.870825    1.107803    0.326881
     10          1           0        0.989058   -0.574808   -0.395588
     11          1           0       -0.072467    1.637187    0.114633
     12          7           0        3.596069   -1.131635   -0.357192
     13          8           0        2.847672   -2.059561   -0.656342
     14          8           0        4.821115   -1.204142   -0.289048
     15          6           0       -1.501680   -2.375455    0.752872
     16          6           0       -1.437007   -1.940858   -0.575082
     17          6           0       -2.190872   -0.842960   -1.000354
     18          6           0       -3.002485   -0.200164   -0.066872
     19          6           0       -3.088373   -0.609244    1.263002
     20          6           0       -2.325704   -1.709435    1.666067
     21          1           0       -0.912639   -3.229220    1.074608
     22          1           0       -0.797927   -2.456175   -1.286468
     23          1           0       -2.159736   -0.485403   -2.022412
     24          1           0       -3.734585   -0.075301    1.949103
     25          1           0       -2.377913   -2.044737    2.698002
     26          7           0       -3.805228    0.963345   -0.505334
     27          8           0       -4.512540    1.512555    0.336520
     28          8           0       -3.711907    1.304064   -1.682550
 ---------------------------------------------------------------------

 SCF Done:  E(RHF) =  -868.339191091     A.U. after   16 cycles
 E2 =    -0.2601709406D+01 EUMP2 =    -0.87094090049665D+03

 The electronic state is 1-A.
 Alpha  occ. eigenvalues --  -20.61453 -20.61448 -20.61199 -20.61151 -15.86508
 Alpha  occ. eigenvalues --  -15.86218 -11.31889 -11.31327 -11.28436 -11.28417
 Alpha  occ. eigenvalues --  -11.28023 -11.27886 -11.27785 -11.27552 -11.27340
 Alpha  occ. eigenvalues --  -11.27286 -11.26848 -11.26780  -1.60540  -1.60248
 Alpha  occ. eigenvalues --   -1.40087  -1.39813  -1.20047  -1.19482  -1.09397
 Alpha  occ. eigenvalues --   -1.08921  -1.05427  -1.04836  -0.96228  -0.95797
 Alpha  occ. eigenvalues --   -0.86787  -0.86250  -0.83046  -0.82641  -0.78132
 Alpha  occ. eigenvalues --   -0.77723  -0.72703  -0.72451  -0.71890  -0.71563
 Alpha  occ. eigenvalues --   -0.71017  -0.70594  -0.65640  -0.65344  -0.65130
 Alpha  occ. eigenvalues --   -0.64832  -0.62734  -0.62225  -0.55782  -0.55384
 Alpha  occ. eigenvalues --   -0.53714  -0.53434  -0.53194  -0.52911  -0.49470
 Alpha  occ. eigenvalues --   -0.49468  -0.49217  -0.49166  -0.45485  -0.45274
 Alpha  occ. eigenvalues --   -0.37977  -0.37452  -0.37037  -0.36432
 Alpha virt. eigenvalues --    0.04337   0.04817   0.10496   0.11201   0.15843
 Alpha virt. eigenvalues --    0.16353   0.20787   0.21588   0.26404   0.27137
 Alpha virt. eigenvalues --    0.27969   0.28695   0.30171   0.31259   0.31845

 Mulliken charges:
               1
     1  C   -0.170348
     2  C   -0.219258
     3  C   -0.170375
     4  C    0.157418
     5  C   -0.177697
     6  C   -0.223837
     7  H    0.228959
     8  H    0.224150
     9  H    0.275126
    10  H    0.279392
    11  H    0.226613
    12  N    0.488210
    13  O   -0.469441
    14  O   -0.458019
    15  C   -0.168799
    16  C   -0.236560
    17  C   -0.177059
    18  C    0.154220
    19  C   -0.172133
    20  C   -0.218203
    21  H    0.236945
    22  H    0.239428
    23  H    0.278823
    24  H    0.277140
    25  H    0.227254
    26  N    0.486483
    27  O   -0.459177
    28  O   -0.459256
 Sum of Mulliken charges =  -0.00000

 Dipole moment (field-independent basis, Debye):
    X=              0.4752    Y=              0.3939    Z=              2.7056  Tot=              2.7751
 Quadrupole moment (field-independent basis, Debye-Ang):
   XX=           -130.8416   YY=           -101.0945   ZZ=           -101.4176
   XY=             27.5870   XZ=             -2.6754   YZ=              0.6827

 Normal termination of Gaussian 16 at Thu May  6 01:51:05 2021.
