 Gaussian 16, Revision A.03,
 Gaussian 16:  EM64L-G16RevA.03 25-Dec-2016

 -------------
 #p 6-31g* mp2
 -------------

 ------------------------------------------------------
 Input file generated by CHIRIPA (05-May-2021 14:57:23)
 ------------------------------------------------------
 Symbolic Z-matrix:
 Charge =  0 Multiplicity = 1

                         Standard orientation:
 ---------------------------------------------------------------------
 Center     Atomic      Atomic             Coordinates (Angstroms)
 Number     Number       Type             X           Y           Z
 ---------------------------------------------------------------------
      1          6           0        6.115873    0.567679   -1.016201
      2          6           0        4.932870    1.298021   -1.169901
      3          6           0        3.754508    0.880904   -0.543781
      4          6           0        3.795283   -0.276416    0.232259
      5          6           0        4.958193   -1.025568    0.404599
      6          6           0        6.124743   -0.589744   -0.230826
      7          1           0        7.026665    0.898972   -1.506200
      8          1           0        4.923027    2.197275   -1.779237
      9          1           0        2.824773    1.427344   -0.645825
     10          1           0        4.936880   -1.917945    1.018299
     11          1           0        7.042023   -1.158926   -0.109685
     12          7           0        2.554056   -0.727902    0.900030
     13          8           0        2.616255   -1.750916    1.578417
     14          8           0        1.542486   -0.050212    0.732397
     15          6           0       -2.337601    2.003711    0.475044
     16          6           0       -3.615371    2.013705    1.044011
     17          6           0       -4.544492    1.020459    0.720366
     18          6           0       -4.160552    0.027824   -0.179942
     19          6           0       -2.895113   -0.009359   -0.763528
     20          6           0       -1.982177    0.993991   -0.425323
     21          1           0       -1.622124    2.779213    0.732114
     22          1           0       -3.894157    2.796630    1.743548
     23          1           0       -5.540436    1.004173    1.146098
     24          1           0       -2.646269   -0.802851   -1.457693
     25          1           0       -0.990550    0.983711   -0.868736
     26          7           0       -5.135604   -1.029030   -0.530278
     27          8           0       -4.772815   -1.892539   -1.326126
     28          8           0       -6.244174   -0.973871   -0.002390
 ---------------------------------------------------------------------

 SCF Done:  E(RHF) =  -868.338693141     A.U. after   16 cycles
 E2 =    -0.2598710917D+01 EUMP2 =    -0.87093740405821D+03

 The electronic state is 1-A.
 Alpha  occ. eigenvalues --  -20.61548 -20.61480 -20.60047 -20.60039 -15.86564
 Alpha  occ. eigenvalues --  -15.85093 -11.31819 -11.30315 -11.28426 -11.28331
 Alpha  occ. eigenvalues --  -11.28065 -11.27373 -11.27321 -11.26888 -11.26808
 Alpha  occ. eigenvalues --  -11.26563 -11.25906 -11.25751  -1.60579  -1.59123
 Alpha  occ. eigenvalues --   -1.40142  -1.38681  -1.19974  -1.18459  -1.09381
 Alpha  occ. eigenvalues --   -1.07882  -1.05364  -1.03836  -0.96240  -0.94748
 Alpha  occ. eigenvalues --   -0.86765  -0.85244  -0.83082  -0.81583  -0.78152
 Alpha  occ. eigenvalues --   -0.76649  -0.72790  -0.71894  -0.71318  -0.71080
 Alpha  occ. eigenvalues --   -0.70440  -0.69587  -0.65631  -0.65361  -0.64116
 Alpha  occ. eigenvalues --   -0.63830  -0.62721  -0.61191  -0.55851  -0.54359
 Alpha  occ. eigenvalues --   -0.53691  -0.53454  -0.52168  -0.51929  -0.49550
 Alpha  occ. eigenvalues --   -0.49509  -0.48079  -0.48061  -0.45570  -0.44119
 Alpha  occ. eigenvalues --   -0.37934  -0.36961  -0.36423  -0.35414
 Alpha virt. eigenvalues --    0.04377   0.05873   0.10696   0.12231   0.15893
 Alpha virt. eigenvalues --    0.17415   0.20644   0.22244   0.26334   0.27212
 Alpha virt. eigenvalues --    0.28590   0.29123   0.30364   0.31366   0.32538

 Mulliken charges:
               1
     1  C   -0.170254
     2  C   -0.217984
     3  C   -0.170632
     4  C    0.158922
     5  C   -0.170342
     6  C   -0.218148
     7  H    0.227717
     8  H    0.224069
     9  H    0.268658
    10  H    0.277526
    11  H    0.225858
    12  N    0.490777
    13  O   -0.454310
    14  O   -0.470662
    15  C   -0.169379
    16  C   -0.218618
    17  C   -0.172371
    18  C    0.158288
    19  C   -0.171343
    20  C   -0.209530
    21  H    0.222948
    22  H    0.219960
    23  H    0.272648
    24  H    0.273954
    25  H    0.228762
    26  N    0.488259
    27  O   -0.461750
    28  O   -0.463023
 Sum of Mulliken charges =  -0.00000

 Dipole moment (field-independent basis, Debye):
    X=              8.2770    Y=              5.2220    Z=             -1.0946  Tot=              9.8477
 Quadrupole moment (field-independent basis, Debye-Ang):
   XX=            -97.4958   YY=           -102.5312   ZZ=           -104.9893
   XY=            -14.5469   XZ=            -15.1328   YZ=             -0.0714

 Normal termination of Gaussian 16 at Thu May  6 16:17:07 2021.
