 Gaussian 16, Revision A.03,
 Gaussian 16:  EM64L-G16RevA.03 25-Dec-2016

 -------------
 #p 6-31g* mp2
 -------------

 ------------------------------------------------------
 Input file generated by CHIRIPA (05-May-2021 14:53:13)
 ------------------------------------------------------
 Symbolic Z-matrix:
 Charge =  0 Multiplicity = 1

                         Standard orientation:
 ---------------------------------------------------------------------
 Center     Atomic      Atomic             Coordinates (Angstroms)
 Number     Number       Type             X           Y           Z
 ---------------------------------------------------------------------
      1          6           0       -4.158844    0.560194   -0.079424
      2          6           0       -3.585124    1.519587    0.963839
      3          6           0       -2.217269    2.075552    0.566761
      4          1           0       -3.454661   -0.269109   -0.232154
      5          1           0       -4.239961    1.082775   -1.042608
      6          1           0       -3.506408    0.995762    1.925102
      7          1           0       -4.290843    2.346602    1.114243
      8          1           0       -2.283509    2.622120   -0.379535
      9          1           0       -1.494616    1.263605    0.435931
     10          1           0       -1.825732    2.759040    1.326631
     11          6           0       -5.525954   -0.003961    0.303289
     12          6           0       -6.099674   -0.963354   -0.739974
     13          6           0       -7.467529   -1.519319   -0.342896
     14          1           0       -5.444837   -0.526541    1.266473
     15          1           0       -6.230138    0.825342    0.456019
     16          1           0       -5.393955   -1.790369   -0.890378
     17          1           0       -6.178391   -0.439529   -1.701237
     18          1           0       -8.190182   -0.707372   -0.212066
     19          1           0       -7.401289   -2.065887    0.603400
     20          1           0       -7.859066   -2.202807   -1.102766
     21          6           0        1.265323   -0.263218   -0.243942
     22          6           0        1.938262   -1.237265    0.500979
     23          6           0        3.333084   -1.221589    0.594641
     24          6           0        4.026536   -0.212838   -0.072318
     25          6           0        3.384786    0.771553   -0.822267
     26          6           0        1.989457    0.736320   -0.902027
     27          1           0        0.181595   -0.282991   -0.311302
     28          1           0        1.378482   -2.014711    1.013100
     29          1           0        3.879388   -1.963379    1.164481
     30          1           0        3.970110    1.533990   -1.321769
     31          1           0        1.469500    1.494066   -1.481261
     32          7           0        5.503441   -0.185890    0.019479
     33          8           0        6.091318    0.713425   -0.577404
     34          8           0        6.045196   -1.064595    0.686576
 ---------------------------------------------------------------------

 SCF Done:  E(RHF) =  -669.535439601     A.U. after   15 cycles
 E2 =    -0.2090926786D+01 EUMP2 =    -0.67162636638677D+03

 The electronic state is 1-A.
 Alpha  occ. eigenvalues --  -20.60740 -20.60735 -15.85793 -11.31159 -11.27726
 Alpha  occ. eigenvalues --  -11.27717 -11.27452 -11.26745 -11.26727 -11.22488
 Alpha  occ. eigenvalues --  -11.22261 -11.22209 -11.22169 -11.22061 -11.21573
 Alpha  occ. eigenvalues --   -1.59815  -1.39369  -1.19329  -1.09210  -1.08724
 Alpha  occ. eigenvalues --   -1.04730  -1.04303  -0.96768  -0.95561  -0.87785
 Alpha  occ. eigenvalues --   -0.86127  -0.82395  -0.80372  -0.79008  -0.77438
 Alpha  occ. eigenvalues --   -0.72011  -0.71138  -0.70464  -0.65842  -0.64981
 Alpha  occ. eigenvalues --   -0.64734  -0.62078  -0.61706  -0.60132  -0.58372
 Alpha  occ. eigenvalues --   -0.56147  -0.55200  -0.53440  -0.53196  -0.53036
 Alpha  occ. eigenvalues --   -0.52821  -0.50704  -0.48775  -0.48766  -0.48677
 Alpha  occ. eigenvalues --   -0.47400  -0.46555  -0.46461  -0.44774  -0.44547
 Alpha  occ. eigenvalues --   -0.37300  -0.36334
 Alpha virt. eigenvalues --    0.05072   0.11313   0.16488   0.19693   0.22394
 Alpha virt. eigenvalues --    0.23698   0.25219   0.26317   0.26909   0.27522
 Alpha virt. eigenvalues --    0.28895   0.30171   0.31068   0.31358   0.32227

 Mulliken charges:
               1
     1  C   -0.297758
     2  C   -0.300092
     3  C   -0.478996
     4  H    0.142995
     5  H    0.150837
     6  H    0.153604
     7  H    0.156133
     8  H    0.156062
     9  H    0.145546
    10  H    0.166289
    11  C   -0.298743
    12  C   -0.299993
    13  C   -0.476107
    14  H    0.150343
    15  H    0.151961
    16  H    0.150978
    17  H    0.152736
    18  H    0.156376
    19  H    0.155763
    20  H    0.161782
    21  C   -0.173029
    22  C   -0.219299
    23  C   -0.170962
    24  C    0.158611
    25  C   -0.171099
    26  C   -0.219517
    27  H    0.229879
    28  H    0.223193
    29  H    0.275435
    30  H    0.275561
    31  H    0.224436
    32  N    0.488047
    33  O   -0.460451
    34  O   -0.460522
 Sum of Mulliken charges =  -0.00000

 Dipole moment (field-independent basis, Debye):
    X=             -5.4069    Y=             -0.0330    Z=             -0.2938  Tot=              5.4150
 Quadrupole moment (field-independent basis, Debye-Ang):
   XX=           -137.2027   YY=            -91.0850   ZZ=            -93.3697
   XY=             -0.1554   XZ=             -0.7614   YZ=             -2.9410

 Normal termination of Gaussian 16 at Thu May  6 20:18:52 2021.
