 Gaussian 16, Revision A.03,
 Gaussian 16:  EM64L-G16RevA.03 25-Dec-2016

 -------------
 #p 6-31g* mp2
 -------------

 ------------------------------------------------------
 Input file generated by CHIRIPA (05-May-2021 14:53:17)
 ------------------------------------------------------
 Symbolic Z-matrix:
 Charge =  0 Multiplicity = 1

                         Standard orientation:
 ---------------------------------------------------------------------
 Center     Atomic      Atomic             Coordinates (Angstroms)
 Number     Number       Type             X           Y           Z
 ---------------------------------------------------------------------
      1          6           0       -4.543272    0.006195   -0.358420
      2          6           0       -5.577973   -0.095537    0.762753
      3          6           0       -7.013992    0.042600    0.256231
      4          1           0       -4.661482    0.970451   -0.871433
      5          1           0       -4.745717   -0.772754   -1.106518
      6          1           0       -5.372800    0.682492    1.509204
      7          1           0       -5.457161   -1.059582    1.273280
      8          1           0       -7.242541   -0.741737   -0.472592
      9          1           0       -7.157701    1.010236   -0.235326
     10          1           0       -7.737243   -0.033149    1.074173
     11          6           0       -3.102979   -0.129999    0.132228
     12          6           0       -2.068278   -0.028267   -0.988945
     13          6           0       -0.632260   -0.166403   -0.482424
     14          1           0       -2.900535    0.648950    0.880326
     15          1           0       -2.984769   -1.094254    0.645241
     16          1           0       -2.189091    0.935778   -1.499472
     17          1           0       -2.273451   -0.806296   -1.735397
     18          1           0       -0.488550   -1.134039    0.009134
     19          1           0       -0.403710    0.617933    0.246399
     20          1           0        0.090992   -0.090655   -1.300366
     21          6           0        2.805219    2.564867    0.076523
     22          6           0        2.928000    1.877599    1.288591
     23          6           0        3.029338    0.483348    1.307125
     24          6           0        3.004373   -0.194926    0.089500
     25          6           0        2.883106    0.461315   -1.134400
     26          6           0        2.783202    1.855782   -1.128978
     27          1           0        2.727054    3.648038    0.071430
     28          1           0        2.945378    2.425675    2.226330
     29          1           0        3.125328   -0.073861    2.231096
     30          1           0        2.868736   -0.112522   -2.053052
     31          1           0        2.687947    2.386887   -2.071792
     32          7           0        3.110896   -1.671071    0.096441
     33          8           0        3.086410   -2.245424   -0.989908
     34          8           0        3.216858   -2.225769    1.188100
 ---------------------------------------------------------------------

 SCF Done:  E(RHF) =  -669.534566203     A.U. after   15 cycles
 E2 =    -0.2093045567D+01 EUMP2 =    -0.67162761177043D+03

 The electronic state is 1-A.
 Alpha  occ. eigenvalues --  -20.60741 -20.60733 -15.85791 -11.31132 -11.27746
 Alpha  occ. eigenvalues --  -11.27719 -11.27501 -11.26765 -11.26742 -11.21593
 Alpha  occ. eigenvalues --  -11.21554 -11.21383 -11.21320 -11.21071 -11.20934
 Alpha  occ. eigenvalues --   -1.59813  -1.39368  -1.19343  -1.08735  -1.08403
 Alpha  occ. eigenvalues --   -1.04760  -1.03496  -0.95953  -0.95568  -0.86976
 Alpha  occ. eigenvalues --   -0.86150  -0.82407  -0.79574  -0.78221  -0.77450
 Alpha  occ. eigenvalues --   -0.72015  -0.71131  -0.70468  -0.65034  -0.65000
 Alpha  occ. eigenvalues --   -0.64763  -0.62110  -0.60893  -0.59357  -0.57569
 Alpha  occ. eigenvalues --   -0.55269  -0.55241  -0.53489  -0.52854  -0.52389
 Alpha  occ. eigenvalues --   -0.52201  -0.49860  -0.48773  -0.48768  -0.47888
 Alpha  occ. eigenvalues --   -0.46591  -0.45759  -0.45686  -0.44780  -0.43763
 Alpha  occ. eigenvalues --   -0.37288  -0.36282
 Alpha virt. eigenvalues --    0.05067   0.11264   0.16546   0.21356   0.22896
 Alpha virt. eigenvalues --    0.24316   0.26666   0.27077   0.27489   0.27850
 Alpha virt. eigenvalues --    0.28449   0.30859   0.31390   0.31614   0.31871

 Mulliken charges:
               1
     1  C   -0.298171
     2  C   -0.299604
     3  C   -0.475663
     4  H    0.148027
     5  H    0.150517
     6  H    0.150813
     7  H    0.153128
     8  H    0.155758
     9  H    0.154343
    10  H    0.160234
    11  C   -0.298524
    12  C   -0.300129
    13  C   -0.478392
    14  H    0.147212
    15  H    0.152304
    16  H    0.147967
    17  H    0.153849
    18  H    0.159450
    19  H    0.153651
    20  H    0.159087
    21  C   -0.170930
    22  C   -0.218938
    23  C   -0.171397
    24  C    0.166926
    25  C   -0.173966
    26  C   -0.216205
    27  H    0.225415
    28  H    0.223286
    29  H    0.275617
    30  H    0.275209
    31  H    0.223172
    32  N    0.487957
    33  O   -0.460977
    34  O   -0.461025
 Sum of Mulliken charges =  -0.00000

 Dipole moment (field-independent basis, Debye):
    X=             -0.3236    Y=              5.1665    Z=             -0.0097  Tot=              5.1766
 Quadrupole moment (field-independent basis, Debye-Ang):
   XX=            -99.2072   YY=            -96.4115   ZZ=            -89.8513
   XY=             16.1737   XZ=              0.0060   YZ=              0.7008

 Normal termination of Gaussian 16 at Thu May  6 15:36:56 2021.
