 Gaussian 16, Revision A.03,
 Gaussian 16:  EM64L-G16RevA.03 25-Dec-2016

 -------------
 #p 6-31g* mp2
 -------------

 ------------------------------------------------------
 Input file generated by CHIRIPA (05-May-2021 14:53:16)
 ------------------------------------------------------
 Symbolic Z-matrix:
 Charge =  0 Multiplicity = 1

                         Standard orientation:
 ---------------------------------------------------------------------
 Center     Atomic      Atomic             Coordinates (Angstroms)
 Number     Number       Type             X           Y           Z
 ---------------------------------------------------------------------
      1          6           0       -4.978227   -0.248274    0.175688
      2          6           0       -5.179459   -1.527037   -0.638103
      3          6           0       -6.566787   -2.139546   -0.443298
      4          1           0       -5.136644   -0.469810    1.240005
      5          1           0       -5.746564    0.483883   -0.108916
      6          1           0       -4.410124   -2.256064   -0.353042
      7          1           0       -5.020357   -1.302472   -1.700587
      8          1           0       -7.345992   -1.432588   -0.746037
      9          1           0       -6.732292   -2.391598    0.609165
     10          1           0       -6.689049   -3.052694   -1.034122
     11          6           0       -3.596107    0.375853   -0.008537
     12          6           0       -3.394874    1.654616    0.805254
     13          6           0       -2.007547    2.267125    0.610449
     14          1           0       -2.827770   -0.356305    0.276067
     15          1           0       -3.437690    0.597389   -1.072854
     16          1           0       -3.553977    1.430051    1.867738
     17          1           0       -4.164209    2.383643    0.520193
     18          1           0       -1.842041    2.519177   -0.442014
     19          1           0       -1.228342    1.560167    0.913188
     20          1           0       -1.885284    3.180272    1.201273
     21          6           0        4.809909   -2.020087    0.526987
     22          6           0        4.897152   -1.440835   -0.743201
     23          6           0        4.092758   -0.348825   -1.082333
     24          6           0        3.208148    0.140642   -0.122553
     25          6           0        3.098079   -0.414727    1.151316
     26          6           0        3.912234   -1.506090    1.468531
     27          1           0        5.438573   -2.868135    0.781919
     28          1           0        5.593396   -1.837918   -1.476424
     29          1           0        4.139875    0.118809   -2.058302
     30          1           0        2.394511    0.003171    1.861085
     31          1           0        3.842339   -1.953933    2.455748
     32          7           0        2.351405    1.296361   -0.469975
     33          8           0        1.580098    1.708952    0.393443
     34          8           0        2.467419    1.767741   -1.599125
 ---------------------------------------------------------------------

 SCF Done:  E(RHF) =  -669.535693153     A.U. after   15 cycles
 E2 =    -0.2090828143D+01 EUMP2 =    -0.67162652129633D+03

 The electronic state is 1-A.
 Alpha  occ. eigenvalues --  -20.60866 -20.60857 -15.85899 -11.31257 -11.27828
 Alpha  occ. eigenvalues --  -11.27821 -11.27567 -11.26841 -11.26831 -11.21196
 Alpha  occ. eigenvalues --  -11.20844 -11.20755 -11.20663 -11.20596 -11.19555
 Alpha  occ. eigenvalues --   -1.59926  -1.39482  -1.19429  -1.08826  -1.07765
 Alpha  occ. eigenvalues --   -1.04832  -1.02770  -0.95666  -0.95180  -0.86234
 Alpha  occ. eigenvalues --   -0.86182  -0.82496  -0.78856  -0.77575  -0.77512
 Alpha  occ. eigenvalues --   -0.72120  -0.71244  -0.70539  -0.65085  -0.64835
 Alpha  occ. eigenvalues --   -0.64408  -0.62179  -0.60174  -0.58630  -0.56794
 Alpha  occ. eigenvalues --   -0.55334  -0.54468  -0.53161  -0.52924  -0.51864
 Alpha  occ. eigenvalues --   -0.51594  -0.49143  -0.48879  -0.48857  -0.47143
 Alpha  occ. eigenvalues --   -0.45928  -0.45140  -0.45027  -0.44735  -0.43034
 Alpha  occ. eigenvalues --   -0.37409  -0.36435
 Alpha virt. eigenvalues --    0.04965   0.11219   0.16437   0.21329   0.23466
 Alpha virt. eigenvalues --    0.25092   0.27182   0.27323   0.27990   0.28187
 Alpha virt. eigenvalues --    0.28991   0.30846   0.32032   0.32338   0.32606

 Mulliken charges:
               1
     1  C   -0.297448
     2  C   -0.298924
     3  C   -0.475244
     4  H    0.147601
     5  H    0.148956
     6  H    0.149950
     7  H    0.151982
     8  H    0.155067
     9  H    0.154064
    10  H    0.158534
    11  C   -0.296783
    12  C   -0.301351
    13  C   -0.473220
    14  H    0.146656
    15  H    0.150429
    16  H    0.146642
    17  H    0.148272
    18  H    0.158332
    19  H    0.166136
    20  H    0.157213
    21  C   -0.170731
    22  C   -0.218518
    23  C   -0.170796
    24  C    0.158165
    25  C   -0.170961
    26  C   -0.218494
    27  H    0.225845
    28  H    0.223704
    29  H    0.275825
    30  H    0.275307
    31  H    0.223636
    32  N    0.490102
    33  O   -0.460445
    34  O   -0.459503
 Sum of Mulliken charges =  -0.00000

 Dipole moment (field-independent basis, Debye):
    X=              3.2968    Y=             -4.0113    Z=              1.1861  Tot=              5.3260
 Quadrupole moment (field-independent basis, Debye-Ang):
   XX=            -77.0223   YY=            -96.6928   ZZ=            -90.4514
   XY=            -13.7016   XZ=              1.9031   YZ=             -0.0500

 Normal termination of Gaussian 16 at Thu May  6 10:38:51 2021.
