 Gaussian 16, Revision A.03,
 Gaussian 16:  EM64L-G16RevA.03 25-Dec-2016

 -------------
 #p 6-31g* mp2
 -------------

 ------------------------------------------------------
 Input file generated by CHIRIPA (05-May-2021 14:55:20)
 ------------------------------------------------------
 Symbolic Z-matrix:
 Charge =  0 Multiplicity = 1

                         Standard orientation:
 ---------------------------------------------------------------------
 Center     Atomic      Atomic             Coordinates (Angstroms)
 Number     Number       Type             X           Y           Z
 ---------------------------------------------------------------------
      1          6           0       -1.392887   -0.559057    2.360127
      2          6           0       -1.287724    0.655643    1.674587
      3          6           0       -1.953062    0.845195    0.459703
      4          6           0       -2.718401   -0.205957   -0.042917
      5          6           0       -2.842780   -1.427852    0.616471
      6          6           0       -2.168712   -1.595101    1.829816
      7          1           0       -0.872645   -0.697643    3.303281
      8          1           0       -0.685914    1.461998    2.084052
      9          1           0       -1.888944    1.775286   -0.091874
     10          1           0       -3.450133   -2.213232    0.183207
     11          1           0       -2.252196   -2.539531    2.360030
     12          7           0       -3.427386   -0.017092   -1.328246
     13          8           0       -4.095369   -0.958721   -1.749874
     14          8           0       -3.301680    1.068993   -1.889721
     15          6           0        3.966101   -0.076828   -0.401058
     16          6           0        3.787420   -1.595394   -0.397363
     17          6           0        5.068723   -2.342294   -0.769111
     18          1           0        4.303569    0.243859   -1.396156
     19          1           0        4.766071    0.192961    0.302262
     20          1           0        2.987084   -1.862124   -1.099455
     21          1           0        3.450154   -1.912481    0.597788
     22          1           0        5.871400   -2.105196   -0.063351
     23          1           0        5.405698   -2.054553   -1.770237
     24          1           0        4.918433   -3.426358   -0.760270
     25          6           0        2.693871    0.683762   -0.031380
     26          6           0        2.872552    2.202328   -0.035075
     27          6           0        1.591249    2.949229    0.336673
     28          1           0        1.893902    0.413974   -0.734699
     29          1           0        2.356404    0.363076    0.963719
     30          1           0        3.209817    2.519415   -1.030225
     31          1           0        3.672889    2.469059    0.667017
     32          1           0        1.254274    2.661488    1.337800
     33          1           0        0.788572    2.712131   -0.369086
     34          1           0        1.741540    4.033293    0.327832
 ---------------------------------------------------------------------

 SCF Done:  E(RHF) =  -669.535277059     A.U. after   15 cycles
 E2 =    -0.2092106527D+01 EUMP2 =    -0.67162738358617D+03

 The electronic state is 1-A.
 Alpha  occ. eigenvalues --  -20.60746 -20.60740 -15.85797 -11.31145 -11.27708
 Alpha  occ. eigenvalues --  -11.27691 -11.27444 -11.26730 -11.26680 -11.22157
 Alpha  occ. eigenvalues --  -11.21910 -11.21902 -11.21832 -11.21719 -11.21322
 Alpha  occ. eigenvalues --   -1.59821  -1.39375  -1.19311  -1.08863  -1.08711
 Alpha  occ. eigenvalues --   -1.04712  -1.03996  -0.96467  -0.95551  -0.87493
 Alpha  occ. eigenvalues --   -0.86112  -0.82385  -0.80072  -0.78656  -0.77423
 Alpha  occ. eigenvalues --   -0.72016  -0.71144  -0.70426  -0.65507  -0.64964
 Alpha  occ. eigenvalues --   -0.64725  -0.62097  -0.61389  -0.59817  -0.58055
 Alpha  occ. eigenvalues --   -0.55780  -0.55221  -0.53159  -0.53068  -0.52979
 Alpha  occ. eigenvalues --   -0.52694  -0.50400  -0.48778  -0.48772  -0.48366
 Alpha  occ. eigenvalues --   -0.47081  -0.46203  -0.46103  -0.44784  -0.44229
 Alpha  occ. eigenvalues --   -0.37291  -0.36282
 Alpha virt. eigenvalues --    0.05079   0.11270   0.16531   0.20210   0.22674
 Alpha virt. eigenvalues --    0.23952   0.25268   0.25704   0.27207   0.27754
 Alpha virt. eigenvalues --    0.29110   0.29626   0.31433   0.31496   0.32359

 Mulliken charges:
               1
     1  C   -0.172254
     2  C   -0.217709
     3  C   -0.174526
     4  C    0.158679
     5  C   -0.171230
     6  C   -0.218190
     7  H    0.225148
     8  H    0.228459
     9  H    0.276536
    10  H    0.275310
    11  H    0.223141
    12  N    0.488089
    13  O   -0.460568
    14  O   -0.460762
    15  C   -0.298924
    16  C   -0.299620
    17  C   -0.475952
    18  H    0.151996
    19  H    0.149042
    20  H    0.154432
    21  H    0.149251
    22  H    0.154818
    23  H    0.156775
    24  H    0.160791
    25  C   -0.298394
    26  C   -0.299633
    27  C   -0.479807
    28  H    0.153961
    29  H    0.144385
    30  H    0.156543
    31  H    0.152660
    32  H    0.145139
    33  H    0.157494
    34  H    0.164920
 Sum of Mulliken charges =  -0.00000

 Dipole moment (field-independent basis, Debye):
    X=              2.6142    Y=             -0.6616    Z=              4.4369  Tot=              5.1921
 Quadrupole moment (field-independent basis, Debye-Ang):
   XX=           -108.8685   YY=            -90.6335   ZZ=            -94.9360
   XY=              3.9282   XZ=            -12.4099   YZ=             -1.6112

 Normal termination of Gaussian 16 at Thu May  6 04:31:27 2021.
