 Gaussian 16, Revision A.03,
 Gaussian 16:  EM64L-G16RevA.03 25-Dec-2016

 -------------
 #p 6-31g* mp2
 -------------

 ------------------------------------------------------
 Input file generated by CHIRIPA (05-May-2021 14:55:24)
 ------------------------------------------------------
 Symbolic Z-matrix:
 Charge =  0 Multiplicity = 1

                         Standard orientation:
 ---------------------------------------------------------------------
 Center     Atomic      Atomic             Coordinates (Angstroms)
 Number     Number       Type             X           Y           Z
 ---------------------------------------------------------------------
      1          6           0       -3.726550   -0.769607   -1.718060
      2          6           0       -2.793042   -1.740697   -1.341142
      3          6           0       -1.980399   -1.547093   -0.220126
      4          6           0       -2.128500   -0.365362    0.504352
      5          6           0       -3.049349    0.620893    0.154169
      6          6           0       -3.851504    0.406016   -0.970519
      7          1           0       -4.353757   -0.928266   -2.590318
      8          1           0       -2.693818   -2.654667   -1.919813
      9          1           0       -1.249565   -2.282348    0.094039
     10          1           0       -3.125254    1.521820    0.750816
     11          1           0       -4.575625    1.161911   -1.260894
     12          7           0       -1.273743   -0.149142    1.693065
     13          8           0       -1.423645    0.900544    2.314616
     14          8           0       -0.470068   -1.033448    1.980719
     15          6           0        2.691216    1.208481   -0.628264
     16          6           0        1.246953    1.553486   -0.263486
     17          6           0        0.834428    2.947457   -0.737262
     18          1           0        3.362724    1.959733   -0.190494
     19          1           0        2.813252    1.277379   -1.718106
     20          1           0        1.127325    1.482611    0.825221
     21          1           0        0.578820    0.801218   -0.702014
     22          1           0        0.925429    3.027116   -1.825367
     23          1           0        1.477050    3.712379   -0.289455
     24          1           0       -0.201537    3.173418   -0.466010
     25          6           0        3.118384   -0.181926   -0.161337
     26          6           0        4.562646   -0.526932   -0.526114
     27          6           0        4.975172   -1.920902   -0.052339
     28          1           0        2.996348   -0.250825    0.928505
     29          1           0        2.446875   -0.933178   -0.599106
     30          1           0        5.230779    0.225336   -0.087585
     31          1           0        4.682274   -0.456056   -1.614821
     32          1           0        4.332549   -2.685824   -0.500145
     33          1           0        4.884171   -2.000560    1.035768
     34          1           0        6.011138   -2.146864   -0.323589
 ---------------------------------------------------------------------

 SCF Done:  E(RHF) =  -669.536073141     A.U. after   15 cycles
 E2 =    -0.2093317416D+01 EUMP2 =    -0.67162939055715D+03

 The electronic state is 1-A.
 Alpha  occ. eigenvalues --  -20.60863 -20.60856 -15.85873 -11.31246 -11.27807
 Alpha  occ. eigenvalues --  -11.27804 -11.27547 -11.26830 -11.26819 -11.21107
 Alpha  occ. eigenvalues --  -11.20987 -11.20838 -11.20705 -11.20643 -11.20620
 Alpha  occ. eigenvalues --   -1.59912  -1.39468  -1.19417  -1.08811  -1.07867
 Alpha  occ. eigenvalues --   -1.04817  -1.03023  -0.95648  -0.95474  -0.86497
 Alpha  occ. eigenvalues --   -0.86214  -0.82484  -0.79111  -0.77696  -0.77524
 Alpha  occ. eigenvalues --   -0.72110  -0.71199  -0.70520  -0.65070  -0.64820
 Alpha  occ. eigenvalues --   -0.64498  -0.62164  -0.60424  -0.58843  -0.57084
 Alpha  occ. eigenvalues --   -0.55317  -0.54765  -0.53147  -0.52909  -0.52190
 Alpha  occ. eigenvalues --   -0.51900  -0.49419  -0.48890  -0.48871  -0.47399
 Alpha  occ. eigenvalues --   -0.46121  -0.45275  -0.45087  -0.44808  -0.43259
 Alpha  occ. eigenvalues --   -0.37361  -0.36417
 Alpha virt. eigenvalues --    0.04967   0.11173   0.16451   0.21301   0.23389
 Alpha virt. eigenvalues --    0.24625   0.26860   0.27271   0.27664   0.28422
 Alpha virt. eigenvalues --    0.28475   0.30781   0.31679   0.31836   0.32313

 Mulliken charges:
               1
     1  C   -0.170823
     2  C   -0.218343
     3  C   -0.172594
     4  C    0.160583
     5  C   -0.171864
     6  C   -0.218231
     7  H    0.225826
     8  H    0.223660
     9  H    0.276018
    10  H    0.275764
    11  H    0.223794
    12  N    0.491468
    13  O   -0.460669
    14  O   -0.459400
    15  C   -0.297416
    16  C   -0.312146
    17  C   -0.473134
    18  H    0.149723
    19  H    0.144943
    20  H    0.172126
    21  H    0.144188
    22  H    0.150508
    23  H    0.156444
    24  H    0.156905
    25  C   -0.298275
    26  C   -0.299529
    27  C   -0.475006
    28  H    0.161340
    29  H    0.145182
    30  H    0.151569
    31  H    0.148439
    32  H    0.152655
    33  H    0.158414
    34  H    0.157881
 Sum of Mulliken charges =  -0.00000

 Dipole moment (field-independent basis, Debye):
    X=             -3.0930    Y=             -0.7969    Z=             -3.9879  Tot=              5.1093
 Quadrupole moment (field-independent basis, Debye-Ang):
   XX=            -81.8457   YY=            -91.4393   ZZ=            -98.9616
   XY=              1.1707   XZ=              7.8918   YZ=              2.7997

 Normal termination of Gaussian 16 at Wed May  5 17:38:22 2021.
