 Gaussian 16, Revision A.03,
 Gaussian 16:  EM64L-G16RevA.03 25-Dec-2016

 -------------
 #p 6-31g* mp2
 -------------

 ------------------------------------------------------
 Input file generated by CHIRIPA (05-May-2021 14:55:21)
 ------------------------------------------------------
 Symbolic Z-matrix:
 Charge =  0 Multiplicity = 1

                         Standard orientation:
 ---------------------------------------------------------------------
 Center     Atomic      Atomic             Coordinates (Angstroms)
 Number     Number       Type             X           Y           Z
 ---------------------------------------------------------------------
      1          6           0        5.456547    1.642626    0.517251
      2          6           0        4.172386    2.139980    0.272117
      3          6           0        3.139939    1.280369   -0.114754
      4          6           0        3.428191   -0.077052   -0.247452
      5          6           0        4.697267   -0.602912   -0.010374
      6          6           0        5.714434    0.275178    0.375473
      7          1           0        6.252642    2.317570    0.817384
      8          1           0        3.969211    3.201496    0.381432
      9          1           0        2.136639    1.638639   -0.310841
     10          1           0        4.869286   -1.665958   -0.127685
     11          1           0        6.710772   -0.113880    0.565186
     12          7           0        2.343274   -0.996865   -0.656473
     13          8           0        2.622988   -2.188639   -0.766339
     14          8           0        1.233744   -0.508623   -0.859453
     15          6           0       -5.332776    0.116010    0.392733
     16          6           0       -5.995494    0.921210   -0.725498
     17          6           0       -7.427182    1.336912   -0.386007
     18          1           0       -5.936549   -0.778262    0.599329
     19          1           0       -5.333211    0.713356    1.314997
     20          1           0       -5.992567    0.323060   -1.645728
     21          1           0       -5.389971    1.813570   -0.929588
     22          1           0       -7.444896    1.954998    0.517462
     23          1           0       -8.050916    0.456019   -0.202747
     24          1           0       -7.881919    1.911397   -1.199052
     25          6           0       -3.901140   -0.306844    0.068170
     26          6           0       -3.238422   -1.112044    1.186402
     27          6           0       -1.806734   -1.527746    0.846911
     28          1           0       -3.900705   -0.904190   -0.854094
     29          1           0       -3.297367    0.587428   -0.138426
     30          1           0       -3.843945   -2.004404    1.390492
     31          1           0       -3.241349   -0.513894    2.106632
     32          1           0       -1.183000   -0.646854    0.663651
     33          1           0       -1.789020   -2.145833   -0.056558
     34          1           0       -1.351997   -2.102231    1.659955
 ---------------------------------------------------------------------

 SCF Done:  E(RHF) =  -669.535731185     A.U. after   15 cycles
 E2 =    -0.2090858465D+01 EUMP2 =    -0.67162658964996D+03

 The electronic state is 1-A.
 Alpha  occ. eigenvalues --  -20.60865 -20.60855 -15.85896 -11.31254 -11.27825
 Alpha  occ. eigenvalues --  -11.27817 -11.27564 -11.26838 -11.26827 -11.21077
 Alpha  occ. eigenvalues --  -11.20736 -11.20655 -11.20573 -11.20496 -11.19525
 Alpha  occ. eigenvalues --   -1.59921  -1.39479  -1.19426  -1.08823  -1.07658
 Alpha  occ. eigenvalues --   -1.04828  -1.02684  -0.95662  -0.95100  -0.86228
 Alpha  occ. eigenvalues --   -0.86104  -0.82494  -0.78769  -0.77548  -0.77427
 Alpha  occ. eigenvalues --   -0.72120  -0.71237  -0.70536  -0.65082  -0.64832
 Alpha  occ. eigenvalues --   -0.64302  -0.62176  -0.60089  -0.58543  -0.56710
 Alpha  occ. eigenvalues --   -0.55330  -0.54386  -0.53158  -0.52921  -0.51803
 Alpha  occ. eigenvalues --   -0.51506  -0.49056  -0.48878  -0.48854  -0.47049
 Alpha  occ. eigenvalues --   -0.45844  -0.45071  -0.44915  -0.44686  -0.42954
 Alpha  occ. eigenvalues --   -0.37405  -0.36431
 Alpha virt. eigenvalues --    0.04968   0.11223   0.16440   0.21339   0.23573
 Alpha virt. eigenvalues --    0.25179   0.27235   0.27404   0.28065   0.28284
 Alpha virt. eigenvalues --    0.29038   0.30873   0.32132   0.32423   0.32631

 Mulliken charges:
               1
     1  C   -0.170735
     2  C   -0.218488
     3  C   -0.170793
     4  C    0.158298
     5  C   -0.170814
     6  C   -0.218525
     7  H    0.225824
     8  H    0.223607
     9  H    0.275151
    10  H    0.275831
    11  H    0.223686
    12  N    0.489608
    13  O   -0.459256
    14  O   -0.460098
    15  C   -0.297533
    16  C   -0.298932
    17  C   -0.475215
    18  H    0.148513
    19  H    0.146975
    20  H    0.152242
    21  H    0.150605
    22  H    0.153794
    23  H    0.154708
    24  H    0.158605
    25  C   -0.296732
    26  C   -0.301017
    27  C   -0.474638
    28  H    0.151092
    29  H    0.148880
    30  H    0.147961
    31  H    0.145783
    32  H    0.166807
    33  H    0.161425
    34  H    0.153384
 Sum of Mulliken charges =  -0.00000

 Dipole moment (field-independent basis, Debye):
    X=              4.1132    Y=              3.2101    Z=              1.3404  Tot=              5.3870
 Quadrupole moment (field-independent basis, Debye-Ang):
   XX=            -68.9556   YY=            -91.9571   ZZ=            -96.4560
   XY=              8.9623   XZ=              4.8471   YZ=             -0.5565

 Normal termination of Gaussian 16 at Thu May  6 10:53:12 2021.
