 Gaussian 16, Revision A.03,
 Gaussian 16:  EM64L-G16RevA.03 25-Dec-2016

 -------------
 #p 6-31g* mp2
 -------------

 ------------------------------------------------------
 Input file generated by CHIRIPA (05-May-2021 14:55:25)
 ------------------------------------------------------
 Symbolic Z-matrix:
 Charge =  0 Multiplicity = 1

                         Standard orientation:
 ---------------------------------------------------------------------
 Center     Atomic      Atomic             Coordinates (Angstroms)
 Number     Number       Type             X           Y           Z
 ---------------------------------------------------------------------
      1          6           0       -2.501812   -1.996040    1.200626
      2          6           0       -2.679059   -1.863301   -0.180492
      3          6           0       -2.725973   -0.597360   -0.771880
      4          6           0       -2.591637    0.519459    0.051503
      5          6           0       -2.413865    0.419893    1.430551
      6          6           0       -2.370013   -0.856030    2.000329
      7          1           0       -2.466558   -2.983331    1.651637
      8          1           0       -2.781695   -2.746891   -0.804014
      9          1           0       -2.862154   -0.465757   -1.838441
     10          1           0       -2.314497    1.319218    2.026168
     11          1           0       -2.232253   -0.956094    3.073201
     12          7           0       -2.639681    1.864938   -0.563134
     13          8           0       -2.518845    2.833222    0.184169
     14          8           0       -2.797266    1.925763   -1.780551
     15          6           0        3.988641   -0.059354   -0.320156
     16          6           0        4.399858    0.931210    0.769644
     17          6           0        5.765453    1.566511    0.506326
     18          1           0        4.751573   -0.845942   -0.398634
     19          1           0        3.972533    0.458270   -1.289280
     20          1           0        4.413843    0.412204    1.736626
     21          1           0        3.635761    1.715425    0.845668
     22          1           0        5.761062    2.108942   -0.444648
     23          1           0        6.543565    0.798316    0.451371
     24          1           0        6.039694    2.271191    1.297578
     25          6           0        2.625678   -0.702778   -0.071019
     26          6           0        2.214461   -1.693344   -1.160819
     27          6           0        0.848865   -2.328645   -0.897501
     28          1           0        2.641786   -1.220404    0.898105
     29          1           0        1.862745    0.083809    0.007459
     30          1           0        2.978558   -2.477559   -1.236843
     31          1           0        2.200476   -1.174338   -2.127801
     32          1           0        0.070754   -1.560449   -0.842547
     33          1           0        0.853257   -2.871075    0.053473
     34          1           0        0.574625   -3.033324   -1.688753
 ---------------------------------------------------------------------

 SCF Done:  E(RHF) =  -669.534523401     A.U. after   15 cycles
 E2 =    -0.2092894224D+01 EUMP2 =    -0.67162741762517D+03

 The electronic state is 1-A.
 Alpha  occ. eigenvalues --  -20.60822 -20.60817 -15.85875 -11.31253 -11.27790
 Alpha  occ. eigenvalues --  -11.27764 -11.27501 -11.26813 -11.26776 -11.21701
 Alpha  occ. eigenvalues --  -11.21577 -11.21458 -11.21367 -11.21221 -11.21021
 Alpha  occ. eigenvalues --   -1.59898  -1.39451  -1.19413  -1.08798  -1.08471
 Alpha  occ. eigenvalues --   -1.04814  -1.03582  -0.96047  -0.95633  -0.87077
 Alpha  occ. eigenvalues --   -0.86194  -0.82464  -0.79659  -0.78283  -0.77514
 Alpha  occ. eigenvalues --   -0.72089  -0.71224  -0.70495  -0.65106  -0.65047
 Alpha  occ. eigenvalues --   -0.64797  -0.62148  -0.60993  -0.59424  -0.57683
 Alpha  occ. eigenvalues --   -0.55403  -0.55288  -0.53410  -0.52902  -0.52724
 Alpha  occ. eigenvalues --   -0.52237  -0.49950  -0.48850  -0.48846  -0.47943
 Alpha  occ. eigenvalues --   -0.46670  -0.45819  -0.45739  -0.44853  -0.43850
 Alpha  occ. eigenvalues --   -0.37363  -0.36316
 Alpha virt. eigenvalues --    0.04999   0.11188   0.16492   0.21275   0.22831
 Alpha virt. eigenvalues --    0.24249   0.26594   0.26984   0.27431   0.28108
 Alpha virt. eigenvalues --    0.28374   0.30484   0.31402   0.31930   0.31941

 Mulliken charges:
               1
     1  C   -0.168909
     2  C   -0.213770
     3  C   -0.176103
     4  C    0.159931
     5  C   -0.171674
     6  C   -0.217716
     7  H    0.225880
     8  H    0.224779
     9  H    0.275882
    10  H    0.275713
    11  H    0.223720
    12  N    0.487952
    13  O   -0.460231
    14  O   -0.460363
    15  C   -0.298465
    16  C   -0.300098
    17  C   -0.475800
    18  H    0.148803
    19  H    0.151608
    20  H    0.150007
    21  H    0.154332
    22  H    0.156593
    23  H    0.154354
    24  H    0.160492
    25  C   -0.298033
    26  C   -0.299641
    27  C   -0.480456
    28  H    0.146649
    29  H    0.151627
    30  H    0.150655
    31  H    0.153958
    32  H    0.165129
    33  H    0.149213
    34  H    0.153983
 Sum of Mulliken charges =  -0.00000

 Dipole moment (field-independent basis, Debye):
    X=              0.0984    Y=             -4.6868    Z=              2.1833  Tot=              5.1714
 Quadrupole moment (field-independent basis, Debye-Ang):
   XX=            -97.1108   YY=            -99.3164   ZZ=            -90.3464
   XY=             12.3060   XZ=             -4.7737   YZ=              2.5300

 Normal termination of Gaussian 16 at Thu May  6 12:45:00 2021.
