 Gaussian 16, Revision A.03,
 Gaussian 16:  EM64L-G16RevA.03 25-Dec-2016

 -------------
 #p 6-31g* mp2
 -------------

 ------------------------------------------------------
 Input file generated by CHIRIPA (05-May-2021 14:57:26)
 ------------------------------------------------------
 Symbolic Z-matrix:
 Charge =  0 Multiplicity = 1

                         Standard orientation:
 ---------------------------------------------------------------------
 Center     Atomic      Atomic             Coordinates (Angstroms)
 Number     Number       Type             X           Y           Z
 ---------------------------------------------------------------------
      1          6           0       -5.306496    0.607557    1.172623
      2          6           0       -4.402424    1.504920    0.594770
      3          6           0       -3.283464    1.036681   -0.100376
      4          6           0       -3.098564   -0.341518   -0.198720
      5          6           0       -3.981323   -1.260785    0.366058
      6          6           0       -5.093435   -0.770003    1.056628
      7          1           0       -6.173071    0.980052    1.710852
      8          1           0       -4.565357    2.575278    0.683261
      9          1           0       -2.567688    1.709151   -0.557394
     10          1           0       -3.792222   -2.322215    0.261058
     11          1           0       -5.793886   -1.469238    1.504383
     12          7           0       -1.917595   -0.849154   -0.932217
     13          8           0       -1.777223   -2.068039   -1.004685
     14          8           0       -1.154685   -0.018542   -1.420776
     15          6           0        4.562158   -1.757038    0.912028
     16          6           0        3.799297   -1.844962   -0.257088
     17          6           0        3.092116   -0.734951   -0.728596
     18          6           0        3.170524    0.452645   -0.002817
     19          6           0        3.921864    0.571736    1.165341
     20          6           0        4.620903   -0.551096    1.618267
     21          1           0        5.108350   -2.624302    1.271090
     22          1           0        3.751835   -2.780227   -0.807609
     23          1           0        2.493843   -0.775234   -1.630741
     24          1           0        3.949803    1.517613    1.692555
     25          1           0        5.212545   -0.479901    2.526527
     26          7           0        2.426172    1.634551   -0.492145
     27          8           0        2.511605    2.669377    0.165482
     28          8           0        1.771413    1.503721   -1.524041
 ---------------------------------------------------------------------

 SCF Done:  E(RHF) =  -868.337736691     A.U. after   16 cycles
 E2 =    -0.2599637976D+01 EUMP2 =    -0.87093737466678D+03

 The electronic state is 1-A.
 Alpha  occ. eigenvalues --  -20.60409 -20.60311 -20.59868 -20.59725 -15.85388
 Alpha  occ. eigenvalues --  -15.84832 -11.30799 -11.30274 -11.27424 -11.27309
 Alpha  occ. eigenvalues --  -11.27157 -11.26943 -11.26757 -11.26688 -11.26444
 Alpha  occ. eigenvalues --  -11.26372 -11.25980 -11.25861  -1.59449  -1.58872
 Alpha  occ. eigenvalues --   -1.38990  -1.38412  -1.18987  -1.18476  -1.08384
 Alpha  occ. eigenvalues --   -1.07872  -1.04389  -1.03884  -0.95205  -0.94683
 Alpha  occ. eigenvalues --   -0.85787  -0.85283  -0.82027  -0.81502  -0.77062
 Alpha  occ. eigenvalues --   -0.76523  -0.71636  -0.71031  -0.70781  -0.70178
 Alpha  occ. eigenvalues --   -0.70083  -0.69594  -0.64633  -0.64396  -0.64127
 Alpha  occ. eigenvalues --   -0.63900  -0.61724  -0.61215  -0.54908  -0.54424
 Alpha  occ. eigenvalues --   -0.52729  -0.52478  -0.52225  -0.51978  -0.48422
 Alpha  occ. eigenvalues --   -0.48376  -0.47855  -0.47785  -0.44441  -0.43718
 Alpha  occ. eigenvalues --   -0.36986  -0.36492  -0.35997  -0.35489
 Alpha virt. eigenvalues --    0.05438   0.06015   0.11654   0.12160   0.16920
 Alpha virt. eigenvalues --    0.17461   0.21791   0.22245   0.27709   0.28162
 Alpha virt. eigenvalues --    0.28710   0.29187   0.31330   0.31751   0.33020

 Mulliken charges:
               1
     1  C   -0.171076
     2  C   -0.219062
     3  C   -0.171661
     4  C    0.157026
     5  C   -0.171710
     6  C   -0.218973
     7  H    0.224394
     8  H    0.224529
     9  H    0.283962
    10  H    0.273289
    11  H    0.221478
    12  N    0.487034
    13  O   -0.469102
    14  O   -0.450181
    15  C   -0.171528
    16  C   -0.219188
    17  C   -0.167273
    18  C    0.156457
    19  C   -0.172541
    20  C   -0.219524
    21  H    0.222420
    22  H    0.223957
    23  H    0.286766
    24  H    0.272026
    25  H    0.219423
    26  N    0.486742
    27  O   -0.470665
    28  O   -0.447019
 Sum of Mulliken charges =  -0.00000

 Dipole moment (field-independent basis, Debye):
    X=             -1.6585    Y=             -2.2888    Z=              4.0163  Tot=              4.9112
 Quadrupole moment (field-independent basis, Debye-Ang):
   XX=            -64.3155   YY=           -105.0044   ZZ=           -103.7163
   XY=            -14.4956   XZ=             -1.1458   YZ=              0.7585

 Normal termination of Gaussian 16 at Fri May  7 05:04:59 2021.
