 Gaussian 16, Revision A.03,
 Gaussian 16:  EM64L-G16RevA.03 25-Dec-2016

 -------------
 #p 6-31g* mp2
 -------------

 ------------------------------------------------------
 Input file generated by CHIRIPA (05-May-2021 14:53:18)
 ------------------------------------------------------
 Symbolic Z-matrix:
 Charge =  0 Multiplicity = 1

                         Standard orientation:
 ---------------------------------------------------------------------
 Center     Atomic      Atomic             Coordinates (Angstroms)
 Number     Number       Type             X           Y           Z
 ---------------------------------------------------------------------
      1          6           0        3.461301   -0.237837    0.548238
      2          6           0        3.994888   -1.430332   -0.246259
      3          6           0        4.221079   -2.666945    0.624039
      4          1           0        4.167907    0.003448    1.354113
      5          1           0        2.517999   -0.522652    1.034508
      6          1           0        4.936194   -1.142919   -0.732010
      7          1           0        3.287023   -1.668685   -1.050455
      8          1           0        3.285331   -2.981143    1.097597
      9          1           0        4.943872   -2.452390    1.417851
     10          1           0        4.602595   -3.507441    0.035930
     11          6           0        3.230102    1.005983   -0.308025
     12          6           0        2.696514    2.198478    0.486471
     13          6           0        2.470324    3.435092   -0.383827
     14          1           0        4.173403    1.290799   -0.794295
     15          1           0        2.523496    0.764698   -1.113900
     16          1           0        3.404379    2.436832    1.290667
     17          1           0        1.755209    1.911066    0.972222
     18          1           0        1.747531    3.220536   -1.177639
     19          1           0        3.406071    3.749290   -0.857384
     20          1           0        2.088808    4.275588    0.204282
     21          6           0       -4.883069    0.657279    0.453872
     22          6           0       -4.727038   -0.722810    0.287955
     23          6           0       -3.474379   -1.264299   -0.015659
     24          6           0       -2.394448   -0.392609   -0.146783
     25          6           0       -2.517905    0.986762    0.012543
     26          6           0       -3.779949    1.506164    0.315880
     27          1           0       -5.859810    1.069342    0.689618
     28          1           0       -5.581967   -1.384463    0.394533
     29          1           0       -3.325349   -2.328878   -0.149383
     30          1           0       -1.647022    1.621063   -0.099898
     31          1           0       -3.898165    2.578363    0.444179
     32          7           0       -1.063345   -0.954168   -0.468058
     33          8           0       -0.127668   -0.164877   -0.578346
     34          8           0       -0.980909   -2.172978   -0.603503
 ---------------------------------------------------------------------

 SCF Done:  E(RHF) =  -669.536591040     A.U. after   15 cycles
 E2 =    -0.2092057212D+01 EUMP2 =    -0.67162864825160D+03

 The electronic state is 1-A.
 Alpha  occ. eigenvalues --  -20.61124 -20.61119 -15.86142 -11.31391 -11.27945
 Alpha  occ. eigenvalues --  -11.27941 -11.27671 -11.26937 -11.26927 -11.20529
 Alpha  occ. eigenvalues --  -11.20340 -11.20152 -11.19892 -11.19840 -11.19831
 Alpha  occ. eigenvalues --   -1.60176  -1.39735  -1.19553  -1.08972  -1.07046
 Alpha  occ. eigenvalues --   -1.04938  -1.02334  -0.95826  -0.94788  -0.86342
 Alpha  occ. eigenvalues --   -0.85825  -0.82663  -0.78400  -0.77724  -0.76849
 Alpha  occ. eigenvalues --   -0.72389  -0.71481  -0.70661  -0.65221  -0.64941
 Alpha  occ. eigenvalues --   -0.63588  -0.62286  -0.59714  -0.58199  -0.56416
 Alpha  occ. eigenvalues --   -0.55445  -0.54061  -0.53273  -0.53025  -0.51569
 Alpha  occ. eigenvalues --   -0.51251  -0.49139  -0.49107  -0.48713  -0.46737
 Alpha  occ. eigenvalues --   -0.45398  -0.45200  -0.44397  -0.44180  -0.42526
 Alpha  occ. eigenvalues --   -0.37528  -0.36535
 Alpha virt. eigenvalues --    0.04775   0.11119   0.16271   0.20937   0.23751
 Alpha virt. eigenvalues --    0.25150   0.27090   0.27536   0.28787   0.28870
 Alpha virt. eigenvalues --    0.29163   0.30840   0.31721   0.32587   0.32944

 Mulliken charges:
               1
     1  C   -0.296545
     2  C   -0.300572
     3  C   -0.475368
     4  H    0.140027
     5  H    0.158650
     6  H    0.144891
     7  H    0.163200
     8  H    0.158345
     9  H    0.149366
    10  H    0.156359
    11  C   -0.299484
    12  C   -0.298614
    13  C   -0.476233
    14  H    0.140725
    15  H    0.169159
    16  H    0.146096
    17  H    0.153535
    18  H    0.154873
    19  H    0.153778
    20  H    0.152438
    21  C   -0.170316
    22  C   -0.218635
    23  C   -0.170338
    24  C    0.157284
    25  C   -0.171300
    26  C   -0.218630
    27  H    0.226425
    28  H    0.224166
    29  H    0.276004
    30  H    0.276610
    31  H    0.224485
    32  N    0.493739
    33  O   -0.466011
    34  O   -0.458109
 Sum of Mulliken charges =  -0.00000

 Dipole moment (field-independent basis, Debye):
    X=             -5.1100    Y=              1.7987    Z=              1.0175  Tot=              5.5120
 Quadrupole moment (field-independent basis, Debye-Ang):
   XX=            -72.5449   YY=            -93.8376   ZZ=            -96.3215
   XY=             -0.6834   XZ=             -2.4378   YZ=             -0.0878

 Normal termination of Gaussian 16 at Thu May  6 09:11:34 2021.
