 Gaussian 16, Revision A.03,
 Gaussian 16:  EM64L-G16RevA.03 25-Dec-2016

 -------------
 #p 6-31g* mp2
 -------------

 ------------------------------------------------------
 Input file generated by CHIRIPA (05-May-2021 14:53:12)
 ------------------------------------------------------
 Symbolic Z-matrix:
 Charge =  0 Multiplicity = 1

                         Standard orientation:
 ---------------------------------------------------------------------
 Center     Atomic      Atomic             Coordinates (Angstroms)
 Number     Number       Type             X           Y           Z
 ---------------------------------------------------------------------
      1          6           0       -4.666015   -0.362436   -0.248272
      2          6           0       -5.272115    1.012236    0.036164
      3          6           0       -6.596032    1.237308   -0.694850
      4          1           0       -4.512043   -0.471403   -1.330568
      5          1           0       -5.384722   -1.140132    0.045062
      6          1           0       -4.551927    1.787084   -0.256335
      7          1           0       -5.424483    1.118017    1.117927
      8          1           0       -7.333836    0.485773   -0.395782
      9          1           0       -6.456322    1.158641   -1.777852
     10          1           0       -7.011678    2.226139   -0.477337
     11          6           0       -3.342225   -0.602358    0.475431
     12          6           0       -2.736124   -1.977030    0.190995
     13          6           0       -1.412208   -2.202101    0.922009
     14          1           0       -2.623518    0.175338    0.182097
     15          1           0       -3.496196   -0.493391    1.557727
     16          1           0       -2.583756   -2.082811   -0.890768
     17          1           0       -3.456313   -2.751878    0.483494
     18          1           0       -1.551917   -2.123435    2.005011
     19          1           0       -0.674403   -1.450567    0.622941
     20          1           0       -0.996562   -3.190932    0.704496
     21          6           0        1.888000    2.542753    0.281052
     22          6           0        3.282200    2.507362    0.388171
     23          6           0        3.979792    1.312885    0.185356
     24          6           0        3.248118    0.167484   -0.124483
     25          6           0        1.858751    0.170659   -0.238224
     26          6           0        1.181969    1.376345   -0.031253
     27          1           0        1.354176    3.475005    0.440217
     28          1           0        3.833124    3.411664    0.630588
     29          1           0        5.058878    1.257174    0.262093
     30          1           0        1.337083   -0.747089   -0.481162
     31          1           0        0.099188    1.400863   -0.115091
     32          7           0        3.975613   -1.102990   -0.341394
     33          8           0        3.307772   -2.098332   -0.613280
     34          8           0        5.199887   -1.079389   -0.235417
 ---------------------------------------------------------------------

 SCF Done:  E(RHF) =  -669.535293814     A.U. after   15 cycles
 E2 =    -0.2091648459D+01 EUMP2 =    -0.67162694227256D+03

 The electronic state is 1-A.
 Alpha  occ. eigenvalues --  -20.60736 -20.60730 -15.85789 -11.31161 -11.27740
 Alpha  occ. eigenvalues --  -11.27714 -11.27486 -11.26761 -11.26751 -11.22118
 Alpha  occ. eigenvalues --  -11.22103 -11.22035 -11.21887 -11.21558 -11.21487
 Alpha  occ. eigenvalues --   -1.59811  -1.39364  -1.19341  -1.08979  -1.08734
 Alpha  occ. eigenvalues --   -1.04752  -1.04028  -0.96480  -0.95567  -0.87493
 Alpha  occ. eigenvalues --   -0.86143  -0.82404  -0.80090  -0.78803  -0.77445
 Alpha  occ. eigenvalues --   -0.72009  -0.71133  -0.70460  -0.65624  -0.64995
 Alpha  occ. eigenvalues --   -0.64759  -0.62185  -0.61367  -0.59828  -0.58080
 Alpha  occ. eigenvalues --   -0.55807  -0.55236  -0.53147  -0.53092  -0.52963
 Alpha  occ. eigenvalues --   -0.52738  -0.50416  -0.48769  -0.48762  -0.48397
 Alpha  occ. eigenvalues --   -0.47132  -0.46340  -0.46268  -0.44767  -0.44286
 Alpha  occ. eigenvalues --   -0.37322  -0.36340
 Alpha virt. eigenvalues --    0.05066   0.11295   0.16507   0.18933   0.22722
 Alpha virt. eigenvalues --    0.23751   0.24815   0.26246   0.26683   0.28422
 Alpha virt. eigenvalues --    0.29301   0.29977   0.31316   0.31562   0.31609

 Mulliken charges:
               1
     1  C   -0.298699
     2  C   -0.299339
     3  C   -0.475985
     4  H    0.150678
     5  H    0.152471
     6  H    0.148216
     7  H    0.152732
     8  H    0.156840
     9  H    0.155923
    10  H    0.160857
    11  C   -0.298164
    12  C   -0.301431
    13  C   -0.478038
    14  H    0.139762
    15  H    0.151934
    16  H    0.153180
    17  H    0.155881
    18  H    0.158224
    19  H    0.144958
    20  H    0.169960
    21  C   -0.171251
    22  C   -0.218526
    23  C   -0.170862
    24  C    0.159241
    25  C   -0.175739
    26  C   -0.221918
    27  H    0.225811
    28  H    0.223418
    29  H    0.275574
    30  H    0.280571
    31  H    0.226377
    32  N    0.488063
    33  O   -0.460087
    34  O   -0.460632
 Sum of Mulliken charges =  -0.00000

 Dipole moment (field-independent basis, Debye):
    X=             -2.6929    Y=              4.3579    Z=              0.7991  Tot=              5.1847
 Quadrupole moment (field-independent basis, Debye-Ang):
   XX=           -107.8039   YY=            -92.1704   ZZ=            -95.1920
   XY=             17.3765   XZ=              2.7975   YZ=             -0.1982

 Normal termination of Gaussian 16 at Thu May  6 15:21:12 2021.
