 Gaussian 16, Revision A.03,
 Gaussian 16:  EM64L-G16RevA.03 25-Dec-2016

 -------------
 #p 6-31g* mp2
 -------------

 ------------------------------------------------------
 Input file generated by CHIRIPA (05-May-2021 14:55:25)
 ------------------------------------------------------
 Symbolic Z-matrix:
 Charge =  0 Multiplicity = 1

                         Standard orientation:
 ---------------------------------------------------------------------
 Center     Atomic      Atomic             Coordinates (Angstroms)
 Number     Number       Type             X           Y           Z
 ---------------------------------------------------------------------
      1          6           0       -0.661209    0.240200    0.106209
      2          6           0       -1.421919    1.123234   -0.667154
      3          6           0       -2.812660    0.994938   -0.729831
      4          6           0       -3.412572   -0.032403   -0.003219
      5          6           0       -2.682046   -0.927925    0.776308
      6          6           0       -1.292587   -0.780761    0.824207
      7          1           0        0.418654    0.347192    0.149158
      8          1           0       -0.934278    1.917064   -1.225801
      9          1           0       -3.425743    1.664671   -1.320597
     10          1           0       -3.196555   -1.709379    1.322228
     11          1           0       -0.704343   -1.467992    1.425644
     12          7           0       -4.884209   -0.178212   -0.061749
     13          8           0       -5.388752   -1.091637    0.587657
     14          8           0       -5.505269    0.623689   -0.755923
     15          6           0        4.308058    0.724506   -0.114182
     16          6           0        3.428131    1.781313    0.554304
     17          6           0        3.942064    3.204288    0.333373
     18          1           0        5.332222    0.810385    0.273964
     19          1           0        4.363761    0.932056   -1.191779
     20          1           0        3.372980    1.571029    1.630109
     21          1           0        2.405900    1.692782    0.164662
     22          1           0        3.980489    3.438406   -0.735417
     23          1           0        4.953064    3.315960    0.738355
     24          1           0        3.298190    3.943719    0.819716
     25          6           0        3.807217   -0.703073    0.097727
     26          6           0        4.687142   -1.759881   -0.570760
     27          6           0        4.173210   -3.182855   -0.349830
     28          1           0        3.751513   -0.910623    1.175323
     29          1           0        2.783052   -0.788953   -0.290420
     30          1           0        5.709375   -1.671350   -0.181118
     31          1           0        4.742293   -1.549596   -1.646563
     32          1           0        3.162210   -3.294527   -0.754810
     33          1           0        4.134786   -3.416974    0.718961
     34          1           0        4.817085   -3.922285   -0.836171
 ---------------------------------------------------------------------

 SCF Done:  E(RHF) =  -669.535441639     A.U. after   15 cycles
 E2 =    -0.2091574049D+01 EUMP2 =    -0.67162701568799D+03

 The electronic state is 1-A.
 Alpha  occ. eigenvalues --  -20.60719 -20.60714 -15.85773 -11.31127 -11.27700
 Alpha  occ. eigenvalues --  -11.27693 -11.27385 -11.26706 -11.26691 -11.22827
 Alpha  occ. eigenvalues --  -11.22540 -11.22454 -11.22411 -11.22019 -11.21836
 Alpha  occ. eigenvalues --   -1.59795  -1.39349  -1.19297  -1.09490  -1.08689
 Alpha  occ. eigenvalues --   -1.04701  -1.04506  -0.96930  -0.95530  -0.87945
 Alpha  occ. eigenvalues --   -0.86096  -0.82369  -0.80591  -0.79333  -0.77414
 Alpha  occ. eigenvalues --   -0.71991  -0.71119  -0.70424  -0.66115  -0.64947
 Alpha  occ. eigenvalues --   -0.64702  -0.62053  -0.61901  -0.60307  -0.58553
 Alpha  occ. eigenvalues --   -0.56212  -0.55231  -0.53594  -0.53353  -0.53028
 Alpha  occ. eigenvalues --   -0.52790  -0.50875  -0.48894  -0.48748  -0.48746
 Alpha  occ. eigenvalues --   -0.47630  -0.46826  -0.46752  -0.44776  -0.44757
 Alpha  occ. eigenvalues --   -0.37269  -0.36310
 Alpha virt. eigenvalues --    0.05111   0.11342   0.16569   0.19060   0.22556
 Alpha virt. eigenvalues --    0.23341   0.24777   0.25985   0.26826   0.27234
 Alpha virt. eigenvalues --    0.29707   0.30460   0.30866   0.31127   0.31834

 Mulliken charges:
               1
     1  C   -0.180814
     2  C   -0.221863
     3  C   -0.170746
     4  C    0.158149
     5  C   -0.170659
     6  C   -0.221511
     7  H    0.241357
     8  H    0.222662
     9  H    0.275338
    10  H    0.275344
    11  H    0.224205
    12  N    0.487994
    13  O   -0.460570
    14  O   -0.460647
    15  C   -0.298791
    16  C   -0.303719
    17  C   -0.476059
    18  H    0.154577
    19  H    0.151689
    20  H    0.154855
    21  H    0.142318
    22  H    0.156578
    23  H    0.159455
    24  H    0.162584
    25  C   -0.302254
    26  C   -0.299915
    27  C   -0.476766
    28  H    0.150314
    29  H    0.143217
    30  H    0.155196
    31  H    0.154277
    32  H    0.154775
    33  H    0.155355
    34  H    0.164077
 Sum of Mulliken charges =  -0.00000

 Dipole moment (field-independent basis, Debye):
    X=              5.4945    Y=              0.5186    Z=              0.2152  Tot=              5.5231
 Quadrupole moment (field-independent basis, Debye-Ang):
   XX=           -129.2608   YY=            -92.7423   ZZ=            -92.6385
   XY=             -2.3948   XZ=             -0.0370   YZ=             -2.7486

 Normal termination of Gaussian 16 at Wed May  5 20:49:25 2021.
