 Gaussian 16, Revision A.03,
 Gaussian 16:  EM64L-G16RevA.03 25-Dec-2016

 -------------
 #p 6-31g* mp2
 -------------

 ------------------------------------------------------
 Input file generated by CHIRIPA (05-May-2021 14:55:19)
 ------------------------------------------------------
 Symbolic Z-matrix:
 Charge =  0 Multiplicity = 1

                         Standard orientation:
 ---------------------------------------------------------------------
 Center     Atomic      Atomic             Coordinates (Angstroms)
 Number     Number       Type             X           Y           Z
 ---------------------------------------------------------------------
      1          6           0       -0.420274   -0.631076    1.202770
      2          6           0       -1.596641   -0.753699    1.949526
      3          6           0       -2.843146   -0.554933    1.348472
      4          6           0       -2.876542   -0.233288   -0.007522
      5          6           0       -1.722194   -0.103996   -0.778272
      6          6           0       -0.486688   -0.307186   -0.156350
      7          1           0        0.543768   -0.787200    1.677788
      8          1           0       -1.548095   -1.005138    3.005209
      9          1           0       -3.769464   -0.643582    1.902993
     10          1           0       -1.802528    0.147678   -1.828807
     11          1           0        0.425257   -0.211297   -0.738764
     12          7           0       -4.190338   -0.020521   -0.654877
     13          8           0       -4.192794    0.261981   -1.851047
     14          8           0       -5.192760   -0.140286    0.046154
     15          6           0        3.572334   -0.350658    0.144215
     16          6           0        4.184822   -1.279711   -0.904452
     17          6           0        4.514493   -2.664696   -0.346843
     18          1           0        4.268465   -0.251472    0.988318
     19          1           0        2.659283   -0.812574    0.544673
     20          1           0        5.095693   -0.815550   -1.303807
     21          1           0        3.487235   -1.376544   -1.746243
     22          1           0        3.611039   -3.151539    0.034415
     23          1           0        5.228636   -2.587358    0.479364
     24          1           0        4.951259   -3.312513   -1.113281
     25          6           0        3.237296    1.037645   -0.398090
     26          6           0        2.624809    1.966699    0.650577
     27          6           0        2.295138    3.351684    0.092968
     28          1           0        4.150348    1.499562   -0.798547
     29          1           0        2.541166    0.938460   -1.242193
     30          1           0        3.322396    2.063532    1.492368
     31          1           0        1.713938    1.502539    1.049933
     32          1           0        1.580994    3.274345   -0.733240
     33          1           0        3.198591    3.838526   -0.288291
     34          1           0        1.858371    3.999502    0.859406
 ---------------------------------------------------------------------

 SCF Done:  E(RHF) =  -669.534245818     A.U. after   15 cycles
 E2 =    -0.2094194985D+01 EUMP2 =    -0.67162844080243D+03

 The electronic state is 1-A.
 Alpha  occ. eigenvalues --  -20.60774 -20.60769 -15.85827 -11.31206 -11.27769
 Alpha  occ. eigenvalues --  -11.27765 -11.27479 -11.26781 -11.26752 -11.22676
 Alpha  occ. eigenvalues --  -11.22594 -11.22544 -11.22485 -11.21922 -11.21769
 Alpha  occ. eigenvalues --   -1.59849  -1.39402  -1.19377  -1.09557  -1.08763
 Alpha  occ. eigenvalues --   -1.04782  -1.04460  -0.96923  -0.95607  -0.87925
 Alpha  occ. eigenvalues --   -0.86185  -0.82442  -0.80540  -0.79384  -0.77487
 Alpha  occ. eigenvalues --   -0.72047  -0.71172  -0.70531  -0.66451  -0.65018
 Alpha  occ. eigenvalues --   -0.64577  -0.62146  -0.61808  -0.60278  -0.58534
 Alpha  occ. eigenvalues --   -0.56223  -0.55317  -0.53540  -0.53348  -0.53100
 Alpha  occ. eigenvalues --   -0.52849  -0.50858  -0.48845  -0.48804  -0.48799
 Alpha  occ. eigenvalues --   -0.47597  -0.46855  -0.46821  -0.44805  -0.44772
 Alpha  occ. eigenvalues --   -0.37322  -0.36373
 Alpha virt. eigenvalues --    0.05019   0.11154   0.16448   0.18784   0.22822
 Alpha virt. eigenvalues --    0.23446   0.24653   0.25244   0.26838   0.28504
 Alpha virt. eigenvalues --    0.30499   0.30602   0.30939   0.31327   0.31426

 Mulliken charges:
               1
     1  C   -0.177052
     2  C   -0.219192
     3  C   -0.170885
     4  C    0.158678
     5  C   -0.172906
     6  C   -0.222781
     7  H    0.231168
     8  H    0.223896
     9  H    0.275675
    10  H    0.275818
    11  H    0.232315
    12  N    0.488037
    13  O   -0.460337
    14  O   -0.460320
    15  C   -0.305093
    16  C   -0.299538
    17  C   -0.476393
    18  H    0.155156
    19  H    0.140417
    20  H    0.156785
    21  H    0.150805
    22  H    0.154040
    23  H    0.156960
    24  H    0.164523
    25  C   -0.303107
    26  C   -0.306008
    27  C   -0.475187
    28  H    0.157251
    29  H    0.144268
    30  H    0.154110
    31  H    0.151494
    32  H    0.156051
    33  H    0.157410
    34  H    0.163943
 Sum of Mulliken charges =  -0.00000

 Dipole moment (field-independent basis, Debye):
    X=              4.8163    Y=             -0.6959    Z=              2.2695  Tot=              5.3695
 Quadrupole moment (field-independent basis, Debye-Ang):
   XX=           -119.0629   YY=            -95.5686   ZZ=            -91.1212
   XY=              2.2114   XZ=             -8.9153   YZ=             -1.0738

 Normal termination of Gaussian 16 at Thu May  6 17:23:16 2021.
