 Gaussian 16, Revision A.03,
 Gaussian 16:  EM64L-G16RevA.03 25-Dec-2016

 -------------
 #p 6-31g* mp2
 -------------

 ------------------------------------------------------
 Input file generated by CHIRIPA (05-May-2021 14:53:17)
 ------------------------------------------------------
 Symbolic Z-matrix:
 Charge =  0 Multiplicity = 1

                         Standard orientation:
 ---------------------------------------------------------------------
 Center     Atomic      Atomic             Coordinates (Angstroms)
 Number     Number       Type             X           Y           Z
 ---------------------------------------------------------------------
      1          6           0       -4.073259   -0.459926   -0.237639
      2          6           0       -5.027669   -1.138323    0.745653
      3          6           0       -5.488574   -2.515504    0.267393
      4          1           0       -4.569336   -0.363797   -1.213145
      5          1           0       -3.198633   -1.106411   -0.394108
      6          1           0       -5.899582   -0.490124    0.901285
      7          1           0       -4.529332   -1.232675    1.718984
      8          1           0       -4.631275   -3.182413    0.130021
      9          1           0       -6.009310   -2.435643   -0.692324
     10          1           0       -6.170044   -2.982467    0.985310
     11          6           0       -3.603704    0.917683    0.226514
     12          6           0       -2.649293    1.596080   -0.756778
     13          6           0       -2.188389    2.973262   -0.278518
     14          1           0       -4.478330    1.564168    0.382983
     15          1           0       -3.107627    0.821555    1.202021
     16          1           0       -3.147631    1.690432   -1.730109
     17          1           0       -1.777381    0.947881   -0.912410
     18          1           0       -1.667652    2.893400    0.681199
     19          1           0       -3.045688    3.640170   -0.141145
     20          1           0       -1.506919    3.440224   -0.996435
     21          6           0        5.475297   -0.585200    0.264730
     22          6           0        4.770340    0.101655    1.258605
     23          6           0        3.397981    0.332518    1.124893
     24          6           0        2.759396   -0.139524   -0.020827
     25          6           0        3.434103   -0.827074   -1.028466
     26          6           0        4.806108   -1.046559   -0.873627
     27          1           0        6.541242   -0.760120    0.376806
     28          1           0        5.287438    0.461097    2.143735
     29          1           0        2.827820    0.861416    1.878951
     30          1           0        2.891204   -1.173321   -1.899552
     31          1           0        5.351029   -1.580277   -1.647093
     32          7           0        1.306728    0.098858   -0.173565
     33          8           0        0.767292   -0.327195   -1.192449
     34          8           0        0.735068    0.707241    0.728496
 ---------------------------------------------------------------------

 SCF Done:  E(RHF) =  -669.537220995     A.U. after   15 cycles
 E2 =    -0.2092276213D+01 EUMP2 =    -0.67162949720787D+03

 The electronic state is 1-A.
 Alpha  occ. eigenvalues --  -20.61233 -20.61222 -15.86206 -11.31446 -11.27989
 Alpha  occ. eigenvalues --  -11.27985 -11.27710 -11.26974 -11.26964 -11.20519
 Alpha  occ. eigenvalues --  -11.20194 -11.19974 -11.19725 -11.19438 -11.19275
 Alpha  occ. eigenvalues --   -1.60250  -1.39808  -1.19598  -1.09020  -1.06913
 Alpha  occ. eigenvalues --   -1.04978  -1.02018  -0.95874  -0.94538  -0.86383
 Alpha  occ. eigenvalues --   -0.85570  -0.82711  -0.78149  -0.77778  -0.76645
 Alpha  occ. eigenvalues --   -0.72407  -0.71545  -0.70705  -0.65252  -0.64984
 Alpha  occ. eigenvalues --   -0.63536  -0.62325  -0.59405  -0.57966  -0.56132
 Alpha  occ. eigenvalues --   -0.55484  -0.53832  -0.53313  -0.53067  -0.51291
 Alpha  occ. eigenvalues --   -0.50964  -0.49252  -0.49168  -0.48482  -0.46438
 Alpha  occ. eigenvalues --   -0.45270  -0.45103  -0.44221  -0.43932  -0.42292
 Alpha  occ. eigenvalues --   -0.37571  -0.36573
 Alpha virt. eigenvalues --    0.04747   0.11084   0.16264   0.21221   0.24302
 Alpha virt. eigenvalues --    0.25818   0.27156   0.28006   0.28302   0.29030
 Alpha virt. eigenvalues --    0.29365   0.30813   0.32327   0.32817   0.33164

 Mulliken charges:
               1
     1  C   -0.298644
     2  C   -0.298513
     3  C   -0.474730
     4  H    0.145471
     5  H    0.155896
     6  H    0.148719
     7  H    0.150542
     8  H    0.154437
     9  H    0.153391
    10  H    0.156149
    11  C   -0.297029
    12  C   -0.310093
    13  C   -0.473799
    14  H    0.141025
    15  H    0.152083
    16  H    0.140498
    17  H    0.184652
    18  H    0.162023
    19  H    0.143969
    20  H    0.153344
    21  C   -0.170227
    22  C   -0.218626
    23  C   -0.170571
    24  C    0.159599
    25  C   -0.170501
    26  C   -0.218613
    27  H    0.226571
    28  H    0.224390
    29  H    0.276113
    30  H    0.276209
    31  H    0.224384
    32  N    0.488932
    33  O   -0.458193
    34  O   -0.458858
 Sum of Mulliken charges =  -0.00000

 Dipole moment (field-independent basis, Debye):
    X=              5.7106    Y=             -0.9797    Z=              0.5632  Tot=              5.8213
 Quadrupole moment (field-independent basis, Debye-Ang):
   XX=            -68.3354   YY=            -95.8995   ZZ=            -90.9957
   XY=             -3.6231   XZ=              1.6207   YZ=              2.2718

 Normal termination of Gaussian 16 at Thu May  6 18:56:36 2021.
