 Gaussian 16, Revision A.03,
 Gaussian 16:  EM64L-G16RevA.03 25-Dec-2016

 -------------
 #p 6-31g* mp2
 -------------

 ------------------------------------------------------
 Input file generated by CHIRIPA (05-May-2021 14:57:27)
 ------------------------------------------------------
 Symbolic Z-matrix:
 Charge =  0 Multiplicity = 1

                         Standard orientation:
 ---------------------------------------------------------------------
 Center     Atomic      Atomic             Coordinates (Angstroms)
 Number     Number       Type             X           Y           Z
 ---------------------------------------------------------------------
      1          6           0        2.223835    2.376294    0.803191
      2          6           0        3.021474    1.313068    1.238902
      3          6           0        2.960030    0.071070    0.599985
      4          6           0        2.085894   -0.073238   -0.476282
      5          6           0        1.278460    0.966940   -0.933852
      6          6           0        1.356404    2.200147   -0.279886
      7          1           0        2.277975    3.337693    1.305363
      8          1           0        3.696047    1.446980    2.079772
      9          1           0        3.566305   -0.768933    0.916596
     10          1           0        0.615653    0.803051   -1.774831
     11          1           0        0.735770    3.024093   -0.620434
     12          7           0        2.012112   -1.383433   -1.160641
     13          8           0        1.233858   -1.484905   -2.106506
     14          8           0        2.733934   -2.284082   -0.738218
     15          6           0       -1.240477   -2.024029    1.809548
     16          6           0       -2.079642   -2.301139    0.725329
     17          6           0       -2.560770   -1.266640   -0.082678
     18          6           0       -2.180961    0.039182    0.223692
     19          6           0       -1.346375    0.347326    1.296914
     20          6           0       -0.877163   -0.703009    2.091384
     21          1           0       -0.871353   -2.833803    2.431970
     22          1           0       -2.363446   -3.326103    0.504087
     23          1           0       -3.211743   -1.452888   -0.928234
     24          1           0       -1.080842    1.379141    1.492537
     25          1           0       -0.225595   -0.484837    2.932754
     26          7           0       -2.684003    1.142743   -0.624543
     27          8           0       -2.334720    2.284665   -0.333590
     28          8           0       -3.418044    0.844896   -1.564281
 ---------------------------------------------------------------------

 SCF Done:  E(RHF) =  -868.338800688     A.U. after   16 cycles
 E2 =    -0.2604429835D+01 EUMP2 =    -0.87094323052361D+03

 The electronic state is 1-A.
 Alpha  occ. eigenvalues --  -20.61138 -20.61080 -20.60954 -20.60928 -15.86132
 Alpha  occ. eigenvalues --  -15.85989 -11.31299 -11.31141 -11.27917 -11.27756
 Alpha  occ. eigenvalues --  -11.27746 -11.27682 -11.27575 -11.27410 -11.26962
 Alpha  occ. eigenvalues --  -11.26674 -11.26670 -11.26575  -1.60185  -1.60016
 Alpha  occ. eigenvalues --   -1.39747  -1.39572  -1.19505  -1.19302  -1.08878
 Alpha  occ. eigenvalues --   -1.08782  -1.04876  -1.04651  -0.95727  -0.95663
 Alpha  occ. eigenvalues --   -0.86243  -0.86092  -0.82568  -0.82478  -0.77652
 Alpha  occ. eigenvalues --   -0.77535  -0.72366  -0.72215  -0.71542  -0.71321
 Alpha  occ. eigenvalues --   -0.70564  -0.70437  -0.65113  -0.64976  -0.64809
 Alpha  occ. eigenvalues --   -0.64664  -0.62167  -0.62039  -0.55352  -0.55204
 Alpha  occ. eigenvalues --   -0.53759  -0.52908  -0.52770  -0.52471  -0.49139
 Alpha  occ. eigenvalues --   -0.49080  -0.48973  -0.48962  -0.45221  -0.44991
 Alpha  occ. eigenvalues --   -0.37583  -0.37507  -0.36550  -0.35756
 Alpha virt. eigenvalues --    0.04743   0.05023   0.10939   0.11590   0.16231
 Alpha virt. eigenvalues --    0.16633   0.21270   0.21694   0.27159   0.27446
 Alpha virt. eigenvalues --    0.28159   0.28558   0.31003   0.31243   0.32222

 Mulliken charges:
               1
     1  C   -0.177749
     2  C   -0.221098
     3  C   -0.175469
     4  C    0.164388
     5  C   -0.175514
     6  C   -0.222156
     7  H    0.227132
     8  H    0.222019
     9  H    0.273260
    10  H    0.279119
    11  H    0.241936
    12  N    0.488289
    13  O   -0.458866
    14  O   -0.464110
    15  C   -0.169708
    16  C   -0.216070
    17  C   -0.164931
    18  C    0.152121
    19  C   -0.166515
    20  C   -0.220713
    21  H    0.227933
    22  H    0.227141
    23  H    0.277406
    24  H    0.270570
    25  H    0.220889
    26  N    0.487376
    27  O   -0.471154
    28  O   -0.455526
 Sum of Mulliken charges =  -0.00000

 Dipole moment (field-independent basis, Debye):
    X=              1.8944    Y=              0.6132    Z=              5.2371  Tot=              5.6029
 Quadrupole moment (field-independent basis, Debye-Ang):
   XX=           -109.2045   YY=           -103.4025   ZZ=           -103.2187
   XY=             19.3419   XZ=              2.8929   YZ=             -2.5997

 Normal termination of Gaussian 16 at Fri May  7 08:12:26 2021.
