 Gaussian 16, Revision A.03,
 Gaussian 16:  EM64L-G16RevA.03 25-Dec-2016

 -------------
 #p 6-31g* mp2
 -------------

 ------------------------------------------------------
 Input file generated by CHIRIPA (05-May-2021 14:51:10)
 ------------------------------------------------------
 Symbolic Z-matrix:
 Charge =  0 Multiplicity = 1

                         Standard orientation:
 ---------------------------------------------------------------------
 Center     Atomic      Atomic             Coordinates (Angstroms)
 Number     Number       Type             X           Y           Z
 ---------------------------------------------------------------------
      1          6           0        2.257154    0.341520   -0.657937
      2          6           0        2.494356    1.628963   -1.448008
      3          6           0        1.193397    2.296618   -1.894703
      4          1           0        1.677291   -0.358337   -1.275110
      5          1           0        1.639293    0.568124    0.222003
      6          1           0        3.112741    1.400242   -2.325449
      7          1           0        3.073886    2.325763   -0.828952
      8          1           0        0.574853    2.553082   -1.028544
      9          1           0        0.613929    1.622302   -2.533543
     10          1           0        1.386267    3.215117   -2.457749
     11          6           0        3.548248   -0.337553   -0.204436
     12          6           0        3.311047   -1.624995    0.585635
     13          6           0        4.612006   -2.292650    1.032331
     14          1           0        4.166109   -0.564157   -1.084375
     15          1           0        4.128111    0.362305    0.412738
     16          1           0        2.731517   -2.321796   -0.033420
     17          1           0        2.692661   -1.396275    1.463076
     18          1           0        5.191473   -1.618335    1.671171
     19          1           0        5.230549   -2.549114    0.166172
     20          1           0        4.419135   -3.211149    1.595376
     21          6           0       -2.946864   -0.579125   -0.067201
     22          6           0       -4.382460   -1.006707   -0.374158
     23          6           0       -4.454387   -2.162286   -1.372786
     24          1           0       -2.449564   -0.288628   -1.002749
     25          1           0       -2.391368   -1.441133    0.327463
     26          1           0       -4.935464   -0.143798   -0.766828
     27          1           0       -4.876459   -1.296037    0.562255
     28          1           0       -3.927012   -3.039876   -0.985083
     29          1           0       -3.986352   -1.881089   -2.321718
     30          1           0       -5.489750   -2.451830   -1.577839
     31          6           0       -2.858539    0.575157    0.929574
     32          6           0       -1.422943    1.002740    1.236531
     33          6           0       -1.351015    2.158318    2.235159
     34          1           0       -3.414034    1.437165    0.534909
     35          1           0       -3.355838    0.284660    1.865123
     36          1           0       -0.928943    1.292069    0.300118
     37          1           0       -0.869939    0.139829    1.629201
     38          1           0       -1.819051    1.877121    3.184091
     39          1           0       -1.878391    3.035907    1.847455
     40          1           0       -0.315652    2.447862    2.440212
 ---------------------------------------------------------------------

 SCF Done:  E(RHF) =  -470.732887829     A.U. after   11 cycles
 E2 =    -0.1583647055D+01 EUMP2 =    -0.47231653488474D+03

 The electronic state is 1-A.
 Alpha  occ. eigenvalues --  -11.21603 -11.21593 -11.21585 -11.21544 -11.21381
 Alpha  occ. eigenvalues --  -11.21371 -11.21322 -11.21298 -11.21103 -11.21100
 Alpha  occ. eigenvalues --  -11.21066 -11.21062  -1.08441  -1.08388  -1.03564
 Alpha  occ. eigenvalues --   -1.03495  -0.95986  -0.95973  -0.87001  -0.86990
 Alpha  occ. eigenvalues --   -0.79703  -0.79507  -0.78362  -0.78073  -0.65103
 Alpha  occ. eigenvalues --   -0.65001  -0.61068  -0.60817  -0.59429  -0.59262
 Alpha  occ. eigenvalues --   -0.57605  -0.57576  -0.55336  -0.55200  -0.52687
 Alpha  occ. eigenvalues --   -0.52666  -0.52420  -0.52399  -0.49988  -0.49866
 Alpha  occ. eigenvalues --   -0.48168  -0.47778  -0.46774  -0.46460  -0.46063
 Alpha  occ. eigenvalues --   -0.45731  -0.45667  -0.45246  -0.43781  -0.43763
 Alpha virt. eigenvalues --    0.21084   0.23072   0.23531   0.24406   0.25926
 Alpha virt. eigenvalues --    0.26451   0.26640   0.27825   0.28222   0.29569
 Alpha virt. eigenvalues --    0.30687   0.31439   0.31641   0.31808   0.32065

 Mulliken charges:
               1
     1  C   -0.303561
     2  C   -0.299426
     3  C   -0.480382
     4  H    0.149409
     5  H    0.156746
     6  H    0.151875
     7  H    0.151700
     8  H    0.159694
     9  H    0.154533
    10  H    0.160581
    11  C   -0.298150
    12  C   -0.299585
    13  C   -0.475667
    14  H    0.149361
    15  H    0.149341
    16  H    0.152020
    17  H    0.151589
    18  H    0.155140
    19  H    0.155220
    20  H    0.160123
    21  C   -0.298410
    22  C   -0.299650
    23  C   -0.475675
    24  H    0.149930
    25  H    0.149652
    26  H    0.151941
    27  H    0.151879
    28  H    0.155126
    29  H    0.155049
    30  H    0.160211
    31  C   -0.297568
    32  C   -0.309185
    33  C   -0.476573
    34  H    0.149404
    35  H    0.149323
    36  H    0.161725
    37  H    0.152023
    38  H    0.155632
    39  H    0.155353
    40  H    0.159250
 Sum of Mulliken charges =  -0.00000

 Dipole moment (field-independent basis, Debye):
    X=             -0.0030    Y=              0.0045    Z=             -0.0067  Tot=              0.0086
 Quadrupole moment (field-independent basis, Debye-Ang):
   XX=            -85.6650   YY=            -85.1187   ZZ=            -84.1438
   XY=              0.2967   XZ=             -0.4560   YZ=             -0.4145

 Normal termination of Gaussian 16 at Thu May  6 05:25:29 2021.
