 Gaussian 16, Revision A.03,
 Gaussian 16:  EM64L-G16RevA.03 25-Dec-2016

 -------------
 #p 6-31g* mp2
 -------------

 ------------------------------------------------------
 Input file generated by CHIRIPA (05-May-2021 14:51:10)
 ------------------------------------------------------
 Symbolic Z-matrix:
 Charge =  0 Multiplicity = 1

                         Standard orientation:
 ---------------------------------------------------------------------
 Center     Atomic      Atomic             Coordinates (Angstroms)
 Number     Number       Type             X           Y           Z
 ---------------------------------------------------------------------
      1          6           0        3.208077   -0.400899    0.020063
      2          6           0        3.059506   -1.672396   -0.816124
      3          6           0        1.801165   -2.466950   -0.465333
      4          1           0        3.227736   -0.670207    1.084972
      5          1           0        2.321404    0.231428   -0.126118
      6          1           0        3.946826   -2.301502   -0.669483
      7          1           0        3.040391   -1.400047   -1.879175
      8          1           0        0.904493   -1.860529   -0.629146
      9          1           0        1.816078   -2.767107    0.587418
     10          1           0        1.714784   -3.371828   -1.074918
     11          6           0        4.461298    0.404195   -0.319037
     12          6           0        4.609869    1.675692    0.517149
     13          6           0        5.868210    2.470246    0.166358
     14          1           0        5.347971   -0.228132   -0.172856
     15          1           0        4.441639    0.673503   -1.383947
     16          1           0        4.628984    1.403343    1.580200
     17          1           0        3.722549    2.304798    0.370509
     18          1           0        5.853296    2.770403   -0.886393
     19          1           0        6.764882    1.863825    0.330172
     20          1           0        5.954591    3.375124    0.775943
     21          6           0       -3.546483   -0.706632    0.091449
     22          6           0       -2.217110   -0.880672    0.826610
     23          6           0       -1.653176   -2.296319    0.701251
     24          1           0       -4.273933   -1.428953    0.486435
     25          1           0       -3.405589   -0.953535   -0.969958
     26          1           0       -2.360149   -0.632180    1.886048
     27          1           0       -1.492797   -0.157723    0.429959
     28          1           0       -1.482153   -2.551209   -0.349647
     29          1           0       -2.354433   -3.028362    1.114714
     30          1           0       -0.702679   -2.398477    1.234147
     31          6           0       -4.122891    0.703336    0.207526
     32          6           0       -5.452264    0.877376   -0.527635
     33          6           0       -6.016199    2.293023   -0.402276
     34          1           0       -4.263786    0.950239    1.268932
     35          1           0       -3.395442    1.425657   -0.187460
     36          1           0       -6.176577    0.154426   -0.130985
     37          1           0       -5.309225    0.628884   -1.587073
     38          1           0       -5.314941    3.025066   -0.815740
     39          1           0       -6.187221    2.547913    0.648621
     40          1           0       -6.966696    2.395182   -0.935173
 ---------------------------------------------------------------------

 SCF Done:  E(RHF) =  -470.732102035     A.U. after   11 cycles
 E2 =    -0.1583039156D+01 EUMP2 =    -0.47231514119062D+03

 The electronic state is 1-A.
 Alpha  occ. eigenvalues --  -11.21599 -11.21594 -11.21569 -11.21554 -11.21399
 Alpha  occ. eigenvalues --  -11.21388 -11.21340 -11.21328 -11.21070 -11.21067
 Alpha  occ. eigenvalues --  -11.20968 -11.20905  -1.08427  -1.08399  -1.03556
 Alpha  occ. eigenvalues --   -1.03454  -0.96060  -0.95848  -0.87128  -0.86815
 Alpha  occ. eigenvalues --   -0.79683  -0.79456  -0.78238  -0.78216  -0.65094
 Alpha  occ. eigenvalues --   -0.65005  -0.61058  -0.60778  -0.59405  -0.59281
 Alpha  occ. eigenvalues --   -0.57723  -0.57400  -0.55469  -0.55042  -0.52906
 Alpha  occ. eigenvalues --   -0.52633  -0.52381  -0.52088  -0.50086  -0.49686
 Alpha  occ. eigenvalues --   -0.47944  -0.47773  -0.46670  -0.46511  -0.45785
 Alpha  occ. eigenvalues --   -0.45754  -0.45691  -0.45673  -0.43785  -0.43693
 Alpha virt. eigenvalues --    0.21687   0.23086   0.23569   0.25034   0.26007
 Alpha virt. eigenvalues --    0.26670   0.27171   0.27298   0.27870   0.29041
 Alpha virt. eigenvalues --    0.29824   0.31350   0.31561   0.32035   0.32395

 Mulliken charges:
               1
     1  C   -0.298139
     2  C   -0.300307
     3  C   -0.477935
     4  H    0.149387
     5  H    0.148933
     6  H    0.151442
     7  H    0.151360
     8  H    0.162350
     9  H    0.154174
    10  H    0.159616
    11  C   -0.298176
    12  C   -0.299618
    13  C   -0.475699
    14  H    0.149603
    15  H    0.149554
    16  H    0.151950
    17  H    0.151833
    18  H    0.155134
    19  H    0.155196
    20  H    0.160246
    21  C   -0.298177
    22  C   -0.301469
    23  C   -0.479114
    24  H    0.149855
    25  H    0.149272
    26  H    0.152015
    27  H    0.151150
    28  H    0.155569
    29  H    0.154418
    30  H    0.165893
    31  C   -0.298164
    32  C   -0.299619
    33  C   -0.475677
    34  H    0.149552
    35  H    0.149288
    36  H    0.151983
    37  H    0.151836
    38  H    0.155071
    39  H    0.155193
    40  H    0.160223
 Sum of Mulliken charges =  -0.00000

 Dipole moment (field-independent basis, Debye):
    X=              0.0015    Y=             -0.0230    Z=              0.0057  Tot=              0.0238
 Quadrupole moment (field-independent basis, Debye-Ang):
   XX=            -85.4965   YY=            -85.8536   ZZ=            -83.5857
   XY=             -0.2038   XZ=              0.0931   YZ=             -0.5299

 Normal termination of Gaussian 16 at Thu May  6 00:37:17 2021.
