 Gaussian 16, Revision A.03,
 Gaussian 16:  EM64L-G16RevA.03 25-Dec-2016

 -------------
 #p 6-31g* mp2
 -------------

 ------------------------------------------------------
 Input file generated by CHIRIPA (05-May-2021 14:53:16)
 ------------------------------------------------------
 Symbolic Z-matrix:
 Charge =  0 Multiplicity = 1

                         Standard orientation:
 ---------------------------------------------------------------------
 Center     Atomic      Atomic             Coordinates (Angstroms)
 Number     Number       Type             X           Y           Z
 ---------------------------------------------------------------------
      1          6           0       -2.780560   -0.554100   -0.420205
      2          6           0       -1.957848   -1.810385   -0.132322
      3          6           0       -0.519766   -1.704636   -0.640782
      4          1           0       -2.785717   -0.366984   -1.502751
      5          1           0       -2.289165    0.311985    0.044362
      6          1           0       -2.451384   -2.674056   -0.596124
      7          1           0       -1.954809   -1.994641    0.949647
      8          1           0       -0.005451   -0.861056   -0.169132
      9          1           0       -0.504847   -1.544332   -1.723686
     10          1           0        0.050386   -2.613480   -0.424476
     11          6           0       -4.220426   -0.644580    0.082117
     12          6           0       -5.043138    0.611705   -0.205766
     13          6           0       -6.481220    0.505956    0.302694
     14          1           0       -4.711821   -1.510665   -0.382450
     15          1           0       -4.215270   -0.831696    1.164663
     16          1           0       -5.046177    0.795961   -1.287735
     17          1           0       -4.549603    1.475376    0.258036
     18          1           0       -6.496139    0.345651    1.385598
     19          1           0       -6.995535   -0.337624   -0.168957
     20          1           0       -7.051373    1.414800    0.086388
     21          6           0        0.939879    2.239146    0.222595
     22          6           0        1.084913    1.334787    1.279770
     23          6           0        2.075933    0.349458    1.240334
     24          6           0        2.908283    0.297029    0.123313
     25          6           0        2.788798    1.183723   -0.945699
     26          6           0        1.790784    2.160865   -0.884813
     27          1           0        0.167314    3.001394    0.261561
     28          1           0        0.425516    1.393216    2.141064
     29          1           0        2.210289   -0.363321    2.044891
     30          1           0        3.461155    1.100564   -1.790945
     31          1           0        1.680461    2.861876   -1.707284
     32          7           0        3.961134   -0.741761    0.070211
     33          8           0        4.681740   -0.766917   -0.925144
     34          8           0        4.045815   -1.511139    1.024949
 ---------------------------------------------------------------------

 SCF Done:  E(RHF) =  -669.534479274     A.U. after   15 cycles
 E2 =    -0.2093572374D+01 EUMP2 =    -0.67162805164775D+03

 The electronic state is 1-A.
 Alpha  occ. eigenvalues --  -20.60797 -20.60792 -15.85852 -11.31252 -11.27844
 Alpha  occ. eigenvalues --  -11.27817 -11.27604 -11.26859 -11.26847 -11.22028
 Alpha  occ. eigenvalues --  -11.21783 -11.21745 -11.21694 -11.21435 -11.20904
 Alpha  occ. eigenvalues --   -1.59870  -1.39423  -1.19459  -1.08834  -1.08743
 Alpha  occ. eigenvalues --   -1.04870  -1.03773  -0.96214  -0.95656  -0.87230
 Alpha  occ. eigenvalues --   -0.86248  -0.82489  -0.79856  -0.78570  -0.77527
 Alpha  occ. eigenvalues --   -0.72072  -0.71193  -0.70548  -0.65396  -0.65098
 Alpha  occ. eigenvalues --   -0.64852  -0.62199  -0.61214  -0.59589  -0.57848
 Alpha  occ. eigenvalues --   -0.55639  -0.55351  -0.53449  -0.52943  -0.52871
 Alpha  occ. eigenvalues --   -0.52397  -0.50083  -0.48833  -0.48823  -0.48115
 Alpha  occ. eigenvalues --   -0.46877  -0.46083  -0.46032  -0.44820  -0.44047
 Alpha  occ. eigenvalues --   -0.37427  -0.36386
 Alpha virt. eigenvalues --    0.04995   0.11113   0.16456   0.21024   0.22673
 Alpha virt. eigenvalues --    0.24167   0.26106   0.26948   0.27459   0.27798
 Alpha virt. eigenvalues --    0.28528   0.30859   0.31276   0.31632   0.31887

 Mulliken charges:
               1
     1  C   -0.296835
     2  C   -0.298833
     3  C   -0.486603
     4  H    0.149965
     5  H    0.141782
     6  H    0.153260
     7  H    0.148929
     8  H    0.165715
     9  H    0.153625
    10  H    0.163189
    11  C   -0.298266
    12  C   -0.298879
    13  C   -0.475712
    14  H    0.151728
    15  H    0.148791
    16  H    0.152312
    17  H    0.147328
    18  H    0.155211
    19  H    0.156816
    20  H    0.160286
    21  C   -0.169035
    22  C   -0.220593
    23  C   -0.175611
    24  C    0.164631
    25  C   -0.170506
    26  C   -0.217454
    27  H    0.226488
    28  H    0.224103
    29  H    0.276214
    30  H    0.276205
    31  H    0.224135
    32  N    0.488198
    33  O   -0.460231
    34  O   -0.460353
 Sum of Mulliken charges =  -0.00000

 Dipole moment (field-independent basis, Debye):
    X=             -3.6108    Y=              3.6775    Z=              0.1626  Tot=              5.1563
 Quadrupole moment (field-independent basis, Debye-Ang):
   XX=           -117.6118   YY=            -92.4475   ZZ=            -90.1477
   XY=             10.4590   XZ=             -0.8057   YZ=             -0.9753

 Normal termination of Gaussian 16 at Thu May  6 17:14:00 2021.
