 Gaussian 16, Revision A.03,
 Gaussian 16:  EM64L-G16RevA.03 25-Dec-2016

 -------------
 #p 6-31g* mp2
 -------------

 ------------------------------------------------------
 Input file generated by CHIRIPA (05-May-2021 14:57:26)
 ------------------------------------------------------
 Symbolic Z-matrix:
 Charge =  0 Multiplicity = 1

                         Standard orientation:
 ---------------------------------------------------------------------
 Center     Atomic      Atomic             Coordinates (Angstroms)
 Number     Number       Type             X           Y           Z
 ---------------------------------------------------------------------
      1          6           0       -3.040432   -0.000458    0.679438
      2          6           0       -2.147626    0.379052    1.687104
      3          6           0       -1.027051    1.158960    1.386104
      4          6           0       -0.829065    1.543398    0.060849
      5          6           0       -1.700399    1.181294   -0.965283
      6          6           0       -2.814368    0.401167   -0.641211
      7          1           0       -3.908356   -0.606395    0.922223
      8          1           0       -2.320671    0.068598    2.713612
      9          1           0       -0.319820    1.466892    2.146643
     10          1           0       -1.501345    1.506082   -1.979339
     11          1           0       -3.506051    0.107915   -1.425828
     12          7           0        0.353741    2.369168   -0.270018
     13          8           0        0.505748    2.694931   -1.445352
     14          8           0        1.106421    2.675008    0.652246
     15          6           0        3.103160   -0.103314    0.469992
     16          6           0        2.407888   -0.796428    1.466340
     17          6           0        1.254686   -1.522232    1.153477
     18          6           0        0.823001   -1.533365   -0.171972
     19          6           0        1.493900   -0.852989   -1.186995
     20          6           0        2.644754   -0.133753   -0.851166
     21          1           0        3.998083    0.457957    0.721951
     22          1           0        2.761576   -0.774564    2.493215
     23          1           0        0.697179   -2.067810    1.905107
     24          1           0        1.116929   -0.893489   -2.201722
     25          1           0        3.182694    0.403587   -1.627010
     26          7           0       -0.396600   -2.298265   -0.515342
     27          8           0       -0.756317   -2.292283   -1.690588
     28          8           0       -0.969713   -2.889293    0.397272
 ---------------------------------------------------------------------

 SCF Done:  E(RHF) =  -868.338238880     A.U. after   16 cycles
 E2 =    -0.2610606198D+01 EUMP2 =    -0.87094884507768D+03

 The electronic state is 1-A.
 Alpha  occ. eigenvalues --  -20.60874 -20.60854 -20.60837 -20.60830 -15.85857
 Alpha  occ. eigenvalues --  -15.85835 -11.30848 -11.30842 -11.27489 -11.27427
 Alpha  occ. eigenvalues --  -11.27387 -11.27385 -11.27042 -11.27012 -11.26402
 Alpha  occ. eigenvalues --  -11.26361 -11.26247 -11.26223  -1.59924  -1.59887
 Alpha  occ. eigenvalues --   -1.39496  -1.39460  -1.19182  -1.18939  -1.08506
 Alpha  occ. eigenvalues --   -1.08419  -1.04494  -1.04327  -0.95392  -0.95342
 Alpha  occ. eigenvalues --   -0.85832  -0.85740  -0.82244  -0.82209  -0.77379
 Alpha  occ. eigenvalues --   -0.77282  -0.72142  -0.72112  -0.71496  -0.71038
 Alpha  occ. eigenvalues --   -0.70122  -0.70075  -0.64684  -0.64665  -0.64405
 Alpha  occ. eigenvalues --   -0.64324  -0.61811  -0.61710  -0.54849  -0.54829
 Alpha  occ. eigenvalues --   -0.53380  -0.52478  -0.52446  -0.52077  -0.48912
 Alpha  occ. eigenvalues --   -0.48881  -0.48856  -0.48817  -0.45099  -0.44965
 Alpha  occ. eigenvalues --   -0.37714  -0.36706  -0.35965  -0.35249
 Alpha virt. eigenvalues --    0.05006   0.05348   0.11035   0.12259   0.16443
 Alpha virt. eigenvalues --    0.17194   0.21506   0.22232   0.27197   0.28213
 Alpha virt. eigenvalues --    0.28518   0.28947   0.31211   0.31567   0.32552

 Mulliken charges:
               1
     1  C   -0.162336
     2  C   -0.219221
     3  C   -0.173091
     4  C    0.156301
     5  C   -0.175246
     6  C   -0.213199
     7  H    0.230961
     8  H    0.221743
     9  H    0.269489
    10  H    0.273383
    11  H    0.229262
    12  N    0.491569
    13  O   -0.466407
    14  O   -0.464071
    15  C   -0.154508
    16  C   -0.221454
    17  C   -0.173961
    18  C    0.162660
    19  C   -0.181717
    20  C   -0.218799
    21  H    0.230718
    22  H    0.221212
    23  H    0.269083
    24  H    0.274497
    25  H    0.232388
    26  N    0.491040
    27  O   -0.464430
    28  O   -0.465866
 Sum of Mulliken charges =  -0.00000

 Dipole moment (field-independent basis, Debye):
    X=              0.1372    Y=             -0.1962    Z=              2.2882  Tot=              2.3007
 Quadrupole moment (field-independent basis, Debye-Ang):
   XX=            -89.7759   YY=           -124.2043   ZZ=            -96.2030
   XY=             -7.7638   XZ=             -0.0020   YZ=             -2.2782

 Normal termination of Gaussian 16 at Wed May  5 19:37:48 2021.
