 Gaussian 16, Revision A.03,
 Gaussian 16:  EM64L-G16RevA.03 25-Dec-2016

 -------------
 #p 6-31g* mp2
 -------------

 ------------------------------------------------------
 Input file generated by CHIRIPA (05-May-2021 14:55:25)
 ------------------------------------------------------
 Symbolic Z-matrix:
 Charge =  0 Multiplicity = 1

                         Standard orientation:
 ---------------------------------------------------------------------
 Center     Atomic      Atomic             Coordinates (Angstroms)
 Number     Number       Type             X           Y           Z
 ---------------------------------------------------------------------
      1          6           0       -5.199319    0.662623   -0.403124
      2          6           0       -4.591677    1.035037    0.800454
      3          6           0       -3.268287    0.673300    1.069403
      4          6           0       -2.578908   -0.064258    0.108126
      5          6           0       -3.156644   -0.450329   -1.100369
      6          6           0       -4.481130   -0.077567   -1.348028
      7          1           0       -6.227786    0.947911   -0.603780
      8          1           0       -5.147012    1.609886    1.536115
      9          1           0       -2.773454    0.948353    1.992931
     10          1           0       -2.577554   -1.023280   -1.814372
     11          1           0       -4.950473   -0.368178   -2.283606
     12          7           0       -1.177314   -0.453049    0.381580
     13          8           0       -0.591503   -1.102912   -0.481635
     14          8           0       -0.691096   -0.100558    1.453951
     15          6           0        3.105901   -0.555769    0.102125
     16          6           0        3.672416   -1.959603   -0.113041
     17          6           0        2.678816   -3.061190    0.257170
     18          1           0        2.808115   -0.444656    1.153754
     19          1           0        2.190950   -0.441581   -0.495555
     20          1           0        4.586788   -2.070636    0.483795
     21          1           0        3.969065   -2.067323   -1.164237
     22          1           0        1.769514   -2.978760   -0.346964
     23          1           0        2.390746   -2.982092    1.310431
     24          1           0        3.104359   -4.056524    0.095664
     25          6           0        4.087461    0.556233   -0.263551
     26          6           0        3.520946    1.960066   -0.048385
     27          6           0        4.514547    3.061654   -0.418596
     28          1           0        5.002412    0.442045    0.334129
     29          1           0        4.385247    0.445119   -1.315180
     30          1           0        3.224297    2.067786    1.002810
     31          1           0        2.606575    2.071099   -0.645221
     32          1           0        4.802616    2.982555   -1.471858
     33          1           0        5.423849    2.979222    0.185537
     34          1           0        4.089003    4.056987   -0.257090
 ---------------------------------------------------------------------

 SCF Done:  E(RHF) =  -669.536423562     A.U. after   15 cycles
 E2 =    -0.2092133485D+01 EUMP2 =    -0.67162855704705D+03

 The electronic state is 1-A.
 Alpha  occ. eigenvalues --  -20.61081 -20.61075 -15.86090 -11.31375 -11.27930
 Alpha  occ. eigenvalues --  -11.27925 -11.27658 -11.26926 -11.26916 -11.20470
 Alpha  occ. eigenvalues --  -11.20215 -11.20022 -11.19998 -11.19397 -11.19257
 Alpha  occ. eigenvalues --   -1.60117  -1.39678  -1.19535  -1.08946  -1.06930
 Alpha  occ. eigenvalues --   -1.04925  -1.02124  -0.95794  -0.94559  -0.86327
 Alpha  occ. eigenvalues --   -0.85575  -0.82633  -0.78235  -0.77689  -0.76635
 Alpha  occ. eigenvalues --   -0.72309  -0.71425  -0.70643  -0.65192  -0.64927
 Alpha  occ. eigenvalues --   -0.63577  -0.62272  -0.59537  -0.57978  -0.56153
 Alpha  occ. eigenvalues --   -0.55430  -0.53847  -0.53258  -0.53016  -0.51340
 Alpha  occ. eigenvalues --   -0.50956  -0.49154  -0.49058  -0.48486  -0.46508
 Alpha  occ. eigenvalues --   -0.45282  -0.45101  -0.44172  -0.43954  -0.42339
 Alpha  occ. eigenvalues --   -0.37510  -0.36523
 Alpha virt. eigenvalues --    0.04815   0.11133   0.16318   0.21264   0.24249
 Alpha virt. eigenvalues --    0.25739   0.27193   0.28035   0.28240   0.29070
 Alpha virt. eigenvalues --    0.29362   0.30865   0.32328   0.32779   0.32896

 Mulliken charges:
               1
     1  C   -0.170409
     2  C   -0.218594
     3  C   -0.170455
     4  C    0.158150
     5  C   -0.170683
     6  C   -0.218540
     7  H    0.226301
     8  H    0.224125
     9  H    0.276053
    10  H    0.275666
    11  H    0.224085
    12  N    0.489934
    13  O   -0.460618
    14  O   -0.457292
    15  C   -0.303922
    16  C   -0.298462
    17  C   -0.478009
    18  H    0.154911
    19  H    0.169578
    20  H    0.144073
    21  H    0.144923
    22  H    0.172120
    23  H    0.154763
    24  H    0.148445
    25  C   -0.297900
    26  C   -0.297389
    27  C   -0.474689
    28  H    0.144095
    29  H    0.144232
    30  H    0.153438
    31  H    0.150344
    32  H    0.152550
    33  H    0.153263
    34  H    0.155916
 Sum of Mulliken charges =  -0.00000

 Dipole moment (field-independent basis, Debye):
    X=             -5.4675    Y=              1.3684    Z=             -0.9072  Tot=              5.7087
 Quadrupole moment (field-independent basis, Debye-Ang):
   XX=            -71.9817   YY=            -96.3974   ZZ=            -90.3182
   XY=             -3.9098   XZ=              2.4608   YZ=              2.9629

 Normal termination of Gaussian 16 at Wed May  5 22:27:09 2021.
