 Gaussian 16, Revision A.03,
 Gaussian 16:  EM64L-G16RevA.03 25-Dec-2016

 -------------
 #p 6-31g* mp2
 -------------

 ------------------------------------------------------
 Input file generated by CHIRIPA (05-May-2021 14:57:21)
 ------------------------------------------------------
 Symbolic Z-matrix:
 Charge =  0 Multiplicity = 1

                         Standard orientation:
 ---------------------------------------------------------------------
 Center     Atomic      Atomic             Coordinates (Angstroms)
 Number     Number       Type             X           Y           Z
 ---------------------------------------------------------------------
      1          6           0       -6.673130    0.711104    0.038152
      2          6           0       -5.665252    1.390137   -0.654392
      3          6           0       -4.362721    0.883461   -0.689609
      4          6           0       -4.102099   -0.310123   -0.018250
      5          6           0       -5.084715   -1.009886    0.680383
      6          6           0       -6.380161   -0.484632    0.702158
      7          1           0       -7.682216    1.111918    0.060288
      8          1           0       -5.889883    2.318969   -1.170974
      9          1           0       -3.563433    1.388652   -1.218134
     10          1           0       -4.830316   -1.933607    1.185793
     11          1           0       -7.160899   -1.014126    1.240795
     12          7           0       -2.726918   -0.856352   -0.048417
     13          8           0       -2.523038   -1.909746    0.551109
     14          8           0       -1.878970   -0.220750   -0.671018
     15          6           0        2.174582    1.529532    0.117628
     16          6           0        2.194617    0.260561   -0.470449
     17          6           0        3.382482   -0.473951   -0.533808
     18          6           0        4.537002    0.093507    0.003189
     19          6           0        4.549159    1.355363    0.595524
     20          6           0        3.349845    2.071926    0.647803
     21          1           0        1.247373    2.093147    0.162543
     22          1           0        1.283411   -0.163172   -0.883002
     23          1           0        3.426331   -1.458507   -0.983413
     24          1           0        5.473500    1.751393    0.998229
     25          1           0        3.337257    3.057199    1.105105
     26          7           0        5.800602   -0.674588   -0.058021
     27          8           0        6.804221   -0.152394    0.422292
     28          8           0        5.763466   -1.784268   -0.585151
 ---------------------------------------------------------------------

 SCF Done:  E(RHF) =  -868.340288543     A.U. after   16 cycles
 E2 =    -0.2598267349D+01 EUMP2 =    -0.87093855589279D+03

 The electronic state is 1-A.
 Alpha  occ. eigenvalues --  -20.61823 -20.61781 -20.59983 -20.59971 -15.86827
 Alpha  occ. eigenvalues --  -15.85022 -11.31938 -11.30214 -11.28495 -11.28449
 Alpha  occ. eigenvalues --  -11.28156 -11.27434 -11.27406 -11.26795 -11.26652
 Alpha  occ. eigenvalues --  -11.26391 -11.25808 -11.25472  -1.60857  -1.59058
 Alpha  occ. eigenvalues --   -1.40420  -1.38616  -1.20081  -1.18341  -1.09522
 Alpha  occ. eigenvalues --   -1.07762  -1.05446  -1.03697  -0.96401  -0.94637
 Alpha  occ. eigenvalues --   -0.86855  -0.85092  -0.83245  -0.81464  -0.78321
 Alpha  occ. eigenvalues --   -0.76540  -0.73064  -0.72156  -0.71246  -0.71183
 Alpha  occ. eigenvalues --   -0.70378  -0.69444  -0.65738  -0.65443  -0.63979
 Alpha  occ. eigenvalues --   -0.63646  -0.62797  -0.61026  -0.55948  -0.54192
 Alpha  occ. eigenvalues --   -0.53787  -0.53533  -0.52065  -0.51755  -0.49822
 Alpha  occ. eigenvalues --   -0.49776  -0.48012  -0.47982  -0.45880  -0.44061
 Alpha  occ. eigenvalues --   -0.38041  -0.37037  -0.36317  -0.35301
 Alpha virt. eigenvalues --    0.04198   0.05952   0.10622   0.12354   0.15747
 Alpha virt. eigenvalues --    0.17508   0.20782   0.22571   0.26717   0.27612
 Alpha virt. eigenvalues --    0.28590   0.29300   0.30409   0.31864   0.32197

 Mulliken charges:
               1
     1  C   -0.169813
     2  C   -0.218407
     3  C   -0.170994
     4  C    0.157787
     5  C   -0.170114
     6  C   -0.218464
     7  H    0.228087
     8  H    0.224995
     9  H    0.273171
    10  H    0.277283
    11  H    0.226026
    12  N    0.490957
    13  O   -0.454912
    14  O   -0.472631
    15  C   -0.172769
    16  C   -0.224545
    17  C   -0.173137
    18  C    0.158280
    19  C   -0.173407
    20  C   -0.218933
    21  H    0.225706
    22  H    0.247634
    23  H    0.275051
    24  H    0.271775
    25  H    0.218542
    26  N    0.488106
    27  O   -0.463779
    28  O   -0.461495
 Sum of Mulliken charges =  -0.00000

 Dipole moment (field-independent basis, Debye):
    X=             -9.9340    Y=              4.5003    Z=              0.3116  Tot=             10.9103
 Quadrupole moment (field-independent basis, Debye-Ang):
   XX=           -105.0911   YY=           -100.4037   ZZ=           -103.5040
   XY=              8.5144   XZ=              0.5216   YZ=             -0.7224

 Normal termination of Gaussian 16 at Thu May  6 12:49:16 2021.
