 Gaussian 16, Revision A.03,
 Gaussian 16:  EM64L-G16RevA.03 25-Dec-2016

 -------------
 #p 6-31g* mp2
 -------------

 ------------------------------------------------------
 Input file generated by CHIRIPA (05-May-2021 14:55:18)
 ------------------------------------------------------
 Symbolic Z-matrix:
 Charge =  0 Multiplicity = 1

                         Standard orientation:
 ---------------------------------------------------------------------
 Center     Atomic      Atomic             Coordinates (Angstroms)
 Number     Number       Type             X           Y           Z
 ---------------------------------------------------------------------
      1          6           0        0.500345   -2.457778    1.145528
      2          6           0        0.636104   -1.267882    1.868190
      3          6           0        1.346475   -0.189241    1.332977
      4          6           0        1.910688   -0.335678    0.066679
      5          6           0        1.792920   -1.508270   -0.677935
      6          6           0        1.078168   -2.573969   -0.122991
      7          1           0       -0.053190   -3.290666    1.568958
      8          1           0        0.188422   -1.174810    2.853564
      9          1           0        1.467010    0.743346    1.870723
     10          1           0        2.250387   -1.571156   -1.657826
     11          1           0        0.974354   -3.496862   -0.686495
     12          7           0        2.665045    0.799381   -0.510371
     13          8           0        3.152665    0.645132   -1.627990
     14          8           0        2.754406    1.821796    0.165882
     15          6           0       -2.170192    1.245252    0.280736
     16          6           0       -1.728177    2.539248   -0.403501
     17          6           0       -1.499402    3.682610    0.585528
     18          1           0       -3.093423    1.433551    0.845654
     19          1           0       -1.409017    0.948790    1.015662
     20          1           0       -2.489303    2.832436   -1.137901
     21          1           0       -0.805996    2.347799   -0.967011
     22          1           0       -0.724872    3.414838    1.311480
     23          1           0       -2.417744    3.902229    1.139619
     24          1           0       -1.184047    4.597943    0.075061
     25          6           0       -2.402890    0.092987   -0.694902
     26          6           0       -2.844906   -1.201010   -0.010665
     27          6           0       -3.073681   -2.344372   -0.999694
     28          1           0       -3.164066    0.389449   -1.429828
     29          1           0       -1.479660   -0.095313   -1.259820
     30          1           0       -3.767087   -1.009561    0.552845
     31          1           0       -2.083780   -1.494196    0.723735
     32          1           0       -2.155338   -2.563990   -1.553784
     33          1           0       -3.848211   -2.076600   -1.725646
     34          1           0       -3.389035   -3.259704   -0.489227
 ---------------------------------------------------------------------

 SCF Done:  E(RHF) =  -669.534291182     A.U. after   15 cycles
 E2 =    -0.2096530699D+01 EUMP2 =    -0.67163082188085D+03

 The electronic state is 1-A.
 Alpha  occ. eigenvalues --  -20.60933 -20.60924 -15.85985 -11.31393 -11.27978
 Alpha  occ. eigenvalues --  -11.27968 -11.27691 -11.26972 -11.26952 -11.21764
 Alpha  occ. eigenvalues --  -11.21476 -11.21444 -11.21416 -11.21326 -11.20830
 Alpha  occ. eigenvalues --   -1.60005  -1.39556  -1.19585  -1.08975  -1.08456
 Alpha  occ. eigenvalues --   -1.04988  -1.03571  -0.96041  -0.95781  -0.87056
 Alpha  occ. eigenvalues --   -0.86371  -0.82615  -0.79652  -0.78287  -0.77648
 Alpha  occ. eigenvalues --   -0.72198  -0.71334  -0.70678  -0.65228  -0.65158
 Alpha  occ. eigenvalues --   -0.64967  -0.62324  -0.60999  -0.59429  -0.57637
 Alpha  occ. eigenvalues --   -0.55470  -0.55340  -0.53291  -0.53060  -0.52717
 Alpha  occ. eigenvalues --   -0.52472  -0.49992  -0.48961  -0.48952  -0.47970
 Alpha  occ. eigenvalues --   -0.46717  -0.45800  -0.45769  -0.44943  -0.43812
 Alpha  occ. eigenvalues --   -0.37427  -0.36483
 Alpha virt. eigenvalues --    0.04829   0.10919   0.16222   0.20547   0.23004
 Alpha virt. eigenvalues --    0.23573   0.26251   0.26577   0.27675   0.27896
 Alpha virt. eigenvalues --    0.28737   0.30071   0.31234   0.31847   0.31923

 Mulliken charges:
               1
     1  C   -0.170889
     2  C   -0.217261
     3  C   -0.170627
     4  C    0.159134
     5  C   -0.172047
     6  C   -0.217307
     7  H    0.228242
     8  H    0.225658
     9  H    0.276961
    10  H    0.276743
    11  H    0.225233
    12  N    0.487844
    13  O   -0.459629
    14  O   -0.459877
    15  C   -0.301229
    16  C   -0.300651
    17  C   -0.474171
    18  H    0.147277
    19  H    0.146973
    20  H    0.151718
    21  H    0.155984
    22  H    0.154398
    23  H    0.151824
    24  H    0.164603
    25  C   -0.297710
    26  C   -0.302942
    27  C   -0.476672
    28  H    0.149963
    29  H    0.151128
    30  H    0.150094
    31  H    0.152075
    32  H    0.152104
    33  H    0.158128
    34  H    0.154929
 Sum of Mulliken charges =  -0.00000

 Dipole moment (field-independent basis, Debye):
    X=             -2.4411    Y=             -3.9742    Z=              2.0257  Tot=              5.0849
 Quadrupole moment (field-independent basis, Debye-Ang):
   XX=           -105.1010   YY=            -91.6615   ZZ=            -91.6243
   XY=             -8.0217   XZ=              2.9540   YZ=              0.7818

 Normal termination of Gaussian 16 at Thu May  6 04:28:30 2021.
