 Gaussian 16, Revision A.03,
 Gaussian 16:  EM64L-G16RevA.03 25-Dec-2016

 -------------
 #p 6-31g* mp2
 -------------

 ------------------------------------------------------
 Input file generated by CHIRIPA (05-May-2021 14:51:10)
 ------------------------------------------------------
 Symbolic Z-matrix:
 Charge =  0 Multiplicity = 1

                         Standard orientation:
 ---------------------------------------------------------------------
 Center     Atomic      Atomic             Coordinates (Angstroms)
 Number     Number       Type             X           Y           Z
 ---------------------------------------------------------------------
      1          6           0        2.819034   -0.077295   -0.892137
      2          6           0        2.796471   -1.534218   -0.428617
      3          6           0        3.249771   -2.507881   -1.516869
      4          1           0        2.173304    0.030174   -1.774423
      5          1           0        3.836619    0.181384   -1.216174
      6          1           0        1.779539   -1.789662   -0.104250
      7          1           0        3.442178   -1.638191    0.452783
      8          1           0        4.272512   -2.281143   -1.834974
      9          1           0        2.600426   -2.433475   -2.395172
     10          1           0        3.225952   -3.543671   -1.164120
     11          6           0        2.368468    0.908101    0.184763
     12          6           0        2.391031    2.365025   -0.278756
     13          6           0        1.937731    3.338688    0.809496
     14          1           0        1.350883    0.649422    0.508801
     15          1           0        3.014198    0.800633    1.067050
     16          1           0        1.745323    2.468998   -1.160157
     17          1           0        3.407963    2.620469   -0.603123
     18          1           0        2.587076    3.264281    1.687799
     19          1           0        0.914990    3.111950    1.127601
     20          1           0        1.961549    4.374478    0.456747
     21          6           0       -2.991212   -0.462269   -0.296898
     22          6           0       -3.958177    0.704288   -0.502097
     23          6           0       -4.746083    0.596325   -1.807984
     24          1           0       -2.294090   -0.505877   -1.144875
     25          1           0       -3.556578   -1.404408   -0.308283
     26          1           0       -3.391334    1.644040   -0.488945
     27          1           0       -4.652956    0.745241    0.346561
     28          1           0       -5.336313   -0.325564   -1.826703
     29          1           0       -4.067522    0.578342   -2.666956
     30          1           0       -5.431187    1.440419   -1.934462
     31          6           0       -2.196290   -0.368538    1.004272
     32          6           0       -1.229325   -1.535095    1.209470
     33          6           0       -0.441418   -1.427132    2.515357
     34          1           0       -1.630923    0.573601    1.015656
     35          1           0       -2.893412   -0.324930    1.852249
     36          1           0       -0.534545   -1.576048    0.360812
     37          1           0       -1.796168   -2.474847    1.196319
     38          1           0       -1.119979   -1.409148    3.374329
     39          1           0        0.148811   -0.505243    2.534076
     40          1           0        0.243686   -2.271226    2.641835
 ---------------------------------------------------------------------

 SCF Done:  E(RHF) =  -470.732982040     A.U. after   11 cycles
 E2 =    -0.1584296495D+01 EUMP2 =    -0.47231727853527D+03

 The electronic state is 1-A.
 Alpha  occ. eigenvalues --  -11.21649 -11.21643 -11.21638 -11.21588 -11.21464
 Alpha  occ. eigenvalues --  -11.21444 -11.21404 -11.21384 -11.21125 -11.21104
 Alpha  occ. eigenvalues --  -11.21078 -11.21052  -1.08514  -1.08439  -1.03584
 Alpha  occ. eigenvalues --   -1.03546  -0.96024  -0.96000  -0.87035  -0.87018
 Alpha  occ. eigenvalues --   -0.79692  -0.79569  -0.78314  -0.78274  -0.65380
 Alpha  occ. eigenvalues --   -0.64874  -0.61066  -0.60879  -0.59449  -0.59310
 Alpha  occ. eigenvalues --   -0.57682  -0.57562  -0.55351  -0.55256  -0.52713
 Alpha  occ. eigenvalues --   -0.52686  -0.52479  -0.52392  -0.50027  -0.49894
 Alpha  occ. eigenvalues --   -0.48001  -0.47955  -0.46911  -0.46450  -0.46062
 Alpha  occ. eigenvalues --   -0.45796  -0.45694  -0.45436  -0.43822  -0.43814
 Alpha virt. eigenvalues --    0.19434   0.23017   0.23724   0.23946   0.25994
 Alpha virt. eigenvalues --    0.26762   0.26991   0.27896   0.28084   0.29922
 Alpha virt. eigenvalues --    0.30022   0.31388   0.31635   0.31943   0.32191

 Mulliken charges:
               1
     1  C   -0.297582
     2  C   -0.308742
     3  C   -0.475201
     4  H    0.148805
     5  H    0.149878
     6  H    0.160958
     7  H    0.152230
     8  H    0.155210
     9  H    0.154839
    10  H    0.160314
    11  C   -0.305294
    12  C   -0.299352
    13  C   -0.476050
    14  H    0.155911
    15  H    0.150117
    16  H    0.151617
    17  H    0.152348
    18  H    0.155570
    19  H    0.154524
    20  H    0.160642
    21  C   -0.298210
    22  C   -0.299711
    23  C   -0.475733
    24  H    0.149173
    25  H    0.149904
    26  H    0.151865
    27  H    0.152182
    28  H    0.155305
    29  H    0.155105
    30  H    0.160456
    31  C   -0.299405
    32  C   -0.306588
    33  C   -0.478377
    34  H    0.149339
    35  H    0.150337
    36  H    0.156419
    37  H    0.152642
    38  H    0.155125
    39  H    0.158531
    40  H    0.160899
 Sum of Mulliken charges =  -0.00000

 Dipole moment (field-independent basis, Debye):
    X=              0.0011    Y=             -0.0064    Z=              0.0162  Tot=              0.0175
 Quadrupole moment (field-independent basis, Debye-Ang):
   XX=            -83.7313   YY=            -85.1861   ZZ=            -85.7277
   XY=              0.7906   XZ=             -0.3835   YZ=             -0.7515

 Normal termination of Gaussian 16 at Wed May  5 15:09:55 2021.
