 Gaussian 16, Revision A.03,
 Gaussian 16:  EM64L-G16RevA.03 25-Dec-2016

 -------------
 #p 6-31g* mp2
 -------------

 ------------------------------------------------------
 Input file generated by CHIRIPA (05-May-2021 14:57:22)
 ------------------------------------------------------
 Symbolic Z-matrix:
 Charge =  0 Multiplicity = 1

                         Standard orientation:
 ---------------------------------------------------------------------
 Center     Atomic      Atomic             Coordinates (Angstroms)
 Number     Number       Type             X           Y           Z
 ---------------------------------------------------------------------
      1          6           0       -1.556231    2.190350    1.392307
      2          6           0       -1.799881    2.274471    0.017506
      3          6           0       -1.998039    1.116648   -0.740603
      4          6           0       -1.945589   -0.114363   -0.088567
      5          6           0       -1.704863   -0.230916    1.279554
      6          6           0       -1.509582    0.940129    2.017841
      7          1           0       -1.403415    3.094910    1.973525
      8          1           0       -1.836662    3.244057   -0.470956
      9          1           0       -2.188455    1.152882   -1.806364
     10          1           0       -1.674018   -1.211691    1.738409
     11          1           0       -1.320547    0.871771    3.085379
     12          7           0       -2.153847   -1.347097   -0.880650
     13          8           0       -2.102725   -2.419594   -0.282509
     14          8           0       -2.364258   -1.217475   -2.084628
     15          6           0        2.011796    2.069816   -1.344346
     16          6           0        2.149268    0.845559   -2.006780
     17          6           0        2.095205   -0.356698   -1.295302
     18          6           0        1.901547   -0.297494    0.083930
     19          6           0        1.761201    0.906437    0.772511
     20          6           0        1.818542    2.096300    0.040743
     21          1           0        2.055067    2.998945   -1.904920
     22          1           0        2.299455    0.821956   -3.082388
     23          1           0        2.198649   -1.318441   -1.782917
     24          1           0        1.612573    0.897985    1.845476
     25          1           0        1.711467    3.045611    0.557841
     26          7           0        1.842577   -1.563710    0.847880
     27          8           0        1.671047   -1.484550    2.062355
     28          8           0        1.969002   -2.611354    0.217724
 ---------------------------------------------------------------------

 SCF Done:  E(RHF) =  -868.335052587     A.U. after   16 cycles
 E2 =    -0.2608057953D+01 EUMP2 =    -0.87094311053987D+03

 The electronic state is 1-A.
 Alpha  occ. eigenvalues --  -20.60853 -20.60776 -20.60723 -20.60658 -15.85848
 Alpha  occ. eigenvalues --  -15.85743 -11.31251 -11.31210 -11.27890 -11.27847
 Alpha  occ. eigenvalues --  -11.27728 -11.27708 -11.27638 -11.27582 -11.26956
 Alpha  occ. eigenvalues --  -11.26896 -11.26799 -11.26771  -1.59878  -1.59769
 Alpha  occ. eigenvalues --   -1.39434  -1.39314  -1.19549  -1.19315  -1.08880
 Alpha  occ. eigenvalues --   -1.08789  -1.04871  -1.04799  -0.95652  -0.95638
 Alpha  occ. eigenvalues --   -0.86321  -0.86179  -0.82514  -0.82423  -0.77560
 Alpha  occ. eigenvalues --   -0.77427  -0.72079  -0.71957  -0.71352  -0.70983
 Alpha  occ. eigenvalues --   -0.70563  -0.70556  -0.65110  -0.65063  -0.64865
 Alpha  occ. eigenvalues --   -0.64854  -0.62203  -0.62160  -0.55416  -0.55373
 Alpha  occ. eigenvalues --   -0.54301  -0.52956  -0.52920  -0.52035  -0.48852
 Alpha  occ. eigenvalues --   -0.48816  -0.48738  -0.48700  -0.44836  -0.44673
 Alpha  occ. eigenvalues --   -0.38254  -0.37548  -0.35985  -0.35868
 Alpha virt. eigenvalues --    0.04885   0.05106   0.10561   0.11836   0.16140
 Alpha virt. eigenvalues --    0.16779   0.20448   0.21950   0.26563   0.26882
 Alpha virt. eigenvalues --    0.28474   0.28599   0.30209   0.31364   0.32101

 Mulliken charges:
               1
     1  C   -0.175504
     2  C   -0.214085
     3  C   -0.167796
     4  C    0.157763
     5  C   -0.172586
     6  C   -0.223119
     7  H    0.220974
     8  H    0.218290
     9  H    0.273546
    10  H    0.287187
    11  H    0.227571
    12  N    0.486708
    13  O   -0.451601
    14  O   -0.464174
    15  C   -0.173630
    16  C   -0.218798
    17  C   -0.171530
    18  C    0.155192
    19  C   -0.161373
    20  C   -0.213070
    21  H    0.222386
    22  H    0.225138
    23  H    0.280399
    24  H    0.268422
    25  H    0.214870
    26  N    0.488309
    27  O   -0.468763
    28  O   -0.450730
 Sum of Mulliken charges =  -0.00000

 Dipole moment (field-independent basis, Debye):
    X=              0.8874    Y=              8.4307    Z=              0.0681  Tot=              8.4775
 Quadrupole moment (field-independent basis, Debye-Ang):
   XX=           -108.4512   YY=           -106.6898   ZZ=            -99.2864
   XY=             -0.8683   XZ=            -11.1525   YZ=              0.2890

 Normal termination of Gaussian 16 at Fri May  7 07:54:32 2021.
