 Gaussian 16, Revision A.03,
 Gaussian 16:  EM64L-G16RevA.03 25-Dec-2016

 -------------
 #p 6-31g* mp2
 -------------

 ------------------------------------------------------
 Input file generated by CHIRIPA (05-May-2021 14:53:18)
 ------------------------------------------------------
 Symbolic Z-matrix:
 Charge =  0 Multiplicity = 1

                         Standard orientation:
 ---------------------------------------------------------------------
 Center     Atomic      Atomic             Coordinates (Angstroms)
 Number     Number       Type             X           Y           Z
 ---------------------------------------------------------------------
      1          6           0       -4.699252   -0.306361    0.006066
      2          6           0       -4.562934   -1.709201   -0.586761
      3          6           0       -5.783701   -2.588031   -0.312574
      4          1           0       -4.858629   -0.387182    1.090045
      5          1           0       -5.597542    0.173015   -0.407055
      6          1           0       -3.664406   -2.185270   -0.173696
      7          1           0       -4.403672   -1.625025   -1.669427
      8          1           0       -6.685909   -2.138232   -0.739543
      9          1           0       -5.942444   -2.701661    0.764687
     10          1           0       -5.665004   -3.586345   -0.745171
     11          6           0       -3.486732    0.584085   -0.259694
     12          6           0       -3.623050    1.986925    0.333133
     13          6           0       -2.402283    2.865755    0.058945
     14          1           0       -2.588442    0.104709    0.153426
     15          1           0       -3.327356    0.664906   -1.343674
     16          1           0       -3.782312    1.902749    1.415799
     17          1           0       -4.521578    2.462994   -0.079932
     18          1           0       -2.243541    2.979385   -1.018316
     19          1           0       -1.500075    2.415956    0.485914
     20          1           0       -2.520980    3.864069    0.491542
     21          6           0        5.523701   -0.765450   -0.624672
     22          6           0        4.831796    0.234581   -1.315850
     23          6           0        3.542504    0.606699   -0.923671
     24          6           0        2.972776   -0.044973    0.169043
     25          6           0        3.636563   -1.045036    0.877951
     26          6           0        4.924932   -1.400947    0.468095
     27          1           0        6.524895   -1.048226   -0.936191
     28          1           0        5.294326    0.729828   -2.164873
     29          1           0        2.984288    1.377618   -1.440871
     30          1           0        3.149333   -1.520683    1.720439
     31          1           0        5.459909   -2.177928    1.006747
     32          7           0        1.608349    0.340393    0.593582
     33          8           0        1.128502   -0.248961    1.559524
     34          8           0        1.044595    1.224500   -0.047647
 ---------------------------------------------------------------------

 SCF Done:  E(RHF) =  -669.536502415     A.U. after   15 cycles
 E2 =    -0.2091066405D+01 EUMP2 =    -0.67162756882015D+03

 The electronic state is 1-A.
 Alpha  occ. eigenvalues --  -20.61052 -20.61023 -15.86053 -11.31341 -11.27899
 Alpha  occ. eigenvalues --  -11.27893 -11.27631 -11.26898 -11.26887 -11.20753
 Alpha  occ. eigenvalues --  -11.20394 -11.20349 -11.20201 -11.20008 -11.19240
 Alpha  occ. eigenvalues --   -1.60092  -1.39648  -1.19505  -1.08917  -1.07266
 Alpha  occ. eigenvalues --   -1.04895  -1.02344  -0.95765  -0.94776  -0.86297
 Alpha  occ. eigenvalues --   -0.85790  -0.82597  -0.78453  -0.77655  -0.77025
 Alpha  occ. eigenvalues --   -0.72271  -0.71398  -0.70613  -0.65160  -0.64898
 Alpha  occ. eigenvalues --   -0.63900  -0.62242  -0.59741  -0.58217  -0.56382
 Alpha  occ. eigenvalues --   -0.55403  -0.54051  -0.53229  -0.52986  -0.51511
 Alpha  occ. eigenvalues --   -0.51195  -0.49163  -0.49033  -0.48580  -0.46712
 Alpha  occ. eigenvalues --   -0.45475  -0.45065  -0.44584  -0.44413  -0.42607
 Alpha  occ. eigenvalues --   -0.37483  -0.36494
 Alpha virt. eigenvalues --    0.04873   0.11162   0.16381   0.21300   0.23970
 Alpha virt. eigenvalues --    0.25556   0.27221   0.27803   0.28177   0.28655
 Alpha virt. eigenvalues --    0.29268   0.30875   0.32392   0.32639   0.32766

 Mulliken charges:
               1
     1  C   -0.297424
     2  C   -0.299058
     3  C   -0.474975
     4  H    0.148726
     5  H    0.145719
     6  H    0.153371
     7  H    0.149559
     8  H    0.153447
     9  H    0.154527
    10  H    0.157159
    11  C   -0.299968
    12  C   -0.298158
    13  C   -0.485186
    14  H    0.162503
    15  H    0.145499
    16  H    0.149499
    17  H    0.144393
    18  H    0.148675
    19  H    0.185892
    20  H    0.150422
    21  C   -0.170447
    22  C   -0.218577
    23  C   -0.170717
    24  C    0.157670
    25  C   -0.170529
    26  C   -0.218616
    27  H    0.226175
    28  H    0.224052
    29  H    0.276261
    30  H    0.275845
    31  H    0.223956
    32  N    0.489528
    33  O   -0.460107
    34  O   -0.459117
 Sum of Mulliken charges =  -0.00000

 Dipole moment (field-independent basis, Debye):
    X=              5.2568    Y=             -1.4122    Z=             -1.4291  Tot=              5.6277
 Quadrupole moment (field-independent basis, Debye-Ang):
   XX=            -68.7660   YY=            -94.0091   ZZ=            -92.2575
   XY=             -5.0392   XZ=             -3.4053   YZ=             -3.3013

 Normal termination of Gaussian 16 at Thu May  6 02:50:18 2021.
