 Gaussian 16, Revision A.03,
 Gaussian 16:  EM64L-G16RevA.03 25-Dec-2016

 -------------
 #p 6-31g* mp2
 -------------

 ------------------------------------------------------
 Input file generated by CHIRIPA (05-May-2021 14:51:14)
 ------------------------------------------------------
 Symbolic Z-matrix:
 Charge =  0 Multiplicity = 1

                         Standard orientation:
 ---------------------------------------------------------------------
 Center     Atomic      Atomic             Coordinates (Angstroms)
 Number     Number       Type             X           Y           Z
 ---------------------------------------------------------------------
      1          6           0        3.064878   -0.877340    0.159061
      2          6           0        3.528196    0.577467    0.076239
      3          6           0        4.972627    0.765241    0.541163
      4          1           0        3.166986   -1.229620    1.194636
      5          1           0        3.731594   -1.502477   -0.450930
      6          1           0        2.859977    1.199874    0.685097
      7          1           0        3.424793    0.926384   -0.959223
      8          1           0        5.655442    0.168575   -0.072314
      9          1           0        5.087416    0.443619    1.581348
     10          1           0        5.283177    1.812551    0.473643
     11          6           0        1.622902   -1.081105   -0.302361
     12          6           0        1.159584   -2.535911   -0.219540
     13          6           0       -0.284847   -2.723685   -0.684464
     14          1           0        0.956186   -0.455967    0.307629
     15          1           0        1.520794   -0.728824   -1.337937
     16          1           0        1.262987   -2.884829    0.815922
     17          1           0        1.827803   -3.158319   -0.828397
     18          1           0       -0.399636   -2.402063   -1.724649
     19          1           0       -0.967662   -2.127019   -0.070987
     20          1           0       -0.595397   -3.770996   -0.616944
     21          6           0       -2.050474    1.509925   -0.392778
     22          6           0       -1.188997    2.542826    0.334517
     23          6           0       -0.609080    3.597901   -0.607983
     24          1           0       -1.446637    1.018836   -1.168123
     25          1           0       -2.868298    2.026521   -0.914012
     26          1           0       -0.373845    2.024304    0.855360
     27          1           0       -1.794901    3.031378    1.108348
     28          1           0       -1.411027    4.141138   -1.118252
     29          1           0        0.018103    3.128343   -1.372678
     30          1           0        0.003311    4.326179   -0.067197
     31          6           0       -2.637307    0.448520    0.536079
     32          6           0       -3.498782   -0.584382   -0.191216
     33          6           0       -4.078700   -1.639457    0.751284
     34          1           0       -1.819482   -0.068078    1.057313
     35          1           0       -3.241143    0.939608    1.311423
     36          1           0       -2.892878   -1.072934   -0.965048
     37          1           0       -4.313935   -0.065860   -0.712059
     38          1           0       -4.705883   -1.169899    1.515978
     39          1           0       -3.276753   -2.182694    1.261552
     40          1           0       -4.691091   -2.367735    0.210498
 ---------------------------------------------------------------------

 SCF Done:  E(RHF) =  -470.732348732     A.U. after   11 cycles
 E2 =    -0.1585321059D+01 EUMP2 =    -0.47231766979116D+03

 The electronic state is 1-A.
 Alpha  occ. eigenvalues --  -11.21670 -11.21652 -11.21586 -11.21500 -11.21486
 Alpha  occ. eigenvalues --  -11.21420 -11.21383 -11.21317 -11.21104 -11.21100
 Alpha  occ. eigenvalues --  -11.21041 -11.21028  -1.08525  -1.08385  -1.03618
 Alpha  occ. eigenvalues --   -1.03473  -0.96052  -0.95940  -0.87082  -0.86949
 Alpha  occ. eigenvalues --   -0.79682  -0.79540  -0.78324  -0.78221  -0.65377
 Alpha  occ. eigenvalues --   -0.64862  -0.61228  -0.60736  -0.59403  -0.59315
 Alpha  occ. eigenvalues --   -0.57626  -0.57554  -0.55391  -0.55166  -0.52724
 Alpha  occ. eigenvalues --   -0.52642  -0.52480  -0.52352  -0.50021  -0.49838
 Alpha  occ. eigenvalues --   -0.48085  -0.47764  -0.46712  -0.46597  -0.46105
 Alpha  occ. eigenvalues --   -0.45939  -0.45553  -0.45348  -0.43846  -0.43748
 Alpha virt. eigenvalues --    0.19462   0.22206   0.23725   0.24718   0.24984
 Alpha virt. eigenvalues --    0.25965   0.27595   0.27697   0.28537   0.29910
 Alpha virt. eigenvalues --    0.30868   0.31293   0.31690   0.31881   0.32083

 Mulliken charges:
               1
     1  C   -0.298234
     2  C   -0.300501
     3  C   -0.475774
     4  H    0.149825
     5  H    0.149992
     6  H    0.152602
     7  H    0.151998
     8  H    0.155320
     9  H    0.155277
    10  H    0.160599
    11  C   -0.303780
    12  C   -0.299634
    13  C   -0.484669
    14  H    0.153968
    15  H    0.149477
    16  H    0.151862
    17  H    0.152271
    18  H    0.154591
    19  H    0.166369
    20  H    0.160897
    21  C   -0.298894
    22  C   -0.301916
    23  C   -0.475590
    24  H    0.151814
    25  H    0.149639
    26  H    0.153065
    27  H    0.151724
    28  H    0.154968
    29  H    0.155851
    30  H    0.159992
    31  C   -0.301767
    32  C   -0.306369
    33  C   -0.476381
    34  H    0.149424
    35  H    0.150159
    36  H    0.158222
    37  H    0.152845
    38  H    0.154933
    39  H    0.155303
    40  H    0.160525
 Sum of Mulliken charges =  -0.00000

 Dipole moment (field-independent basis, Debye):
    X=              0.0200    Y=             -0.0197    Z=             -0.0216  Tot=              0.0354
 Quadrupole moment (field-independent basis, Debye-Ang):
   XX=            -85.2927   YY=            -85.2040   ZZ=            -84.2434
   XY=             -1.2050   XZ=             -0.4208   YZ=              0.6036

 Normal termination of Gaussian 16 at Thu May  6 03:59:56 2021.
