 Gaussian 16, Revision A.03,
 Gaussian 16:  EM64L-G16RevA.03 25-Dec-2016

 -------------
 #p 6-31g* mp2
 -------------

 ------------------------------------------------------
 Input file generated by CHIRIPA (05-May-2021 14:53:15)
 ------------------------------------------------------
 Symbolic Z-matrix:
 Charge =  0 Multiplicity = 1

                         Standard orientation:
 ---------------------------------------------------------------------
 Center     Atomic      Atomic             Coordinates (Angstroms)
 Number     Number       Type             X           Y           Z
 ---------------------------------------------------------------------
      1          6           0        3.165641   -0.463184   -0.553227
      2          6           0        3.875389   -1.812944   -0.441917
      3          6           0        3.132543   -2.933310   -1.170446
      4          1           0        2.149227   -0.555934   -0.146723
      5          1           0        3.055090   -0.201343   -1.614647
      6          1           0        3.985804   -2.071508    0.619011
      7          1           0        4.890297   -1.716921   -0.848558
      8          1           0        3.034896   -2.701448   -2.235954
      9          1           0        2.125263   -3.058050   -0.760046
     10          1           0        3.657344   -3.889288   -1.077979
     11          6           0        3.896138    0.666861    0.170030
     12          6           0        3.186390    2.016622    0.058720
     13          6           0        3.929236    3.136987    0.787249
     14          1           0        4.006689    0.405020    1.231450
     15          1           0        4.912552    0.759611   -0.236474
     16          1           0        2.171481    1.920599    0.465361
     17          1           0        3.075975    2.275186   -1.002209
     18          1           0        4.936516    3.261727    0.376849
     19          1           0        4.026883    2.905126    1.852756
     20          1           0        3.404435    4.092965    0.694782
     21          6           0       -4.364760    0.970711   -1.488241
     22          6           0       -4.831526    0.490180   -0.260340
     23          6           0       -3.950567   -0.093635    0.654875
     24          6           0       -2.603221   -0.181097    0.308035
     25          6           0       -2.107677    0.288404   -0.907406
     26          6           0       -3.006719    0.868469   -1.807292
     27          1           0       -5.056133    1.422776   -2.193248
     28          1           0       -5.885671    0.568250   -0.009882
     29          1           0       -4.285017   -0.473820    1.612486
     30          1           0       -1.051296    0.196544   -1.128849
     31          1           0       -2.641401    1.240800   -2.760160
     32          7           0       -1.661017   -0.797172    1.268819
     33          8           0       -0.478696   -0.862377    0.939423
     34          8           0       -2.122680   -1.203181    2.333085
 ---------------------------------------------------------------------

 SCF Done:  E(RHF) =  -669.536434202     A.U. after   15 cycles
 E2 =    -0.2091189875D+01 EUMP2 =    -0.67162762407713D+03

 The electronic state is 1-A.
 Alpha  occ. eigenvalues --  -20.60980 -20.60960 -15.86018 -11.31296 -11.27859
 Alpha  occ. eigenvalues --  -11.27848 -11.27592 -11.26860 -11.26848 -11.21059
 Alpha  occ. eigenvalues --  -11.20785 -11.20667 -11.20630 -11.20430 -11.20294
 Alpha  occ. eigenvalues --   -1.60037  -1.39595  -1.19464  -1.08875  -1.07680
 Alpha  occ. eigenvalues --   -1.04854  -1.02850  -0.95724  -0.95295  -0.86320
 Alpha  occ. eigenvalues --   -0.86257  -0.82562  -0.78930  -0.77669  -0.77435
 Alpha  occ. eigenvalues --   -0.72246  -0.71350  -0.70573  -0.65126  -0.64857
 Alpha  occ. eigenvalues --   -0.64277  -0.62201  -0.60235  -0.58683  -0.56917
 Alpha  occ. eigenvalues --   -0.55362  -0.54563  -0.53189  -0.52946  -0.52033
 Alpha  occ. eigenvalues --   -0.51733  -0.49239  -0.48995  -0.48979  -0.47254
 Alpha  occ. eigenvalues --   -0.45950  -0.45055  -0.45024  -0.44847  -0.43080
 Alpha  occ. eigenvalues --   -0.37443  -0.36454
 Alpha virt. eigenvalues --    0.04908   0.11199   0.16410   0.21084   0.23500
 Alpha virt. eigenvalues --    0.24951   0.26112   0.27399   0.27664   0.28586
 Alpha virt. eigenvalues --    0.29172   0.31150   0.32024   0.32309   0.32590

 Mulliken charges:
               1
     1  C   -0.312875
     2  C   -0.297426
     3  C   -0.477961
     4  H    0.177742
     5  H    0.139657
     6  H    0.155032
     7  H    0.147118
     8  H    0.149024
     9  H    0.164195
    10  H    0.157429
    11  C   -0.296503
    12  C   -0.300745
    13  C   -0.475164
    14  H    0.152674
    15  H    0.145717
    16  H    0.156294
    17  H    0.145850
    18  H    0.153563
    19  H    0.156872
    20  H    0.156922
    21  C   -0.170490
    22  C   -0.218618
    23  C   -0.170841
    24  C    0.157384
    25  C   -0.170850
    26  C   -0.218738
    27  H    0.226047
    28  H    0.223808
    29  H    0.275744
    30  H    0.277179
    31  H    0.224186
    32  N    0.497046
    33  O   -0.470534
    34  O   -0.458740
 Sum of Mulliken charges =  -0.00000

 Dipole moment (field-independent basis, Debye):
    X=             -3.5774    Y=              2.1033    Z=             -3.2318  Tot=              5.2599
 Quadrupole moment (field-independent basis, Debye-Ang):
   XX=            -75.5075   YY=            -97.4477   ZZ=            -94.8677
   XY=             -4.9346   XZ=              5.1026   YZ=             -0.1706

 Normal termination of Gaussian 16 at Wed May  5 20:15:58 2021.
