 Gaussian 16, Revision A.03,
 Gaussian 16:  EM64L-G16RevA.03 25-Dec-2016

 -------------
 #p 6-31g* mp2
 -------------

 ------------------------------------------------------
 Input file generated by CHIRIPA (05-May-2021 14:53:16)
 ------------------------------------------------------
 Symbolic Z-matrix:
 Charge =  0 Multiplicity = 1

                         Standard orientation:
 ---------------------------------------------------------------------
 Center     Atomic      Atomic             Coordinates (Angstroms)
 Number     Number       Type             X           Y           Z
 ---------------------------------------------------------------------
      1          6           0       -2.973659   -0.363185   -0.434645
      2          6           0       -3.683009   -0.928035    0.796514
      3          6           0       -4.156782   -2.368020    0.597070
      4          1           0       -3.653913   -0.410912   -1.295994
      5          1           0       -2.114078   -1.002405   -0.679417
      6          1           0       -4.540183   -0.287159    1.039716
      7          1           0       -3.001054   -0.878781    1.655074
      8          1           0       -3.309421   -3.025361    0.376881
      9          1           0       -4.857294   -2.430377   -0.241974
     10          1           0       -4.661094   -2.751955    1.489327
     11          6           0       -2.494173    1.075558   -0.250687
     12          6           0       -1.784823    1.640408   -1.481845
     13          6           0       -1.311050    3.080393   -1.282401
     14          1           0       -3.353753    1.714778   -0.005915
     15          1           0       -1.813919    1.123285    0.610662
     16          1           0       -2.466778    1.591154   -2.340406
     17          1           0       -0.927649    0.999532   -1.725048
     18          1           0       -0.610537    3.142750   -0.443358
     19          1           0       -2.158411    3.737734   -1.062212
     20          1           0       -0.806738    3.464327   -2.174658
     21          6           0        1.683072    1.840150    1.561225
     22          6           0        2.826061    1.739192    0.761286
     23          6           0        3.087032    0.570230    0.040196
     24          6           0        2.179646   -0.483072    0.142656
     25          6           0        1.032140   -0.412965    0.931073
     26          6           0        0.791331    0.765644    1.643421
     27          1           0        1.488174    2.751975    2.117989
     28          1           0        3.520348    2.572072    0.695549
     29          1           0        3.964203    0.465176   -0.586663
     30          1           0        0.358481   -1.260037    0.976560
     31          1           0       -0.097136    0.841231    2.263872
     32          7           0        2.445252   -1.725706   -0.616103
     33          8           0        1.630276   -2.639468   -0.508915
     34          8           0        3.463381   -1.762391   -1.303639
 ---------------------------------------------------------------------

 SCF Done:  E(RHF) =  -669.534828502     A.U. after   15 cycles
 E2 =    -0.2094566991D+01 EUMP2 =    -0.67162939549341D+03

 The electronic state is 1-A.
 Alpha  occ. eigenvalues --  -20.60879 -20.60873 -15.85932 -11.31334 -11.27895
 Alpha  occ. eigenvalues --  -11.27873 -11.27632 -11.26916 -11.26904 -11.21994
 Alpha  occ. eigenvalues --  -11.21815 -11.21710 -11.21631 -11.21355 -11.21231
 Alpha  occ. eigenvalues --   -1.59952  -1.39505  -1.19505  -1.08903  -1.08733
 Alpha  occ. eigenvalues --   -1.04911  -1.03799  -0.96248  -0.95718  -0.87264
 Alpha  occ. eigenvalues --   -0.86306  -0.82556  -0.79873  -0.78576  -0.77590
 Alpha  occ. eigenvalues --   -0.72148  -0.71276  -0.70600  -0.65482  -0.65137
 Alpha  occ. eigenvalues --   -0.64891  -0.62233  -0.61217  -0.59612  -0.57861
 Alpha  occ. eigenvalues --   -0.55590  -0.55347  -0.53217  -0.53040  -0.52929
 Alpha  occ. eigenvalues --   -0.52647  -0.50183  -0.48911  -0.48902  -0.48180
 Alpha  occ. eigenvalues --   -0.46917  -0.46105  -0.46008  -0.44901  -0.44063
 Alpha  occ. eigenvalues --   -0.37442  -0.36437
 Alpha virt. eigenvalues --    0.04894   0.11028   0.16266   0.19372   0.22969
 Alpha virt. eigenvalues --    0.23696   0.25171   0.26313   0.27325   0.28484
 Alpha virt. eigenvalues --    0.29890   0.30563   0.31191   0.31705   0.31840

 Mulliken charges:
               1
     1  C   -0.302983
     2  C   -0.298505
     3  C   -0.476766
     4  H    0.153387
     5  H    0.154447
     6  H    0.152816
     7  H    0.141427
     8  H    0.160079
     9  H    0.157408
    10  H    0.160319
    11  C   -0.300372
    12  C   -0.298810
    13  C   -0.477490
    14  H    0.148869
    15  H    0.142880
    16  H    0.153830
    17  H    0.155598
    18  H    0.151445
    19  H    0.153680
    20  H    0.161325
    21  C   -0.172170
    22  C   -0.218082
    23  C   -0.170666
    24  C    0.158427
    25  C   -0.171052
    26  C   -0.217321
    27  H    0.227015
    28  H    0.224463
    29  H    0.276190
    30  H    0.277207
    31  H    0.225520
    32  N    0.488105
    33  O   -0.460586
    34  O   -0.459633
 Sum of Mulliken charges =  -0.00000

 Dipole moment (field-independent basis, Debye):
    X=             -0.8658    Y=              4.2970    Z=              2.5985  Tot=              5.0957
 Quadrupole moment (field-independent basis, Debye-Ang):
   XX=            -94.6090   YY=            -99.7628   ZZ=            -93.8185
   XY=             11.7029   XZ=              4.6045   YZ=             -1.4694

 Normal termination of Gaussian 16 at Wed May  5 20:19:30 2021.
