 Gaussian 16, Revision A.03,
 Gaussian 16:  EM64L-G16RevA.03 25-Dec-2016

 -------------
 #p 6-31g* mp2
 -------------

 ------------------------------------------------------
 Input file generated by CHIRIPA (05-May-2021 14:55:23)
 ------------------------------------------------------
 Symbolic Z-matrix:
 Charge =  0 Multiplicity = 1

                         Standard orientation:
 ---------------------------------------------------------------------
 Center     Atomic      Atomic             Coordinates (Angstroms)
 Number     Number       Type             X           Y           Z
 ---------------------------------------------------------------------
      1          6           0       -0.594751   -1.458020    0.983190
      2          6           0       -0.655120   -0.062523    1.057106
      3          6           0       -1.783331    0.624588    0.599321
      4          6           0       -2.837714   -0.118776    0.071140
      5          6           0       -2.807499   -1.509741   -0.016013
      6          6           0       -1.669239   -2.175910    0.447810
      7          1           0        0.285573   -1.983650    1.341153
      8          1           0        0.177847    0.497600    1.472405
      9          1           0       -1.856477    1.704410    0.644624
     10          1           0       -3.653587   -2.040700   -0.435102
     11          1           0       -1.625125   -3.259726    0.389157
     12          7           0       -4.037419    0.597552   -0.416692
     13          8           0       -4.953040   -0.080485   -0.877715
     14          8           0       -4.039411    1.823483   -0.328796
     15          6           0        3.641645    1.020403   -0.203693
     16          6           0        2.562607    2.064887    0.083908
     17          6           0        3.103093    3.494971    0.060980
     18          1           0        4.447232    1.121351    0.536432
     19          1           0        4.090776    1.227940   -1.184817
     20          1           0        2.114690    1.854622    1.063590
     21          1           0        1.759405    1.961314   -0.656872
     22          1           0        3.532562    3.728830   -0.918545
     23          1           0        3.889868    3.621532    0.811692
     24          1           0        2.315010    4.225385    0.269019
     25          6           0        3.116724   -0.414103   -0.184253
     26          6           0        4.195763   -1.458586   -0.471853
     27          6           0        3.655276   -2.888671   -0.448925
     28          1           0        2.667594   -0.621639    0.796873
     29          1           0        2.311137   -0.515051   -0.924377
     30          1           0        4.998965   -1.355015    0.268927
     31          1           0        4.643679   -1.248322   -1.451535
     32          1           0        2.868502   -3.015232   -1.199638
     33          1           0        3.225807   -3.122530    0.530599
     34          1           0        4.443359   -3.619085   -0.656964
 ---------------------------------------------------------------------

 SCF Done:  E(RHF) =  -669.535140027     A.U. after   15 cycles
 E2 =    -0.2092861407D+01 EUMP2 =    -0.67162800143427D+03

 The electronic state is 1-A.
 Alpha  occ. eigenvalues --  -20.60698 -20.60693 -15.85750 -11.31089 -11.27657
 Alpha  occ. eigenvalues --  -11.27636 -11.27360 -11.26665 -11.26591 -11.22554
 Alpha  occ. eigenvalues --  -11.22472 -11.22378 -11.22235 -11.22012 -11.21749
 Alpha  occ. eigenvalues --   -1.59774  -1.39328  -1.19254  -1.09356  -1.08647
 Alpha  occ. eigenvalues --   -1.04653  -1.04405  -0.96840  -0.95491  -0.87855
 Alpha  occ. eigenvalues --   -0.86055  -0.82330  -0.80486  -0.79218  -0.77365
 Alpha  occ. eigenvalues --   -0.71968  -0.71098  -0.70356  -0.66000  -0.64901
 Alpha  occ. eigenvalues --   -0.64641  -0.62036  -0.61775  -0.60206  -0.58463
 Alpha  occ. eigenvalues --   -0.56123  -0.55146  -0.53534  -0.53286  -0.52976
 Alpha  occ. eigenvalues --   -0.52742  -0.50777  -0.48822  -0.48726  -0.48690
 Alpha  occ. eigenvalues --   -0.47512  -0.46690  -0.46619  -0.44740  -0.44661
 Alpha  occ. eigenvalues --   -0.37207  -0.36242
 Alpha virt. eigenvalues --    0.05134   0.11343   0.16572   0.19305   0.22439
 Alpha virt. eigenvalues --    0.22709   0.24899   0.26102   0.26533   0.27803
 Alpha virt. eigenvalues --    0.29266   0.30517   0.31052   0.31475   0.31897

 Mulliken charges:
               1
     1  C   -0.172766
     2  C   -0.220101
     3  C   -0.174576
     4  C    0.158451
     5  C   -0.171421
     6  C   -0.219474
     7  H    0.227428
     8  H    0.230967
     9  H    0.275271
    10  H    0.275087
    11  H    0.223122
    12  N    0.488096
    13  O   -0.460832
    14  O   -0.460768
    15  C   -0.298451
    16  C   -0.304882
    17  C   -0.475662
    18  H    0.151507
    19  H    0.154275
    20  H    0.143055
    21  H    0.156884
    22  H    0.159024
    23  H    0.156680
    24  H    0.162632
    25  C   -0.300897
    26  C   -0.300127
    27  C   -0.476963
    28  H    0.138186
    29  H    0.156033
    30  H    0.153909
    31  H    0.156229
    32  H    0.156828
    33  H    0.148425
    34  H    0.164830
 Sum of Mulliken charges =  -0.00000

 Dipole moment (field-independent basis, Debye):
    X=              4.4695    Y=             -2.4530    Z=              1.5687  Tot=              5.3343
 Quadrupole moment (field-independent basis, Debye-Ang):
   XX=           -117.8523   YY=            -91.3276   ZZ=            -93.9764
   XY=              8.7004   XZ=             -4.2411   YZ=              0.7954

 Normal termination of Gaussian 16 at Thu May  6 01:31:35 2021.
