 Gaussian 16, Revision A.03,
 Gaussian 16:  EM64L-G16RevA.03 25-Dec-2016

 -------------
 #p 6-31g* mp2
 -------------

 ------------------------------------------------------
 Input file generated by CHIRIPA (05-May-2021 14:57:21)
 ------------------------------------------------------
 Symbolic Z-matrix:
 Charge =  0 Multiplicity = 1

                         Standard orientation:
 ---------------------------------------------------------------------
 Center     Atomic      Atomic             Coordinates (Angstroms)
 Number     Number       Type             X           Y           Z
 ---------------------------------------------------------------------
      1          6           0       -3.519945   -2.422256    0.292143
      2          6           0       -4.688449   -1.653422    0.296056
      3          6           0       -4.624872   -0.264322    0.151471
      4          6           0       -3.370451    0.325685    0.004467
      5          6           0       -2.188319   -0.413092   -0.003429
      6          6           0       -2.275803   -1.800733    0.142676
      7          1           0       -3.578619   -3.500776    0.405051
      8          1           0       -5.656039   -2.133402    0.411957
      9          1           0       -5.513673    0.354912    0.150973
     10          1           0       -1.238250    0.093864   -0.120829
     11          1           0       -1.366670   -2.395301    0.139268
     12          7           0       -3.290490    1.795491   -0.149404
     13          8           0       -2.173124    2.291236   -0.277339
     14          8           0       -4.346696    2.423950   -0.139158
     15          6           0        3.966178    2.352489    0.274795
     16          6           0        4.955308    1.373412    0.414621
     17          6           0        4.643929    0.020693    0.248057
     18          6           0        3.327310   -0.318940   -0.059277
     19          6           0        2.319620    0.633212   -0.205068
     20          6           0        2.653805    1.979921   -0.034059
     21          1           0        4.216923    3.400979    0.405912
     22          1           0        5.975353    1.659833    0.654445
     23          1           0        5.390095   -0.757857    0.350589
     24          1           0        1.311627    0.316931   -0.444512
     25          1           0        1.883581    2.738128   -0.143249
     26          7           0        2.985596   -1.747822   -0.237963
     27          8           0        1.818191   -2.021068   -0.508408
     28          8           0        3.891635   -2.567477   -0.104189
 ---------------------------------------------------------------------

 SCF Done:  E(RHF) =  -868.340454249     A.U. after   16 cycles
 E2 =    -0.2599117646D+01 EUMP2 =    -0.87093957189519D+03

 The electronic state is 1-A.
 Alpha  occ. eigenvalues --  -20.61333 -20.61274 -20.60923 -20.60882 -15.86341
 Alpha  occ. eigenvalues --  -15.85944 -11.31393 -11.31032 -11.27936 -11.27892
 Alpha  occ. eigenvalues --  -11.27556 -11.27536 -11.27524 -11.27143 -11.26856
 Alpha  occ. eigenvalues --  -11.26738 -11.26518 -11.26299  -1.60365  -1.59974
 Alpha  occ. eigenvalues --   -1.39934  -1.39542  -1.19509  -1.19139  -1.08952
 Alpha  occ. eigenvalues --   -1.08575  -1.04853  -1.04478  -0.95853  -0.95475
 Alpha  occ. eigenvalues --   -0.86271  -0.85891  -0.82696  -0.82304  -0.77806
 Alpha  occ. eigenvalues --   -0.77384  -0.72578  -0.72180  -0.71666  -0.71283
 Alpha  occ. eigenvalues --   -0.70638  -0.70244  -0.65158  -0.64851  -0.64773
 Alpha  occ. eigenvalues --   -0.64426  -0.62265  -0.61770  -0.55358  -0.54975
 Alpha  occ. eigenvalues --   -0.53205  -0.52951  -0.52841  -0.52502  -0.49348
 Alpha  occ. eigenvalues --   -0.49278  -0.48952  -0.48887  -0.45406  -0.45008
 Alpha  occ. eigenvalues --   -0.37457  -0.37093  -0.36439  -0.36068
 Alpha virt. eigenvalues --    0.04704   0.05097   0.11203   0.11582   0.16288
 Alpha virt. eigenvalues --    0.16689   0.19317   0.22387   0.24768   0.27736
 Alpha virt. eigenvalues --    0.28361   0.29871   0.31284   0.31464   0.31775

 Mulliken charges:
               1
     1  C   -0.171292
     2  C   -0.218407
     3  C   -0.171555
     4  C    0.159293
     5  C   -0.177406
     6  C   -0.226142
     7  H    0.227880
     8  H    0.222832
     9  H    0.274052
    10  H    0.273930
    11  H    0.245842
    12  N    0.488057
    13  O   -0.469800
    14  O   -0.458895
    15  C   -0.170384
    16  C   -0.218492
    17  C   -0.170566
    18  C    0.158113
    19  C   -0.177044
    20  C   -0.222593
    21  H    0.228495
    22  H    0.224227
    23  H    0.275114
    24  H    0.277823
    25  H    0.237293
    26  N    0.490352
    27  O   -0.474044
    28  O   -0.456681
 Sum of Mulliken charges =  -0.00000

 Dipole moment (field-independent basis, Debye):
    X=              1.0939    Y=             -0.1747    Z=              1.2113  Tot=              1.6415
 Quadrupole moment (field-independent basis, Debye-Ang):
   XX=            -84.8978   YY=           -111.5526   ZZ=           -106.4805
   XY=             33.2231   XZ=              0.9001   YZ=             -0.6230

 Normal termination of Gaussian 16 at Thu May  6 08:04:26 2021.
