 Gaussian 16, Revision A.03,
 Gaussian 16:  EM64L-G16RevA.03 25-Dec-2016

 -------------
 #p 6-31g* mp2
 -------------

 ------------------------------------------------------
 Input file generated by CHIRIPA (05-May-2021 14:55:20)
 ------------------------------------------------------
 Symbolic Z-matrix:
 Charge =  0 Multiplicity = 1

                         Standard orientation:
 ---------------------------------------------------------------------
 Center     Atomic      Atomic             Coordinates (Angstroms)
 Number     Number       Type             X           Y           Z
 ---------------------------------------------------------------------
      1          6           0        2.417745    2.426096   -0.591560
      2          6           0        3.764473    2.053803   -0.656707
      3          6           0        4.142029    0.720084   -0.474523
      4          6           0        3.142208   -0.219501   -0.227889
      5          6           0        1.792069    0.120209   -0.157110
      6          6           0        1.437569    1.459814   -0.342409
      7          1           0        2.133406    3.464448   -0.734295
      8          1           0        4.527840    2.802090   -0.850053
      9          1           0        5.177242    0.404324   -0.519777
     10          1           0        1.053763   -0.648277    0.037188
     11          1           0        0.390910    1.746055   -0.291272
     12          7           0        3.529706   -1.634566   -0.033370
     13          8           0        2.629735   -2.443297    0.182597
     14          8           0        4.726061   -1.908168   -0.100557
     15          6           0       -4.623648    0.176108    0.051783
     16          6           0       -5.133101   -0.786687   -1.021282
     17          6           0       -6.501335   -0.385905   -1.573643
     18          1           0       -5.353190    0.220223    0.872008
     19          1           0       -4.567110    1.188735   -0.371047
     20          1           0       -5.187346   -1.797440   -0.596958
     21          1           0       -4.402171   -0.828660   -1.838959
     22          1           0       -6.458422    0.611774   -2.022414
     23          1           0       -7.248058   -0.362510   -0.773356
     24          1           0       -6.846462   -1.087736   -2.339266
     25          6           0       -3.256913   -0.211228    0.613683
     26          6           0       -2.747460    0.751568    1.686748
     27          6           0       -1.379226    0.350786    2.239109
     28          1           0       -3.313451   -1.223855    1.036513
     29          1           0       -2.527371   -0.255343   -0.206541
     30          1           0       -3.478390    0.793541    2.504425
     31          1           0       -2.693215    1.762320    1.262424
     32          1           0       -0.632504    0.327390    1.438823
     33          1           0       -1.422139   -0.646894    2.687880
     34          1           0       -1.034099    1.052617    3.004734
 ---------------------------------------------------------------------

 SCF Done:  E(RHF) =  -669.534493822     A.U. after   15 cycles
 E2 =    -0.2092284596D+01 EUMP2 =    -0.67162677841798D+03

 The electronic state is 1-A.
 Alpha  occ. eigenvalues --  -20.60741 -20.60735 -15.85794 -11.31168 -11.27744
 Alpha  occ. eigenvalues --  -11.27722 -11.27489 -11.26764 -11.26744 -11.22241
 Alpha  occ. eigenvalues --  -11.21945 -11.21916 -11.21800 -11.21726 -11.21333
 Alpha  occ. eigenvalues --   -1.59815  -1.39368  -1.19349  -1.08929  -1.08739
 Alpha  occ. eigenvalues --   -1.04771  -1.04012  -0.96466  -0.95573  -0.87482
 Alpha  occ. eigenvalues --   -0.86151  -0.82421  -0.80081  -0.78723  -0.77457
 Alpha  occ. eigenvalues --   -0.72014  -0.71138  -0.70468  -0.65596  -0.65006
 Alpha  occ. eigenvalues --   -0.64762  -0.62278  -0.61299  -0.59824  -0.58054
 Alpha  occ. eigenvalues --   -0.55786  -0.55232  -0.53191  -0.53079  -0.52882
 Alpha  occ. eigenvalues --   -0.52788  -0.50403  -0.48773  -0.48768  -0.48378
 Alpha  occ. eigenvalues --   -0.47121  -0.46262  -0.46182  -0.44771  -0.44258
 Alpha  occ. eigenvalues --   -0.37328  -0.36327
 Alpha virt. eigenvalues --    0.05058   0.11291   0.16471   0.19464   0.22751
 Alpha virt. eigenvalues --    0.23828   0.25610   0.26445   0.27448   0.28062
 Alpha virt. eigenvalues --    0.29417   0.29936   0.31277   0.31488   0.32433

 Mulliken charges:
               1
     1  C   -0.171517
     2  C   -0.218612
     3  C   -0.171091
     4  C    0.157715
     5  C   -0.171900
     6  C   -0.218300
     7  H    0.225569
     8  H    0.223424
     9  H    0.275584
    10  H    0.277601
    11  H    0.224941
    12  N    0.488425
    13  O   -0.460305
    14  O   -0.460560
    15  C   -0.298316
    16  C   -0.300165
    17  C   -0.475993
    18  H    0.151532
    19  H    0.147811
    20  H    0.154292
    21  H    0.152036
    22  H    0.154546
    23  H    0.155879
    24  H    0.161923
    25  C   -0.298174
    26  C   -0.301297
    27  C   -0.479930
    28  H    0.154750
    29  H    0.143399
    30  H    0.156252
    31  H    0.146921
    32  H    0.146903
    33  H    0.163274
    34  H    0.163381
 Sum of Mulliken charges =  -0.00000

 Dipole moment (field-independent basis, Debye):
    X=             -1.4789    Y=              4.9264    Z=             -0.6154  Tot=              5.1803
 Quadrupole moment (field-independent basis, Debye-Ang):
   XX=            -98.8752   YY=            -96.9432   ZZ=            -94.6822
   XY=             18.1601   XZ=             -3.5770   YZ=             -1.6110

 Normal termination of Gaussian 16 at Thu May  6 06:08:03 2021.
