 Gaussian 16, Revision A.03,
 Gaussian 16:  EM64L-G16RevA.03 25-Dec-2016

 -------------
 #p 6-31g* mp2
 -------------

 ------------------------------------------------------
 Input file generated by CHIRIPA (05-May-2021 14:51:12)
 ------------------------------------------------------
 Symbolic Z-matrix:
 Charge =  0 Multiplicity = 1

                         Standard orientation:
 ---------------------------------------------------------------------
 Center     Atomic      Atomic             Coordinates (Angstroms)
 Number     Number       Type             X           Y           Z
 ---------------------------------------------------------------------
      1          6           0        3.469589    0.198808   -0.019967
      2          6           0        4.947029   -0.048694    0.286464
      3          6           0        5.726459    1.245207    0.523324
      4          1           0        3.388424    0.844673   -0.904961
      5          1           0        3.017173    0.753046    0.814021
      6          1           0        5.396191   -0.603508   -0.547233
      7          1           0        5.024683   -0.694202    1.170719
      8          1           0        5.305105    1.799603    1.368135
      9          1           0        5.678724    1.890813   -0.359577
     10          1           0        6.780288    1.045016    0.740647
     11          6           0        2.677127   -1.085146   -0.259119
     12          6           0        1.199688   -0.837643   -0.565551
     13          6           0        0.420257   -2.131544   -0.802410
     14          1           0        3.129544   -1.639384   -1.093107
     15          1           0        2.758293   -1.731011    0.625875
     16          1           0        1.122033   -0.192136   -1.449805
     17          1           0        0.750525   -0.282830    0.268146
     18          1           0        0.467993   -2.777151    0.080491
     19          1           0        0.841612   -2.685941   -1.647221
     20          1           0       -0.633571   -1.931353   -1.019733
     21          6           0       -2.899418    1.132012    0.420030
     22          6           0       -2.889879    2.233700   -0.640242
     23          6           0       -2.540205    3.605980   -0.063727
     24          1           0       -3.619749    1.395207    1.206665
     25          1           0       -1.912810    1.087805    0.901739
     26          1           0       -3.875789    2.274890   -1.120766
     27          1           0       -2.169626    1.967760   -1.424542
     28          1           0       -1.548130    3.588038    0.398947
     29          1           0       -3.263987    3.896914    0.704451
     30          1           0       -2.539123    4.378658   -0.838858
     31          6           0       -3.247298   -0.245674   -0.140944
     32          6           0       -3.256837   -1.347363    0.919328
     33          6           0       -3.606512   -2.719643    0.342813
     34          1           0       -4.233907   -0.201468   -0.622653
     35          1           0       -2.526966   -0.508868   -0.927578
     36          1           0       -3.977091   -1.081422    1.703628
     37          1           0       -2.270928   -1.388552    1.399852
     38          1           0       -2.882729   -3.010577   -0.425364
     39          1           0       -4.598585   -2.701700   -0.119861
     40          1           0       -3.607594   -3.492321    1.117944
 ---------------------------------------------------------------------

 SCF Done:  E(RHF) =  -470.732901468     A.U. after   11 cycles
 E2 =    -0.1583899433D+01 EUMP2 =    -0.47231680090083D+03

 The electronic state is 1-A.
 Alpha  occ. eigenvalues --  -11.21696 -11.21638 -11.21585 -11.21573 -11.21463
 Alpha  occ. eigenvalues --  -11.21402 -11.21393 -11.21333 -11.21121 -11.21098
 Alpha  occ. eigenvalues --  -11.21056 -11.21022  -1.08500  -1.08409  -1.03606
 Alpha  occ. eigenvalues --   -1.03494  -0.96039  -0.95957  -0.87059  -0.86973
 Alpha  occ. eigenvalues --   -0.79659  -0.79567  -0.78303  -0.78235  -0.65197
 Alpha  occ. eigenvalues --   -0.65034  -0.61075  -0.60903  -0.59425  -0.59245
 Alpha  occ. eigenvalues --   -0.57627  -0.57571  -0.55337  -0.55231  -0.52743
 Alpha  occ. eigenvalues --   -0.52643  -0.52475  -0.52375  -0.49970  -0.49904
 Alpha  occ. eigenvalues --   -0.48030  -0.47840  -0.46701  -0.46586  -0.45890
 Alpha  occ. eigenvalues --   -0.45796  -0.45750  -0.45610  -0.43795  -0.43762
 Alpha virt. eigenvalues --    0.19740   0.23127   0.23567   0.25018   0.25575
 Alpha virt. eigenvalues --    0.26209   0.27028   0.27600   0.28121   0.29368
 Alpha virt. eigenvalues --    0.30417   0.31208   0.31723   0.31903   0.32305

 Mulliken charges:
               1
     1  C   -0.298303
     2  C   -0.299703
     3  C   -0.475756
     4  H    0.149754
     5  H    0.149392
     6  H    0.152046
     7  H    0.152048
     8  H    0.155247
     9  H    0.155255
    10  H    0.160406
    11  C   -0.298429
    12  C   -0.301452
    13  C   -0.484255
    14  H    0.149948
    15  H    0.149926
    16  H    0.151812
    17  H    0.152804
    18  H    0.155847
    19  H    0.155496
    20  H    0.168402
    21  C   -0.299265
    22  C   -0.299694
    23  C   -0.475750
    24  H    0.149587
    25  H    0.150727
    26  H    0.151811
    27  H    0.152304
    28  H    0.155316
    29  H    0.155040
    30  H    0.160189
    31  C   -0.302826
    32  C   -0.301040
    33  C   -0.478275
    34  H    0.149785
    35  H    0.152936
    36  H    0.152205
    37  H    0.153503
    38  H    0.157972
    39  H    0.154841
    40  H    0.160150
 Sum of Mulliken charges =  -0.00000

 Dipole moment (field-independent basis, Debye):
    X=              0.0235    Y=             -0.0077    Z=             -0.0048  Tot=              0.0252
 Quadrupole moment (field-independent basis, Debye-Ang):
   XX=            -84.3098   YY=            -86.5854   ZZ=            -83.8434
   XY=             -1.0117   XZ=             -0.5877   YZ=             -0.4637

 Normal termination of Gaussian 16 at Thu May  6 03:55:45 2021.
