 Gaussian 16, Revision A.03,
 Gaussian 16:  EM64L-G16RevA.03 25-Dec-2016

 -------------
 #p 6-31g* mp2
 -------------

 ------------------------------------------------------
 Input file generated by CHIRIPA (05-May-2021 14:51:10)
 ------------------------------------------------------
 Symbolic Z-matrix:
 Charge =  0 Multiplicity = 1

                         Standard orientation:
 ---------------------------------------------------------------------
 Center     Atomic      Atomic             Coordinates (Angstroms)
 Number     Number       Type             X           Y           Z
 ---------------------------------------------------------------------
      1          6           0       -2.808233    0.113232   -0.115009
      2          6           0       -4.168822   -0.030377   -0.797768
      3          6           0       -4.573817    1.220778   -1.577758
      4          1           0       -2.834751    0.977203    0.563074
      5          1           0       -2.046166    0.335472   -0.874785
      6          1           0       -4.927866   -0.253648   -0.037099
      7          1           0       -4.139121   -0.894221   -1.474161
      8          1           0       -3.838086    1.443780   -2.357226
      9          1           0       -4.631312    2.087993   -0.911999
     10          1           0       -5.549492    1.096312   -2.057785
     11          6           0       -2.389533   -1.129424    0.668714
     12          6           0       -1.028944   -0.985815    1.351473
     13          6           0       -0.623949   -2.236970    2.131463
     14          1           0       -3.151600   -1.351664    1.428490
     15          1           0       -2.363014   -1.993395   -0.009369
     16          1           0       -1.058645   -0.121971    2.027866
     17          1           0       -0.269899   -0.762544    0.590804
     18          1           0       -0.566453   -3.104185    1.465704
     19          1           0       -1.359680   -2.459972    2.910931
     20          1           0        0.351726   -2.112504    2.611490
     21          6           0        2.719388    0.061183   -0.884454
     22          6           0        3.130095   -1.364923   -0.516317
     23          6           0        3.367597   -2.246878   -1.742508
     24          1           0        1.807080    0.027028   -1.495578
     25          1           0        3.500632    0.509385   -1.513873
     26          1           0        2.348952   -1.809821    0.113364
     27          1           0        4.041424   -1.327359    0.094162
     28          1           0        4.161640   -1.828896   -2.369714
     29          1           0        2.459552   -2.314099   -2.350404
     30          1           0        3.660201   -3.261940   -1.456339
     31          6           0        2.478378    0.955009    0.330749
     32          6           0        2.067670    2.381116   -0.037388
     33          6           0        1.830168    3.263070    1.188803
     34          1           0        1.697134    0.506807    0.960167
     35          1           0        3.390686    0.989164    0.941872
     36          1           0        1.156341    2.343551   -0.647866
     37          1           0        2.848813    2.826013   -0.667068
     38          1           0        2.738213    3.330292    1.796699
     39          1           0        1.036125    2.845088    1.816009
     40          1           0        1.537565    4.278131    0.902634
 ---------------------------------------------------------------------

 SCF Done:  E(RHF) =  -470.733099862     A.U. after   11 cycles
 E2 =    -0.1583966737D+01 EUMP2 =    -0.47231706659868D+03

 The electronic state is 1-A.
 Alpha  occ. eigenvalues --  -11.21692 -11.21654 -11.21600 -11.21560 -11.21481
 Alpha  occ. eigenvalues --  -11.21422 -11.21386 -11.21276 -11.21160 -11.21110
 Alpha  occ. eigenvalues --  -11.21082 -11.21038  -1.08523  -1.08397  -1.03608
 Alpha  occ. eigenvalues --   -1.03510  -0.96053  -0.95959  -0.87067  -0.86975
 Alpha  occ. eigenvalues --   -0.79703  -0.79559  -0.78384  -0.78163  -0.65307
 Alpha  occ. eigenvalues --   -0.64915  -0.61036  -0.60869  -0.59423  -0.59325
 Alpha  occ. eigenvalues --   -0.57690  -0.57550  -0.55346  -0.55245  -0.52745
 Alpha  occ. eigenvalues --   -0.52655  -0.52477  -0.52384  -0.50004  -0.49897
 Alpha  occ. eigenvalues --   -0.48052  -0.47869  -0.46755  -0.46595  -0.46080
 Alpha  occ. eigenvalues --   -0.45815  -0.45721  -0.45333  -0.43854  -0.43759
 Alpha virt. eigenvalues --    0.19786   0.23143   0.23580   0.23952   0.25671
 Alpha virt. eigenvalues --    0.26295   0.26675   0.27911   0.28820   0.29799
 Alpha virt. eigenvalues --    0.30679   0.31474   0.31690   0.31741   0.31988

 Mulliken charges:
               1
     1  C   -0.298520
     2  C   -0.299701
     3  C   -0.475784
     4  H    0.149891
     5  H    0.148839
     6  H    0.152193
     7  H    0.152070
     8  H    0.155205
     9  H    0.155356
    10  H    0.160486
    11  C   -0.297702
    12  C   -0.306930
    13  C   -0.477084
    14  H    0.149933
    15  H    0.149816
    16  H    0.151798
    17  H    0.158295
    18  H    0.155508
    19  H    0.155866
    20  H    0.161495
    21  C   -0.298569
    22  C   -0.303284
    23  C   -0.475475
    24  H    0.148386
    25  H    0.149891
    26  H    0.155065
    27  H    0.152177
    28  H    0.155300
    29  H    0.154603
    30  H    0.160351
    31  C   -0.305592
    32  C   -0.299271
    33  C   -0.475848
    34  H    0.158002
    35  H    0.149276
    36  H    0.151902
    37  H    0.151658
    38  H    0.154962
    39  H    0.155363
    40  H    0.160073
 Sum of Mulliken charges =  -0.00000

 Dipole moment (field-independent basis, Debye):
    X=             -0.0330    Y=             -0.0190    Z=              0.0241  Tot=              0.0451
 Quadrupole moment (field-independent basis, Debye-Ang):
   XX=            -83.8130   YY=            -85.8572   ZZ=            -85.0624
   XY=              0.5943   XZ=             -0.4821   YZ=              0.1836

 Normal termination of Gaussian 16 at Wed May  5 18:13:53 2021.
