 Gaussian 16, Revision A.03,
 Gaussian 16:  EM64L-G16RevA.03 25-Dec-2016

 -------------
 #p 6-31g* mp2
 -------------

 ------------------------------------------------------
 Input file generated by CHIRIPA (05-May-2021 14:53:17)
 ------------------------------------------------------
 Symbolic Z-matrix:
 Charge =  0 Multiplicity = 1

                         Standard orientation:
 ---------------------------------------------------------------------
 Center     Atomic      Atomic             Coordinates (Angstroms)
 Number     Number       Type             X           Y           Z
 ---------------------------------------------------------------------
      1          6           0        3.097805    0.470900   -0.522227
      2          6           0        2.900836    1.896224   -0.004888
      3          6           0        1.824245    2.661240   -0.775275
      4          1           0        3.363569    0.507756   -1.587570
      5          1           0        2.143961   -0.070641   -0.456582
      6          1           0        3.855099    2.434492   -0.070199
      7          1           0        2.635697    1.855979    1.059395
      8          1           0        0.859477    2.149217   -0.700072
      9          1           0        2.085807    2.731016   -1.836085
     10          1           0        1.699901    3.677678   -0.388943
     11          6           0        4.170832   -0.306616    0.237911
     12          6           0        4.367801   -1.731940   -0.279428
     13          6           0        5.444392   -2.496956    0.490959
     14          1           0        5.124676    0.234925    0.172266
     15          1           0        3.905068   -0.343472    1.303254
     16          1           0        4.632939   -1.691696   -1.343711
     17          1           0        3.413538   -2.270208   -0.214117
     18          1           0        5.182830   -2.566733    1.551769
     19          1           0        6.409160   -1.984933    0.415756
     20          1           0        5.568735   -3.513394    0.104627
     21          6           0       -1.657130    2.053832    0.805629
     22          6           0       -1.904637    1.801945   -0.547816
     23          6           0       -2.558868    0.631717   -0.944168
     24          6           0       -2.953601   -0.268934    0.043913
     25          6           0       -2.721416   -0.046398    1.400327
     26          6           0       -2.065590    1.130484    1.773675
     27          1           0       -1.148288    2.965478    1.104590
     28          1           0       -1.588552    2.517244   -1.301795
     29          1           0       -2.763196    0.411635   -1.984952
     30          1           0       -3.048420   -0.778255    2.128936
     31          1           0       -1.874706    1.323474    2.825513
     32          7           0       -3.647050   -1.511324   -0.363511
     33          8           0       -3.984749   -2.288917    0.526402
     34          8           0       -3.839745   -1.683992   -1.565048
 ---------------------------------------------------------------------

 SCF Done:  E(RHF) =  -669.534768306     A.U. after   15 cycles
 E2 =    -0.2092453033D+01 EUMP2 =    -0.67162722133983D+03

 The electronic state is 1-A.
 Alpha  occ. eigenvalues --  -20.60808 -20.60802 -15.85862 -11.31246 -11.27823
 Alpha  occ. eigenvalues --  -11.27809 -11.27542 -11.26828 -11.26797 -11.22178
 Alpha  occ. eigenvalues --  -11.21789 -11.21767 -11.21762 -11.21658 -11.21215
 Alpha  occ. eigenvalues --   -1.59883  -1.39436  -1.19429  -1.08841  -1.08776
 Alpha  occ. eigenvalues --   -1.04835  -1.03928  -0.96402  -0.95640  -0.87435
 Alpha  occ. eigenvalues --   -0.86221  -0.82472  -0.80010  -0.78584  -0.77518
 Alpha  occ. eigenvalues --   -0.72080  -0.71207  -0.70521  -0.65448  -0.65073
 Alpha  occ. eigenvalues --   -0.64831  -0.62190  -0.61319  -0.59783  -0.57995
 Alpha  occ. eigenvalues --   -0.55733  -0.55301  -0.53282  -0.53097  -0.52936
 Alpha  occ. eigenvalues --   -0.52689  -0.50311  -0.48841  -0.48833  -0.48310
 Alpha  occ. eigenvalues --   -0.47024  -0.46135  -0.46034  -0.44837  -0.44178
 Alpha  occ. eigenvalues --   -0.37346  -0.36409
 Alpha virt. eigenvalues --    0.05002   0.11088   0.16461   0.20904   0.22611
 Alpha virt. eigenvalues --    0.24026   0.26343   0.26497   0.27097   0.27711
 Alpha virt. eigenvalues --    0.29107   0.30430   0.31206   0.31569   0.31884

 Mulliken charges:
               1
     1  C   -0.299506
     2  C   -0.297348
     3  C   -0.488365
     4  H    0.150542
     5  H    0.152457
     6  H    0.153585
     7  H    0.149296
     8  H    0.161142
     9  H    0.157062
    10  H    0.154077
    11  C   -0.298468
    12  C   -0.300310
    13  C   -0.475915
    14  H    0.149632
    15  H    0.149052
    16  H    0.152585
    17  H    0.153953
    18  H    0.155100
    19  H    0.154952
    20  H    0.161881
    21  C   -0.169488
    22  C   -0.220803
    23  C   -0.172370
    24  C    0.158180
    25  C   -0.170923
    26  C   -0.219313
    27  H    0.228591
    28  H    0.227412
    29  H    0.276153
    30  H    0.275821
    31  H    0.223713
    32  N    0.488100
    33  O   -0.460359
    34  O   -0.460119
 Sum of Mulliken charges =  -0.00000

 Dipole moment (field-independent basis, Debye):
    X=              2.4458    Y=              4.2945    Z=              1.4315  Tot=              5.1452
 Quadrupole moment (field-independent basis, Debye-Ang):
   XX=           -109.8950   YY=            -97.9664   ZZ=            -89.8188
   XY=            -13.1294   XZ=             -5.3854   YZ=             -1.5788

 Normal termination of Gaussian 16 at Thu May  6 05:57:42 2021.
