 Gaussian 16, Revision A.03,
 Gaussian 16:  EM64L-G16RevA.03 25-Dec-2016

 -------------
 #p 6-31g* mp2
 -------------

 ------------------------------------------------------
 Input file generated by CHIRIPA (05-May-2021 14:53:17)
 ------------------------------------------------------
 Symbolic Z-matrix:
 Charge =  0 Multiplicity = 1

                         Standard orientation:
 ---------------------------------------------------------------------
 Center     Atomic      Atomic             Coordinates (Angstroms)
 Number     Number       Type             X           Y           Z
 ---------------------------------------------------------------------
      1          6           0        3.265626   -0.051656    0.023856
      2          6           0        2.320683   -0.219705   -1.166450
      3          6           0        0.857481    0.029567   -0.799440
      4          1           0        2.964008   -0.741844    0.823614
      5          1           0        3.156219    0.963682    0.429458
      6          1           0        2.432846   -1.233974   -1.570546
      7          1           0        2.624703    0.470827   -1.963540
      8          1           0        0.724236    1.046505   -0.416448
      9          1           0        0.531289   -0.667982   -0.021221
     10          1           0        0.199490   -0.095910   -1.664982
     11          6           0        4.731905   -0.297604   -0.327232
     12          6           0        5.676848   -0.129555    0.863074
     13          6           0        7.140050   -0.378826    0.496064
     14          1           0        4.841313   -1.312942   -0.732834
     15          1           0        5.033523    0.392584   -1.126990
     16          1           0        5.372829   -0.820087    1.660164
     17          1           0        5.564685    0.884714    1.267170
     18          1           0        7.466242    0.318723   -0.282155
     19          1           0        7.273296   -1.395765    0.113072
     20          1           0        7.798041   -0.253349    1.361606
     21          6           0       -2.146527    2.461012    0.036538
     22          6           0       -2.327778    1.735769   -1.145703
     23          6           0       -2.868510    0.446956   -1.112225
     24          6           0       -3.218538   -0.088303    0.126431
     25          6           0       -3.050188    0.609176    1.321618
     26          6           0       -2.507674    1.896396    1.264260
     27          1           0       -1.725782    3.461574    0.001255
     28          1           0       -2.048213    2.171734   -2.100597
     29          1           0       -3.019625   -0.136650   -2.012217
     30          1           0       -3.338416    0.147997    2.258452
     31          1           0       -2.368044    2.457308    2.184002
     32          7           0       -3.791930   -1.451868    0.174513
     33          8           0       -4.092248   -1.900984    1.278478
     34          8           0       -3.930178   -2.045695   -0.892678
 ---------------------------------------------------------------------

 SCF Done:  E(RHF) =  -669.534620111     A.U. after   15 cycles
 E2 =    -0.2092636051D+01 EUMP2 =    -0.67162725616217D+03

 The electronic state is 1-A.
 Alpha  occ. eigenvalues --  -20.60752 -20.60747 -15.85805 -11.31166 -11.27722
 Alpha  occ. eigenvalues --  -11.27714 -11.27465 -11.26755 -11.26737 -11.21749
 Alpha  occ. eigenvalues --  -11.21746 -11.21575 -11.21510 -11.21196 -11.21188
 Alpha  occ. eigenvalues --   -1.59828  -1.39382  -1.19336  -1.08739  -1.08589
 Alpha  occ. eigenvalues --   -1.04746  -1.03678  -0.96130  -0.95573  -0.87149
 Alpha  occ. eigenvalues --   -0.86142  -0.82407  -0.79747  -0.78407  -0.77452
 Alpha  occ. eigenvalues --   -0.72025  -0.71149  -0.70454  -0.65224  -0.64995
 Alpha  occ. eigenvalues --   -0.64752  -0.62096  -0.61083  -0.59520  -0.57744
 Alpha  occ. eigenvalues --   -0.55434  -0.55251  -0.53496  -0.52841  -0.52635
 Alpha  occ. eigenvalues --   -0.52313  -0.50073  -0.48783  -0.48779  -0.48054
 Alpha  occ. eigenvalues --   -0.46787  -0.45940  -0.45877  -0.44789  -0.43949
 Alpha  occ. eigenvalues --   -0.37277  -0.36257
 Alpha virt. eigenvalues --    0.05054   0.11300   0.16494   0.21236   0.22725
 Alpha virt. eigenvalues --    0.24135   0.26479   0.26908   0.27303   0.28118
 Alpha virt. eigenvalues --    0.28203   0.30894   0.31220   0.31762   0.31887

 Mulliken charges:
               1
     1  C   -0.298087
     2  C   -0.301110
     3  C   -0.471793
     4  H    0.151215
     5  H    0.146460
     6  H    0.154071
     7  H    0.148845
     8  H    0.151161
     9  H    0.157805
    10  H    0.155884
    11  C   -0.298254
    12  C   -0.299643
    13  C   -0.475763
    14  H    0.150950
    15  H    0.148772
    16  H    0.152746
    17  H    0.150639
    18  H    0.154797
    19  H    0.156047
    20  H    0.160458
    21  C   -0.171690
    22  C   -0.212702
    23  C   -0.170101
    24  C    0.159783
    25  C   -0.171587
    26  C   -0.217616
    27  H    0.225121
    28  H    0.223187
    29  H    0.275080
    30  H    0.275360
    31  H    0.223264
    32  N    0.487871
    33  O   -0.460626
    34  O   -0.460545
 Sum of Mulliken charges =  -0.00000

 Dipole moment (field-independent basis, Debye):
    X=              1.9861    Y=              4.7938    Z=             -0.1557  Tot=              5.1912
 Quadrupole moment (field-independent basis, Debye-Ang):
   XX=           -109.9064   YY=            -95.2734   ZZ=            -89.8770
   XY=            -15.6775   XZ=              0.5575   YZ=              0.7507

 Normal termination of Gaussian 16 at Thu May  6 18:57:30 2021.
