 Gaussian 16, Revision A.03,
 Gaussian 16:  EM64L-G16RevA.03 25-Dec-2016

 -------------
 #p 6-31g* mp2
 -------------

 ------------------------------------------------------
 Input file generated by CHIRIPA (05-May-2021 14:53:12)
 ------------------------------------------------------
 Symbolic Z-matrix:
 Charge =  0 Multiplicity = 1

                         Standard orientation:
 ---------------------------------------------------------------------
 Center     Atomic      Atomic             Coordinates (Angstroms)
 Number     Number       Type             X           Y           Z
 ---------------------------------------------------------------------
      1          6           0        2.985878    0.972428    0.447019
      2          6           0        2.255588    1.974672   -0.447502
      3          6           0        1.106832    2.681876    0.272231
      4          1           0        2.267301    0.227058    0.814463
      5          1           0        3.373357    1.495865    1.332044
      6          1           0        1.870796    1.449762   -1.331256
      7          1           0        2.976024    2.717632   -0.813014
      8          1           0        1.477991    3.230554    1.143893
      9          1           0        0.366483    1.955480    0.622706
     10          1           0        0.598608    3.393793   -0.385600
     11          6           0        4.136915    0.257357   -0.258330
     12          6           0        4.867205   -0.744887    0.636192
     13          6           0        6.015961   -1.452090   -0.083542
     14          1           0        3.749436   -0.266080   -1.143354
     15          1           0        4.855492    1.002728   -0.625774
     16          1           0        4.146769   -1.487847    1.001703
     17          1           0        5.251997   -0.219976    1.519945
     18          1           0        6.756310   -0.725694   -0.434017
     19          1           0        5.644802   -2.000769   -0.955203
     20          1           0        6.524185   -2.164008    0.574289
     21          6           0       -4.688562    1.151468    0.189543
     22          6           0       -3.435974    1.601711   -0.240371
     23          6           0       -2.372593    0.706473   -0.389770
     24          6           0       -2.598055   -0.638146   -0.099157
     25          6           0       -3.834394   -1.117387    0.331059
     26          6           0       -4.883431   -0.204252    0.473385
     27          1           0       -5.509050    1.853862    0.302852
     28          1           0       -3.281740    2.654016   -0.461529
     29          1           0       -1.392605    1.027989   -0.720934
     30          1           0       -3.957629   -2.172340    0.543905
     31          1           0       -5.855130   -0.556752    0.807435
     32          7           0       -1.479894   -1.595367   -0.253575
     33          8           0       -1.704286   -2.774943    0.008884
     34          8           0       -0.400260   -1.147936   -0.634144
 ---------------------------------------------------------------------

 SCF Done:  E(RHF) =  -669.536052086     A.U. after   15 cycles
 E2 =    -0.2091910950D+01 EUMP2 =    -0.67162796303619D+03

 The electronic state is 1-A.
 Alpha  occ. eigenvalues --  -20.60926 -20.60915 -15.85958 -11.31244 -11.27812
 Alpha  occ. eigenvalues --  -11.27760 -11.27543 -11.26817 -11.26795 -11.21192
 Alpha  occ. eigenvalues --  -11.21089 -11.20877 -11.20676 -11.20613 -11.20429
 Alpha  occ. eigenvalues --   -1.59985  -1.39542  -1.19414  -1.08825  -1.07794
 Alpha  occ. eigenvalues --   -1.04805  -1.03038  -0.95678  -0.95509  -0.86556
 Alpha  occ. eigenvalues --   -0.86198  -0.82502  -0.79101  -0.77601  -0.77539
 Alpha  occ. eigenvalues --   -0.72182  -0.71299  -0.70531  -0.65070  -0.64840
 Alpha  occ. eigenvalues --   -0.64373  -0.62193  -0.60390  -0.58914  -0.57114
 Alpha  occ. eigenvalues --   -0.55350  -0.54777  -0.53140  -0.52884  -0.52262
 Alpha  occ. eigenvalues --   -0.51939  -0.49435  -0.48939  -0.48922  -0.47421
 Alpha  occ. eigenvalues --   -0.46090  -0.45183  -0.45069  -0.44827  -0.43252
 Alpha  occ. eigenvalues --   -0.37396  -0.36394
 Alpha virt. eigenvalues --    0.04920   0.11181   0.16442   0.20623   0.23277
 Alpha virt. eigenvalues --    0.24411   0.26990   0.27313   0.28131   0.28249
 Alpha virt. eigenvalues --    0.29605   0.30466   0.31635   0.31945   0.32285

 Mulliken charges:
               1
     1  C   -0.301088
     2  C   -0.299318
     3  C   -0.483050
     4  H    0.164181
     5  H    0.144276
     6  H    0.159252
     7  H    0.149199
     8  H    0.157059
     9  H    0.155481
    10  H    0.151053
    11  C   -0.298757
    12  C   -0.300413
    13  C   -0.475678
    14  H    0.156078
    15  H    0.145063
    16  H    0.157734
    17  H    0.148455
    18  H    0.152441
    19  H    0.157149
    20  H    0.158691
    21  C   -0.170427
    22  C   -0.220566
    23  C   -0.175135
    24  C    0.157124
    25  C   -0.170547
    26  C   -0.218639
    27  H    0.225883
    28  H    0.224517
    29  H    0.284620
    30  H    0.275547
    31  H    0.223629
    32  N    0.488956
    33  O   -0.459096
    34  O   -0.463675
 Sum of Mulliken charges =  -0.00000

 Dipole moment (field-independent basis, Debye):
    X=             -4.0347    Y=              3.1985    Z=              0.5264  Tot=              5.1755
 Quadrupole moment (field-independent basis, Debye-Ang):
   XX=            -73.5888   YY=            -96.8419   ZZ=            -95.3487
   XY=             -3.1805   XZ=             -1.6934   YZ=             -1.9658

 Normal termination of Gaussian 16 at Thu May  6 00:56:32 2021.
