 Gaussian 16, Revision A.03,
 Gaussian 16:  EM64L-G16RevA.03 25-Dec-2016

 -------------
 #p 6-31g* mp2
 -------------

 ------------------------------------------------------
 Input file generated by CHIRIPA (05-May-2021 14:55:22)
 ------------------------------------------------------
 Symbolic Z-matrix:
 Charge =  0 Multiplicity = 1

                         Standard orientation:
 ---------------------------------------------------------------------
 Center     Atomic      Atomic             Coordinates (Angstroms)
 Number     Number       Type             X           Y           Z
 ---------------------------------------------------------------------
      1          6           0       -1.554077    2.260269    0.647999
      2          6           0       -2.948789    2.312482    0.740584
      3          6           0       -3.730761    1.244917    0.289614
      4          6           0       -3.082026    0.135719   -0.250862
      5          6           0       -1.694442    0.053861   -0.356687
      6          6           0       -0.932450    1.133112    0.100624
      7          1           0       -0.954383    3.094118    1.000787
      8          1           0       -3.434271    3.186568    1.165230
      9          1           0       -4.812267    1.259011    0.349306
     10          1           0       -1.239135   -0.830937   -0.784760
     11          1           0        0.150516    1.089803    0.027466
     12          7           0       -3.899288   -1.000650   -0.731640
     13          8           0       -3.303568   -1.966486   -1.203778
     14          8           0       -5.120104   -0.903982   -0.627233
     15          6           0        3.130645   -0.369805    0.631311
     16          6           0        2.578971   -1.735754    1.040975
     17          6           0        1.294544   -1.631927    1.863934
     18          1           0        3.318877    0.228113    1.533535
     19          1           0        2.366387    0.168263    0.053567
     20          1           0        3.344545   -2.271641    1.616594
     21          1           0        2.392210   -2.330561    0.137680
     22          1           0        0.512226   -1.120186    1.294110
     23          1           0        1.469972   -1.060932    2.781427
     24          1           0        0.917541   -2.619921    2.146064
     25          6           0        4.414523   -0.457091   -0.191955
     26          6           0        4.966197    0.908858   -0.601619
     27          6           0        6.250624    0.805030   -1.424578
     28          1           0        5.178781   -0.995160    0.385789
     29          1           0        4.226291   -1.055010   -1.094178
     30          1           0        5.152958    1.503664    0.301676
     31          1           0        4.200623    1.444745   -1.177238
     32          1           0        6.075197    0.234035   -2.342071
     33          1           0        7.032942    0.293290   -0.854753
     34          1           0        6.627627    1.793024   -1.706708
 ---------------------------------------------------------------------

 SCF Done:  E(RHF) =  -669.534549910     A.U. after   15 cycles
 E2 =    -0.2092966810D+01 EUMP2 =    -0.67162751671998D+03

 The electronic state is 1-A.
 Alpha  occ. eigenvalues --  -20.60758 -20.60752 -15.85812 -11.31187 -11.27754
 Alpha  occ. eigenvalues --  -11.27750 -11.27483 -11.26773 -11.26729 -11.22285
 Alpha  occ. eigenvalues --  -11.22214 -11.22191 -11.22013 -11.21561 -11.21544
 Alpha  occ. eigenvalues --   -1.59833  -1.39386  -1.19363  -1.09121  -1.08749
 Alpha  occ. eigenvalues --   -1.04782  -1.04122  -0.96577  -0.95584  -0.87588
 Alpha  occ. eigenvalues --   -0.86163  -0.82435  -0.80190  -0.78972  -0.77463
 Alpha  occ. eigenvalues --   -0.72030  -0.71156  -0.70466  -0.65809  -0.65014
 Alpha  occ. eigenvalues --   -0.64754  -0.62223  -0.61429  -0.59929  -0.58194
 Alpha  occ. eigenvalues --   -0.55902  -0.55258  -0.53254  -0.53209  -0.52926
 Alpha  occ. eigenvalues --   -0.52810  -0.50518  -0.48796  -0.48784  -0.48483
 Alpha  occ. eigenvalues --   -0.47222  -0.46462  -0.46406  -0.44789  -0.44404
 Alpha  occ. eigenvalues --   -0.37333  -0.36316
 Alpha virt. eigenvalues --    0.05028   0.11274   0.16390   0.19526   0.22718
 Alpha virt. eigenvalues --    0.23871   0.24950   0.26447   0.27185   0.28353
 Alpha virt. eigenvalues --    0.29206   0.30239   0.31223   0.31461   0.31660

 Mulliken charges:
               1
     1  C   -0.173899
     2  C   -0.218374
     3  C   -0.171247
     4  C    0.157788
     5  C   -0.173094
     6  C   -0.223321
     7  H    0.226581
     8  H    0.223482
     9  H    0.275661
    10  H    0.275799
    11  H    0.235380
    12  N    0.488216
    13  O   -0.460341
    14  O   -0.460504
    15  C   -0.302880
    16  C   -0.301463
    17  C   -0.481334
    18  H    0.150881
    19  H    0.140421
    20  H    0.155779
    21  H    0.154204
    22  H    0.153303
    23  H    0.155273
    24  H    0.166737
    25  C   -0.297924
    26  C   -0.299908
    27  C   -0.476102
    28  H    0.152968
    29  H    0.152089
    30  H    0.151833
    31  H    0.149088
    32  H    0.156825
    33  H    0.156762
    34  H    0.161321
 Sum of Mulliken charges =  -0.00000

 Dipole moment (field-independent basis, Debye):
    X=              3.0015    Y=              3.9458    Z=              1.7292  Tot=              5.2506
 Quadrupole moment (field-independent basis, Debye-Ang):
   XX=           -108.9958   YY=            -92.7553   ZZ=            -95.5721
   XY=            -14.7031   XZ=             -6.2401   YZ=              0.0286

 Normal termination of Gaussian 16 at Wed May  5 19:00:59 2021.
