 Gaussian 16, Revision A.03,
 Gaussian 16:  EM64L-G16RevA.03 25-Dec-2016

 -------------
 #p 6-31g* mp2
 -------------

 ------------------------------------------------------
 Input file generated by CHIRIPA (05-May-2021 14:57:26)
 ------------------------------------------------------
 Symbolic Z-matrix:
 Charge =  0 Multiplicity = 1

                         Standard orientation:
 ---------------------------------------------------------------------
 Center     Atomic      Atomic             Coordinates (Angstroms)
 Number     Number       Type             X           Y           Z
 ---------------------------------------------------------------------
      1          6           0        2.257828    2.136492    1.030604
      2          6           0        2.268660    1.938108   -0.353971
      3          6           0        2.796538    0.763809   -0.898869
      4          6           0        3.307630   -0.195427   -0.025976
      5          6           0        3.311084   -0.027049    1.357833
      6          6           0        2.778158    1.155011    1.880588
      7          1           0        1.845799    3.051730    1.445294
      8          1           0        1.865243    2.698616   -1.016487
      9          1           0        2.817494    0.584395   -1.966946
     10          1           0        3.720369   -0.803325    1.992891
     11          1           0        2.771063    1.306370    2.956267
     12          7           0        3.869143   -1.442712   -0.591115
     13          8           0        4.313389   -2.272464    0.199324
     14          8           0        3.854378   -1.566965   -1.813809
     15          6           0       -5.406041   -1.162465    0.420472
     16          6           0       -5.315348   -0.248740   -0.634708
     17          6           0       -4.106497    0.395631   -0.914016
     18          6           0       -3.003272    0.101261   -0.114308
     19          6           0       -3.061921   -0.804191    0.943995
     20          6           0       -4.281021   -1.436790    1.205072
     21          1           0       -6.349086   -1.658455    0.630363
     22          1           0       -6.187420   -0.033748   -1.245703
     23          1           0       -4.008305    1.107342   -1.724722
     24          1           0       -2.175387   -0.997989    1.535533
     25          1           0       -4.348522   -2.145947    2.025186
     26          7           0       -1.718091    0.777197   -0.400349
     27          8           0       -0.760679    0.500534    0.318996
     28          8           0       -1.692513    1.570859   -1.338477
 ---------------------------------------------------------------------

 SCF Done:  E(RHF) =  -868.338451430     A.U. after   16 cycles
 E2 =    -0.2600127696D+01 EUMP2 =    -0.87093857912600D+03

 The electronic state is 1-A.
 Alpha  occ. eigenvalues --  -20.61310 -20.61294 -20.59690 -20.59677 -15.86333
 Alpha  occ. eigenvalues --  -15.84725 -11.31541 -11.29731 -11.28096 -11.28086
 Alpha  occ. eigenvalues --  -11.27802 -11.27072 -11.27059 -11.26326 -11.26177
 Alpha  occ. eigenvalues --  -11.25921 -11.25311 -11.25091  -1.60381  -1.58768
 Alpha  occ. eigenvalues --   -1.39936  -1.38332  -1.19700  -1.17841  -1.09127
 Alpha  occ. eigenvalues --   -1.07316  -1.05078  -1.03214  -0.95988  -0.94226
 Alpha  occ. eigenvalues --   -0.86484  -0.84655  -0.82823  -0.81090  -0.77891
 Alpha  occ. eigenvalues --   -0.76177  -0.72569  -0.71691  -0.70964  -0.70806
 Alpha  occ. eigenvalues --   -0.70080  -0.69025  -0.65355  -0.65081  -0.63533
 Alpha  occ. eigenvalues --   -0.63269  -0.62428  -0.60616  -0.55589  -0.53777
 Alpha  occ. eigenvalues --   -0.53416  -0.53170  -0.51628  -0.51357  -0.49338
 Alpha  occ. eigenvalues --   -0.49175  -0.47730  -0.47683  -0.45380  -0.43820
 Alpha  occ. eigenvalues --   -0.37672  -0.36674  -0.35723  -0.34714
 Alpha virt. eigenvalues --    0.04614   0.06365   0.10983   0.12897   0.16153
 Alpha virt. eigenvalues --    0.17967   0.21146   0.22803   0.27060   0.28027
 Alpha virt. eigenvalues --    0.28713   0.29622   0.30719   0.32206   0.32328

 Mulliken charges:
               1
     1  C   -0.160300
     2  C   -0.197885
     3  C   -0.169457
     4  C    0.158676
     5  C   -0.173381
     6  C   -0.217715
     7  H    0.220035
     8  H    0.225281
     9  H    0.271368
    10  H    0.268463
    11  H    0.215423
    12  N    0.487885
    13  O   -0.466383
    14  O   -0.463831
    15  C   -0.170126
    16  C   -0.218477
    17  C   -0.170673
    18  C    0.157879
    19  C   -0.170592
    20  C   -0.218392
    21  H    0.227014
    22  H    0.224455
    23  H    0.275227
    24  H    0.275951
    25  H    0.224892
    26  N    0.488585
    27  O   -0.458355
    28  O   -0.465566
 Sum of Mulliken charges =  -0.00000

 Dipole moment (field-independent basis, Debye):
    X=             -6.9462    Y=              2.1607    Z=              2.9363  Tot=              7.8448
 Quadrupole moment (field-independent basis, Debye-Ang):
   XX=            -91.8784   YY=           -106.5729   ZZ=            -98.8272
   XY=             20.9541   XZ=              6.7262   YZ=             -4.2065

 Normal termination of Gaussian 16 at Fri May  7 05:03:19 2021.
