 Gaussian 16, Revision A.03,
 Gaussian 16:  EM64L-G16RevA.03 25-Dec-2016

 -------------
 #p 6-31g* mp2
 -------------

 ------------------------------------------------------
 Input file generated by CHIRIPA (05-May-2021 14:51:13)
 ------------------------------------------------------
 Symbolic Z-matrix:
 Charge =  0 Multiplicity = 1

                         Standard orientation:
 ---------------------------------------------------------------------
 Center     Atomic      Atomic             Coordinates (Angstroms)
 Number     Number       Type             X           Y           Z
 ---------------------------------------------------------------------
      1          6           0       -3.911990   -0.048817   -0.260488
      2          6           0       -4.328987    1.370357    0.126868
      3          6           0       -5.595669    1.831955   -0.594407
      4          1           0       -3.754291   -0.094210   -1.346773
      5          1           0       -4.735919   -0.740003   -0.035102
      6          1           0       -3.503998    2.058462   -0.097899
      7          1           0       -4.485525    1.412425    1.212383
      8          1           0       -6.435029    1.168797   -0.361389
      9          1           0       -5.447924    1.818505   -1.679116
     10          1           0       -5.875725    2.848990   -0.302745
     11          6           0       -2.647335   -0.524496    0.452326
     12          6           0       -2.230338   -1.943670    0.064970
     13          6           0       -0.963656   -2.405268    0.786246
     14          1           0       -1.823406    0.166690    0.226940
     15          1           0       -2.805034   -0.479103    1.538611
     16          1           0       -2.073800   -1.985738   -1.020544
     17          1           0       -3.055327   -2.631775    0.289738
     18          1           0       -1.111401   -2.391818    1.870954
     19          1           0       -0.124296   -1.742110    0.553227
     20          1           0       -0.683600   -3.422303    0.494583
     21          6           0        3.606291    0.949771   -0.288336
     22          6           0        3.094974    2.137053    0.528304
     23          6           0        3.757825    3.456589    0.131758
     24          1           0        4.694526    0.867561   -0.162112
     25          1           0        3.429169    1.144059   -1.355236
     26          1           0        3.271754    1.939974    1.593445
     27          1           0        2.007804    2.216330    0.400274
     28          1           0        3.570526    3.679924   -0.923535
     29          1           0        4.841658    3.401998    0.276416
     30          1           0        3.377627    4.291944    0.727990
     31          6           0        2.953034   -0.376458    0.096498
     32          6           0        3.464351   -1.563740   -0.720142
     33          6           0        2.801500   -2.883276   -0.323597
     34          1           0        3.130156   -0.570747    1.163397
     35          1           0        1.864800   -0.294248   -0.029726
     36          1           0        4.551522   -1.643018   -0.592112
     37          1           0        3.287571   -1.366661   -1.785283
     38          1           0        1.717667   -2.828685   -0.468255
     39          1           0        2.988799   -3.106611    0.731695
     40          1           0        3.181698   -3.718631   -0.919828
 ---------------------------------------------------------------------

 SCF Done:  E(RHF) =  -470.732403581     A.U. after   11 cycles
 E2 =    -0.1583418248D+01 EUMP2 =    -0.47231582182925D+03

 The electronic state is 1-A.
 Alpha  occ. eigenvalues --  -11.21619 -11.21615 -11.21613 -11.21567 -11.21428
 Alpha  occ. eigenvalues --  -11.21418 -11.21369 -11.21359 -11.21085 -11.21082
 Alpha  occ. eigenvalues --  -11.21027 -11.20914  -1.08458  -1.08424  -1.03570
 Alpha  occ. eigenvalues --   -1.03487  -0.96031  -0.95924  -0.87069  -0.86924
 Alpha  occ. eigenvalues --   -0.79700  -0.79494  -0.78308  -0.78201  -0.65161
 Alpha  occ. eigenvalues --   -0.65001  -0.61102  -0.60783  -0.59378  -0.59328
 Alpha  occ. eigenvalues --   -0.57617  -0.57561  -0.55413  -0.55138  -0.52786
 Alpha  occ. eigenvalues --   -0.52648  -0.52416  -0.52286  -0.50084  -0.49800
 Alpha  occ. eigenvalues --   -0.48005  -0.47810  -0.46820  -0.46474  -0.45924
 Alpha  occ. eigenvalues --   -0.45770  -0.45735  -0.45404  -0.43782  -0.43770
 Alpha virt. eigenvalues --    0.21229   0.23231   0.23539   0.24807   0.25615
 Alpha virt. eigenvalues --    0.27009   0.27072   0.27126   0.28275   0.29251
 Alpha virt. eigenvalues --    0.30449   0.31261   0.31706   0.31791   0.32064

 Mulliken charges:
               1
     1  C   -0.298297
     2  C   -0.299638
     3  C   -0.475717
     4  H    0.149531
     5  H    0.149728
     6  H    0.151784
     7  H    0.152066
     8  H    0.155247
     9  H    0.155147
    10  H    0.160322
    11  C   -0.298369
    12  C   -0.299976
    13  C   -0.484144
    14  H    0.148728
    15  H    0.150038
    16  H    0.151423
    17  H    0.152180
    18  H    0.155566
    19  H    0.163193
    20  H    0.161651
    21  C   -0.297960
    22  C   -0.299533
    23  C   -0.475718
    24  H    0.149997
    25  H    0.149311
    26  H    0.152205
    27  H    0.151429
    28  H    0.155089
    29  H    0.155287
    30  H    0.160327
    31  C   -0.302407
    32  C   -0.299661
    33  C   -0.481749
    34  H    0.150129
    35  H    0.152045
    36  H    0.151733
    37  H    0.151168
    38  H    0.163964
    39  H    0.154814
    40  H    0.159064
 Sum of Mulliken charges =  -0.00000

 Dipole moment (field-independent basis, Debye):
    X=             -0.0173    Y=             -0.0069    Z=              0.0217  Tot=              0.0286
 Quadrupole moment (field-independent basis, Debye-Ang):
   XX=            -84.9767   YY=            -85.9306   ZZ=            -83.9364
   XY=              0.1996   XZ=             -0.2242   YZ=             -0.0488

 Normal termination of Gaussian 16 at Thu May  6 05:34:32 2021.
