 Gaussian 16, Revision A.03,
 Gaussian 16:  EM64L-G16RevA.03 25-Dec-2016

 -------------
 #p 6-31g* mp2
 -------------

 ------------------------------------------------------
 Input file generated by CHIRIPA (05-May-2021 14:53:13)
 ------------------------------------------------------
 Symbolic Z-matrix:
 Charge =  0 Multiplicity = 1

                         Standard orientation:
 ---------------------------------------------------------------------
 Center     Atomic      Atomic             Coordinates (Angstroms)
 Number     Number       Type             X           Y           Z
 ---------------------------------------------------------------------
      1          6           0       -3.743186    0.366680    0.098707
      2          6           0       -3.618522    1.825285    0.540198
      3          6           0       -2.166391    2.297860    0.616236
      4          1           0       -3.184886   -0.270485    0.798184
      5          1           0       -3.265448    0.246029   -0.883436
      6          1           0       -4.097568    1.943441    1.520591
      7          1           0       -4.177342    2.459032   -0.160302
      8          1           0       -1.680585    2.208690   -0.360822
      9          1           0       -1.600357    1.690170    1.329622
     10          1           0       -2.100490    3.343185    0.933748
     11          6           0       -5.188860   -0.120378    0.017920
     12          6           0       -5.313524   -1.578984   -0.423571
     13          6           0       -6.765655   -2.051559   -0.499609
     14          1           0       -5.666598    0.000273    1.000063
     15          1           0       -5.747160    0.516786   -0.681557
     16          1           0       -4.754704   -2.212731    0.276929
     17          1           0       -4.834479   -1.697140   -1.403964
     18          1           0       -7.331689   -1.443868   -1.212995
     19          1           0       -7.251461   -1.962389    0.477449
     20          1           0       -6.831556   -3.096884   -0.817121
     21          6           0        2.091186    1.976855   -0.383508
     22          6           0        3.436902    1.970146   -0.764987
     23          6           0        4.220946    0.827124   -0.582443
     24          6           0        3.624224   -0.296628   -0.012885
     25          6           0        2.286192   -0.321023    0.377454
     26          6           0        1.521131    0.833265    0.185492
     27          1           0        1.489495    2.869158   -0.528971
     28          1           0        3.882274    2.856826   -1.207124
     29          1           0        5.265169    0.794507   -0.868714
     30          1           0        1.870253   -1.220147    0.815619
     31          1           0        0.476284    0.835601    0.482703
     32          7           0        4.444208   -1.512658    0.185351
     33          8           0        3.894829   -2.489819    0.689311
     34          8           0        5.620763   -1.465594   -0.166983
 ---------------------------------------------------------------------

 SCF Done:  E(RHF) =  -669.535493493     A.U. after   15 cycles
 E2 =    -0.2091224583D+01 EUMP2 =    -0.67162671807634D+03

 The electronic state is 1-A.
 Alpha  occ. eigenvalues --  -20.60686 -20.60680 -15.85736 -11.31077 -11.27645
 Alpha  occ. eigenvalues --  -11.27621 -11.27359 -11.26660 -11.26556 -11.22550
 Alpha  occ. eigenvalues --  -11.22413 -11.22173 -11.22049 -11.21947 -11.21418
 Alpha  occ. eigenvalues --   -1.59761  -1.39316  -1.19240  -1.09149  -1.08638
 Alpha  occ. eigenvalues --   -1.04640  -1.04280  -0.96766  -0.95479  -0.87801
 Alpha  occ. eigenvalues --   -0.86031  -0.82313  -0.80373  -0.78915  -0.77364
 Alpha  occ. eigenvalues --   -0.71956  -0.71084  -0.70348  -0.65773  -0.64888
 Alpha  occ. eigenvalues --   -0.64664  -0.62025  -0.61667  -0.60143  -0.58334
 Alpha  occ. eigenvalues --   -0.56071  -0.55129  -0.53470  -0.53317  -0.52972
 Alpha  occ. eigenvalues --   -0.52581  -0.50709  -0.48773  -0.48713  -0.48583
 Alpha  occ. eigenvalues --   -0.47376  -0.46463  -0.46351  -0.44727  -0.44509
 Alpha  occ. eigenvalues --   -0.37221  -0.36241
 Alpha virt. eigenvalues --    0.05162   0.11379   0.16661   0.20262   0.22377
 Alpha virt. eigenvalues --    0.23767   0.25507   0.25832   0.26974   0.27715
 Alpha virt. eigenvalues --    0.29140   0.29937   0.30946   0.31500   0.31880

 Mulliken charges:
               1
     1  C   -0.299810
     2  C   -0.298903
     3  C   -0.484734
     4  H    0.148325
     5  H    0.150032
     6  H    0.156005
     7  H    0.155430
     8  H    0.152656
     9  H    0.153298
    10  H    0.164638
    11  C   -0.298786
    12  C   -0.300396
    13  C   -0.476190
    14  H    0.151045
    15  H    0.150933
    16  H    0.152931
    17  H    0.152778
    18  H    0.155636
    19  H    0.155891
    20  H    0.162263
    21  C   -0.174465
    22  C   -0.218496
    23  C   -0.171588
    24  C    0.158932
    25  C   -0.172992
    26  C   -0.224987
    27  H    0.226388
    28  H    0.222815
    29  H    0.275089
    30  H    0.275321
    31  H    0.234507
    32  N    0.488019
    33  O   -0.460753
    34  O   -0.460832
 Sum of Mulliken charges =  -0.00000

 Dipole moment (field-independent basis, Debye):
    X=             -3.1906    Y=              4.3066    Z=             -0.6957  Tot=              5.4047
 Quadrupole moment (field-independent basis, Debye-Ang):
   XX=           -112.9470   YY=            -96.7138   ZZ=            -93.7752
   XY=             18.1015   XZ=             -4.4046   YZ=             -1.2446

 Normal termination of Gaussian 16 at Thu May  6 20:19:24 2021.
