 Gaussian 16, Revision A.03,
 Gaussian 16:  EM64L-G16RevA.03 25-Dec-2016

 -------------
 #p 6-31g* mp2
 -------------

 ------------------------------------------------------
 Input file generated by CHIRIPA (05-May-2021 14:51:11)
 ------------------------------------------------------
 Symbolic Z-matrix:
 Charge =  0 Multiplicity = 1

                         Standard orientation:
 ---------------------------------------------------------------------
 Center     Atomic      Atomic             Coordinates (Angstroms)
 Number     Number       Type             X           Y           Z
 ---------------------------------------------------------------------
      1          6           0        3.998098   -0.637160    0.046686
      2          6           0        4.624550    0.501931   -0.758308
      3          6           0        6.147351    0.396089   -0.845888
      4          1           0        4.425633   -0.640790    1.058687
      5          1           0        4.274088   -1.596439   -0.412670
      6          1           0        4.346319    1.458835   -0.298374
      7          1           0        4.195334    0.502969   -1.768451
      8          1           0        6.441305   -0.543597   -1.324618
      9          1           0        6.593149    0.417700    0.153811
     10          1           0        6.574389    1.220315   -1.425672
     11          6           0        2.476271   -0.545217    0.143204
     12          6           0        1.849819   -1.684307    0.948198
     13          6           0        0.327019   -1.578465    1.035778
     14          1           0        2.200281    0.414063    0.602560
     15          1           0        2.048736   -0.541586   -0.868797
     16          1           0        2.279036   -1.685345    1.958341
     17          1           0        2.128050   -2.641211    0.488264
     18          1           0       -0.118779   -1.600076    0.036079
     19          1           0        0.033064   -0.638779    1.514508
     20          1           0       -0.100020   -2.402692    1.615562
     21          6           0       -2.504106    0.774645    0.016281
     22          6           0       -2.294756    2.246848    0.372337
     23          6           0       -0.823026    2.598459    0.591819
     24          1           0       -2.091563    0.147699    0.818586
     25          1           0       -1.930603    0.538873   -0.890858
     26          1           0       -2.869587    2.480119    1.277748
     27          1           0       -2.708017    2.870364   -0.430820
     28          1           0       -0.239177    2.393664   -0.311387
     29          1           0       -0.401665    2.001201    1.406889
     30          1           0       -0.696303    3.655612    0.845261
     31          6           0       -3.970263    0.407732   -0.206170
     32          6           0       -4.179614   -1.064472   -0.562226
     33          6           0       -5.651344   -1.416083   -0.781710
     34          1           0       -4.543767    0.643503    0.700968
     35          1           0       -4.382807    1.034676   -1.008476
     36          1           0       -3.766353   -1.687988    0.240930
     37          1           0       -3.604783   -1.297742   -1.467638
     38          1           0       -6.072705   -0.818825   -1.596779
     39          1           0       -6.235192   -1.211287    0.121497
     40          1           0       -5.778066   -2.473234   -1.035151
 ---------------------------------------------------------------------

 SCF Done:  E(RHF) =  -470.732304571     A.U. after   11 cycles
 E2 =    -0.1583914089D+01 EUMP2 =    -0.47231621865967D+03

 The electronic state is 1-A.
 Alpha  occ. eigenvalues --  -11.21574 -11.21556 -11.21554 -11.21550 -11.21364
 Alpha  occ. eigenvalues --  -11.21312 -11.21302 -11.21212 -11.21067 -11.21051
 Alpha  occ. eigenvalues --  -11.21035 -11.20989  -1.08410  -1.08349  -1.03525
 Alpha  occ. eigenvalues --   -1.03460  -0.95979  -0.95905  -0.87022  -0.86906
 Alpha  occ. eigenvalues --   -0.79683  -0.79475  -0.78312  -0.78032  -0.65074
 Alpha  occ. eigenvalues --   -0.64961  -0.60990  -0.60807  -0.59383  -0.59243
 Alpha  occ. eigenvalues --   -0.57648  -0.57463  -0.55247  -0.55218  -0.52717
 Alpha  occ. eigenvalues --   -0.52630  -0.52535  -0.52172  -0.49920  -0.49870
 Alpha  occ. eigenvalues --   -0.48180  -0.47702  -0.46717  -0.46466  -0.46001
 Alpha  occ. eigenvalues --   -0.45714  -0.45580  -0.45180  -0.43750  -0.43723
 Alpha virt. eigenvalues --    0.21298   0.23023   0.23493   0.24734   0.25432
 Alpha virt. eigenvalues --    0.25967   0.26530   0.27502   0.28466   0.29781
 Alpha virt. eigenvalues --    0.30114   0.31634   0.31700   0.31796   0.32288

 Mulliken charges:
               1
     1  C   -0.298206
     2  C   -0.299657
     3  C   -0.475669
     4  H    0.149522
     5  H    0.149353
     6  H    0.152264
     7  H    0.151647
     8  H    0.155082
     9  H    0.155154
    10  H    0.160162
    11  C   -0.299877
    12  C   -0.300243
    13  C   -0.479363
    14  H    0.152299
    15  H    0.148930
    16  H    0.151318
    17  H    0.151536
    18  H    0.158276
    19  H    0.158097
    20  H    0.158849
    21  C   -0.303248
    22  C   -0.299888
    23  C   -0.478246
    24  H    0.159189
    25  H    0.148522
    26  H    0.151348
    27  H    0.151555
    28  H    0.156880
    29  H    0.155686
    30  H    0.159986
    31  C   -0.297756
    32  C   -0.299895
    33  C   -0.475586
    34  H    0.148970
    35  H    0.148942
    36  H    0.152709
    37  H    0.151207
    38  H    0.155031
    39  H    0.155092
    40  H    0.160028
 Sum of Mulliken charges =  -0.00000

 Dipole moment (field-independent basis, Debye):
    X=              0.0006    Y=             -0.0018    Z=              0.0096  Tot=              0.0097
 Quadrupole moment (field-independent basis, Debye-Ang):
   XX=            -87.2646   YY=            -84.7099   ZZ=            -83.1276
   XY=             -0.3306   XZ=             -0.0962   YZ=              0.1970

 Normal termination of Gaussian 16 at Thu May  6 03:52:46 2021.
