 Gaussian 16, Revision A.03,
 Gaussian 16:  EM64L-G16RevA.03 25-Dec-2016

 -------------
 #p 6-31g* mp2
 -------------

 ------------------------------------------------------
 Input file generated by CHIRIPA (05-May-2021 14:57:23)
 ------------------------------------------------------
 Symbolic Z-matrix:
 Charge =  0 Multiplicity = 1

                         Standard orientation:
 ---------------------------------------------------------------------
 Center     Atomic      Atomic             Coordinates (Angstroms)
 Number     Number       Type             X           Y           Z
 ---------------------------------------------------------------------
      1          6           0        3.268939    2.301060   -0.281567
      2          6           0        3.658758    1.184653   -1.028693
      3          6           0        3.235004   -0.096806   -0.664217
      4          6           0        2.418354   -0.225918    0.458148
      5          6           0        2.013010    0.866905    1.222820
      6          6           0        2.448755    2.138909    0.839828
      7          1           0        3.602779    3.292855   -0.571892
      8          1           0        4.295676    1.307581   -1.900054
      9          1           0        3.521826   -0.978279   -1.224714
     10          1           0        1.377593    0.712747    2.086473
     11          1           0        2.144448    3.004123    1.421933
     12          7           0        1.963398   -1.577536    0.853803
     13          8           0        1.244356   -1.664591    1.846798
     14          8           0        2.334458   -2.524287    0.163431
     15          6           0       -4.468047    1.065699    0.763539
     16          6           0       -4.389022   -0.326213    0.650148
     17          6           0       -3.299510   -0.925824    0.011415
     18          6           0       -2.302429   -0.099567   -0.504743
     19          6           0       -2.352546    1.290161   -0.407616
     20          6           0       -3.451350    1.868028    0.235227
     21          1           0       -5.318015    1.523046    1.261319
     22          1           0       -5.177134   -0.951799    1.059497
     23          1           0       -3.213079   -2.000808   -0.090353
     24          1           0       -1.551441    1.887583   -0.825628
     25          1           0       -3.510074    2.949277    0.321824
     26          7           0       -1.144093   -0.722839   -1.183116
     27          8           0       -0.278729    0.027206   -1.629450
     28          8           0       -1.123487   -1.949605   -1.255646
 ---------------------------------------------------------------------

 SCF Done:  E(RHF) =  -868.337210154     A.U. after   16 cycles
 E2 =    -0.2602110164D+01 EUMP2 =    -0.87093932031811D+03

 The electronic state is 1-A.
 Alpha  occ. eigenvalues --  -20.60626 -20.60558 -20.59770 -20.59675 -15.85611
 Alpha  occ. eigenvalues --  -15.84771 -11.31005 -11.30132 -11.27634 -11.27529
 Alpha  occ. eigenvalues --  -11.27357 -11.26842 -11.26686 -11.26659 -11.26603
 Alpha  occ. eigenvalues --  -11.26574 -11.25918 -11.25778  -1.59667  -1.58781
 Alpha  occ. eigenvalues --   -1.39211  -1.38344  -1.19187  -1.18341  -1.08585
 Alpha  occ. eigenvalues --   -1.07764  -1.04600  -1.03794  -0.95413  -0.94597
 Alpha  occ. eigenvalues --   -0.85996  -0.85210  -0.82247  -0.81453  -0.77288
 Alpha  occ. eigenvalues --   -0.76473  -0.71838  -0.71162  -0.71020  -0.70307
 Alpha  occ. eigenvalues --   -0.69906  -0.69545  -0.64846  -0.64613  -0.64049
 Alpha  occ. eigenvalues --   -0.63864  -0.61947  -0.61175  -0.55114  -0.54363
 Alpha  occ. eigenvalues --   -0.52926  -0.52698  -0.52075  -0.51941  -0.48638
 Alpha  occ. eigenvalues --   -0.48573  -0.47783  -0.47745  -0.44595  -0.43746
 Alpha  occ. eigenvalues --   -0.37181  -0.36268  -0.36202  -0.35359
 Alpha virt. eigenvalues --    0.05240   0.06105   0.11437   0.12282   0.16695
 Alpha virt. eigenvalues --    0.17591   0.21547   0.22179   0.27441   0.28051
 Alpha virt. eigenvalues --    0.28465   0.29101   0.31059   0.31636   0.32711

 Mulliken charges:
               1
     1  C   -0.170746
     2  C   -0.216944
     3  C   -0.157682
     4  C    0.170936
     5  C   -0.174222
     6  C   -0.220290
     7  H    0.220338
     8  H    0.220585
     9  H    0.276498
    10  H    0.269448
    11  H    0.215648
    12  N    0.488118
    13  O   -0.470785
    14  O   -0.452541
    15  C   -0.170768
    16  C   -0.218556
    17  C   -0.167140
    18  C    0.160205
    19  C   -0.173042
    20  C   -0.219246
    21  H    0.224701
    22  H    0.224242
    23  H    0.279646
    24  H    0.272650
    25  H    0.220434
    26  N    0.485174
    27  O   -0.467345
    28  O   -0.449316
 Sum of Mulliken charges =  -0.00000

 Dipole moment (field-independent basis, Debye):
    X=             -2.5553    Y=              6.5313    Z=              0.7570  Tot=              7.0541
 Quadrupole moment (field-independent basis, Debye-Ang):
   XX=            -77.3759   YY=           -103.3889   ZZ=           -106.9036
   XY=              7.2496   XZ=             -9.4503   YZ=              2.1466

 Normal termination of Gaussian 16 at Fri May  7 09:31:43 2021.
