 Gaussian 16, Revision A.03,
 Gaussian 16:  EM64L-G16RevA.03 25-Dec-2016

 -------------
 #p 6-31g* mp2
 -------------

 ------------------------------------------------------
 Input file generated by CHIRIPA (05-May-2021 14:53:11)
 ------------------------------------------------------
 Symbolic Z-matrix:
 Charge =  0 Multiplicity = 1

                         Standard orientation:
 ---------------------------------------------------------------------
 Center     Atomic      Atomic             Coordinates (Angstroms)
 Number     Number       Type             X           Y           Z
 ---------------------------------------------------------------------
      1          6           0       -5.771386    0.083572   -0.047518
      2          6           0       -6.373887   -1.312910   -0.205048
      3          6           0       -7.900191   -1.311875   -0.114559
      4          1           0       -6.082544    0.503338    0.918878
      5          1           0       -6.185131    0.743389   -0.822665
      6          1           0       -5.958084   -1.970250    0.569308
      7          1           0       -6.061102   -1.729478   -1.171098
      8          1           0       -8.332025   -0.678711   -0.896367
      9          1           0       -8.228421   -0.920852    0.853928
     10          1           0       -8.309877   -2.320208   -0.229804
     11          6           0       -4.246354    0.098875   -0.135671
     12          6           0       -3.643854    1.495357    0.021858
     13          6           0       -2.117550    1.494323   -0.068630
     14          1           0       -3.832610   -0.560942    0.639475
     15          1           0       -3.935197   -0.320891   -1.102068
     16          1           0       -3.956638    1.911925    0.987909
     17          1           0       -4.059657    2.152697   -0.752498
     18          1           0       -1.789320    1.103299   -1.037118
     19          1           0       -1.685716    0.861159    0.713178
     20          1           0       -1.707864    2.502656    0.046615
     21          6           0        1.641628    0.721052    0.831952
     22          6           0        2.038337    0.904490   -0.496767
     23          6           0        3.294656    0.469472   -0.929166
     24          6           0        4.132786   -0.147867   -0.001954
     25          6           0        3.766299   -0.345035    1.328498
     26          6           0        2.505352    0.097974    1.738746
     27          1           0        0.663890    1.062088    1.159246
     28          1           0        1.369631    1.388062   -1.203190
     29          1           0        3.627158    0.598773   -1.951976
     30          1           0        4.454750   -0.830445    2.009550
     31          1           0        2.199923   -0.045819    2.771258
     32          7           0        5.465244   -0.612631   -0.447989
     33          8           0        6.185189   -1.153670    0.388428
     34          8           0        5.764450   -0.427073   -1.625563
 ---------------------------------------------------------------------

 SCF Done:  E(RHF) =  -669.535520096     A.U. after   15 cycles
 E2 =    -0.2091045835D+01 EUMP2 =    -0.67162656593116D+03

 The electronic state is 1-A.
 Alpha  occ. eigenvalues --  -20.60687 -20.60682 -15.85740 -11.31080 -11.27654
 Alpha  occ. eigenvalues --  -11.27646 -11.27316 -11.26650 -11.26627 -11.22600
 Alpha  occ. eigenvalues --  -11.22466 -11.22166 -11.22106 -11.21985 -11.21488
 Alpha  occ. eigenvalues --   -1.59763  -1.39318  -1.19248  -1.09179  -1.08639
 Alpha  occ. eigenvalues --   -1.04651  -1.04331  -0.96816  -0.95479  -0.87848
 Alpha  occ. eigenvalues --   -0.86042  -0.82320  -0.80415  -0.78938  -0.77374
 Alpha  occ. eigenvalues --   -0.71958  -0.71087  -0.70355  -0.65805  -0.64895
 Alpha  occ. eigenvalues --   -0.64653  -0.62004  -0.61732  -0.60205  -0.58388
 Alpha  occ. eigenvalues --   -0.56195  -0.55113  -0.53496  -0.53223  -0.52962
 Alpha  occ. eigenvalues --   -0.52735  -0.50738  -0.48727  -0.48714  -0.48695
 Alpha  occ. eigenvalues --   -0.47410  -0.46493  -0.46382  -0.44729  -0.44562
 Alpha  occ. eigenvalues --   -0.37212  -0.36261
 Alpha virt. eigenvalues --    0.05155   0.11384   0.16624   0.20205   0.22283
 Alpha virt. eigenvalues --    0.23766   0.25531   0.25789   0.26897   0.27288
 Alpha virt. eigenvalues --    0.29191   0.29691   0.30683   0.31488   0.32082

 Mulliken charges:
               1
     1  C   -0.298999
     2  C   -0.300183
     3  C   -0.476114
     4  H    0.150396
     5  H    0.150837
     6  H    0.152372
     7  H    0.152951
     8  H    0.155917
     9  H    0.155617
    10  H    0.161877
    11  C   -0.299232
    12  C   -0.299507
    13  C   -0.483346
    14  H    0.149748
    15  H    0.151257
    16  H    0.154339
    17  H    0.155737
    18  H    0.157406
    19  H    0.150666
    20  H    0.160060
    21  C   -0.175037
    22  C   -0.221747
    23  C   -0.171115
    24  C    0.158217
    25  C   -0.170848
    26  C   -0.219881
    27  H    0.234502
    28  H    0.224636
    29  H    0.275084
    30  H    0.275068
    31  H    0.222846
    32  N    0.488070
    33  O   -0.460794
    34  O   -0.460797
 Sum of Mulliken charges =  -0.00000

 Dipole moment (field-independent basis, Debye):
    X=             -4.9977    Y=              1.6386    Z=              1.5415  Tot=              5.4807
 Quadrupole moment (field-independent basis, Debye-Ang):
   XX=           -134.4700   YY=            -95.4515   ZZ=            -89.5731
   XY=              6.9383   XZ=              7.7431   YZ=             -2.1908

 Normal termination of Gaussian 16 at Wed May  5 16:56:53 2021.
