 Gaussian 16, Revision A.03,
 Gaussian 16:  EM64L-G16RevA.03 25-Dec-2016

 -------------
 #p 6-31g* mp2
 -------------

 ------------------------------------------------------
 Input file generated by CHIRIPA (05-May-2021 14:55:20)
 ------------------------------------------------------
 Symbolic Z-matrix:
 Charge =  0 Multiplicity = 1

                         Standard orientation:
 ---------------------------------------------------------------------
 Center     Atomic      Atomic             Coordinates (Angstroms)
 Number     Number       Type             X           Y           Z
 ---------------------------------------------------------------------
      1          6           0        1.008605   -1.504834    1.439717
      2          6           0        2.372683   -1.712986    1.668811
      3          6           0        3.331084   -1.085900    0.867076
      4          6           0        2.888098   -0.253379   -0.159550
      5          6           0        1.536271   -0.026006   -0.412841
      6          6           0        0.595481   -0.663492    0.401453
      7          1           0        0.270937   -1.996009    2.067402
      8          1           0        2.696424   -2.365854    2.474417
      9          1           0        4.393495   -1.229410    1.022339
     10          1           0        1.244133    0.630388   -1.223532
     11          1           0       -0.463211   -0.499990    0.221220
     12          7           0        3.893392    0.415994   -1.014959
     13          8           0        3.477300    1.144733   -1.912982
     14          8           0        5.078397    0.199234   -0.771209
     15          6           0       -3.934893   -0.149221    0.076893
     16          6           0       -4.501813   -0.603711   -1.268479
     17          6           0       -5.400489   -1.834619   -1.145826
     18          1           0       -3.367766   -0.975689    0.526631
     19          1           0       -4.765714    0.069024    0.762095
     20          1           0       -3.670184   -0.819709   -1.951381
     21          1           0       -5.067495    0.223996   -1.715155
     22          1           0       -6.249132   -1.627789   -0.485804
     23          1           0       -4.843882   -2.677424   -0.723371
     24          1           0       -5.794906   -2.142340   -2.119275
     25          6           0       -3.034484    1.080292   -0.029357
     26          6           0       -2.467564    1.534781    1.316015
     27          6           0       -1.568888    2.765689    1.193362
     28          1           0       -2.203664    0.862046   -0.714559
     29          1           0       -3.601610    1.906759   -0.479096
     30          1           0       -1.901882    0.707074    1.762691
     31          1           0       -3.299193    1.750780    1.998916
     32          1           0       -2.125495    3.608494    0.770907
     33          1           0       -0.720245    2.558859    0.533340
     34          1           0       -1.174470    3.073411    2.166810
 ---------------------------------------------------------------------

 SCF Done:  E(RHF) =  -669.534833917     A.U. after   15 cycles
 E2 =    -0.2093104560D+01 EUMP2 =    -0.67162793847787D+03

 The electronic state is 1-A.
 Alpha  occ. eigenvalues --  -20.60766 -20.60761 -15.85819 -11.31199 -11.27764
 Alpha  occ. eigenvalues --  -11.27760 -11.27502 -11.26784 -11.26727 -11.22514
 Alpha  occ. eigenvalues --  -11.22413 -11.22363 -11.22308 -11.21718 -11.21701
 Alpha  occ. eigenvalues --   -1.59841  -1.39394  -1.19368  -1.09365  -1.08757
 Alpha  occ. eigenvalues --   -1.04784  -1.04311  -0.96758  -0.95594  -0.87770
 Alpha  occ. eigenvalues --   -0.86173  -0.82431  -0.80385  -0.79170  -0.77484
 Alpha  occ. eigenvalues --   -0.72038  -0.71163  -0.70479  -0.66294  -0.65020
 Alpha  occ. eigenvalues --   -0.64623  -0.62275  -0.61493  -0.60119  -0.58364
 Alpha  occ. eigenvalues --   -0.56077  -0.55265  -0.53399  -0.53195  -0.53059
 Alpha  occ. eigenvalues --   -0.52853  -0.50680  -0.48804  -0.48792  -0.48669
 Alpha  occ. eigenvalues --   -0.47452  -0.46679  -0.46658  -0.44797  -0.44608
 Alpha  occ. eigenvalues --   -0.37340  -0.36357
 Alpha virt. eigenvalues --    0.05035   0.11191   0.16451   0.18641   0.22929
 Alpha virt. eigenvalues --    0.23742   0.24898   0.25359   0.26905   0.28653
 Alpha virt. eigenvalues --    0.29295   0.30894   0.31132   0.31487   0.32043

 Mulliken charges:
               1
     1  C   -0.173899
     2  C   -0.218188
     3  C   -0.171101
     4  C    0.158915
     5  C   -0.175200
     6  C   -0.223205
     7  H    0.225760
     8  H    0.223502
     9  H    0.275699
    10  H    0.275349
    11  H    0.237074
    12  N    0.488104
    13  O   -0.460284
    14  O   -0.460432
    15  C   -0.298812
    16  C   -0.300033
    17  C   -0.476074
    18  H    0.141957
    19  H    0.154135
    20  H    0.151709
    21  H    0.155449
    22  H    0.156634
    23  H    0.154167
    24  H    0.163447
    25  C   -0.304505
    26  C   -0.303057
    27  C   -0.475220
    28  H    0.141340
    29  H    0.158370
    30  H    0.144228
    31  H    0.156875
    32  H    0.158749
    33  H    0.154490
    34  H    0.164056
 Sum of Mulliken charges =  -0.00000

 Dipole moment (field-independent basis, Debye):
    X=             -3.7176    Y=             -2.2650    Z=              3.0159  Tot=              5.2959
 Quadrupole moment (field-independent basis, Debye-Ang):
   XX=           -111.6223   YY=            -93.2994   ZZ=            -94.8086
   XY=             -9.1482   XZ=             11.5464   YZ=             -1.6132

 Normal termination of Gaussian 16 at Wed May  5 17:25:19 2021.
