 Gaussian 16, Revision A.03,
 Gaussian 16:  EM64L-G16RevA.03 25-Dec-2016

 -------------
 #p 6-31g* mp2
 -------------

 ------------------------------------------------------
 Input file generated by CHIRIPA (05-May-2021 14:57:24)
 ------------------------------------------------------
 Symbolic Z-matrix:
 Charge =  0 Multiplicity = 1

                         Standard orientation:
 ---------------------------------------------------------------------
 Center     Atomic      Atomic             Coordinates (Angstroms)
 Number     Number       Type             X           Y           Z
 ---------------------------------------------------------------------
      1          6           0       -1.754460   -1.673700   -0.648791
      2          6           0       -1.492004   -0.464881    0.004199
      3          6           0       -2.525023    0.440591    0.264083
      4          6           0       -3.814437    0.103572   -0.144720
      5          6           0       -4.107736   -1.092858   -0.797269
      6          6           0       -3.059188   -1.983284   -1.046739
      7          1           0       -0.945954   -2.371249   -0.846630
      8          1           0       -0.479708   -0.221811    0.314390
      9          1           0       -2.349905    1.383429    0.767877
     10          1           0       -5.127095   -1.307316   -1.094479
     11          1           0       -3.265957   -2.921334   -1.554041
     12          7           0       -4.916268    1.054191    0.124896
     13          8           0       -6.043588    0.733767   -0.245394
     14          8           0       -4.631699    2.101709    0.701405
     15          6           0        4.967390    1.504588   -1.385040
     16          6           0        4.961217    0.115504   -1.549136
     17          6           0        4.225372   -0.698518   -0.682852
     18          6           0        3.503823   -0.087223    0.341343
     19          6           0        3.489991    1.293802    0.530735
     20          6           0        4.233052    2.088275   -0.347457
     21          1           0        5.541814    2.129348   -2.062615
     22          1           0        5.530581   -0.340546   -2.354052
     23          1           0        4.202962   -1.776506   -0.787039
     24          1           0        2.912587    1.719419    1.342445
     25          1           0        4.235997    3.166783   -0.217621
     26          7           0        2.720997   -0.938644    1.264742
     27          8           0        2.093614   -0.375612    2.159182
     28          8           0        2.749625   -2.152897    1.076578
 ---------------------------------------------------------------------

 SCF Done:  E(RHF) =  -868.339294459     A.U. after   16 cycles
 E2 =    -0.2598800529D+01 EUMP2 =    -0.87093809498781D+03

 The electronic state is 1-A.
 Alpha  occ. eigenvalues --  -20.61873 -20.61864 -20.60334 -20.60329 -15.86888
 Alpha  occ. eigenvalues --  -15.85383 -11.32027 -11.30626 -11.28560 -11.28553
 Alpha  occ. eigenvalues --  -11.28225 -11.27504 -11.27487 -11.27195 -11.27149
 Alpha  occ. eigenvalues --  -11.26836 -11.26183 -11.26070  -1.60947  -1.59412
 Alpha  occ. eigenvalues --   -1.40500  -1.38969  -1.20171  -1.18774  -1.09604
 Alpha  occ. eigenvalues --   -1.08182  -1.05528  -1.04155  -0.96474  -0.95042
 Alpha  occ. eigenvalues --   -0.86937  -0.85555  -0.83305  -0.81877  -0.78392
 Alpha  occ. eigenvalues --   -0.76954  -0.73092  -0.72284  -0.71604  -0.71256
 Alpha  occ. eigenvalues --   -0.70733  -0.69860  -0.65814  -0.65513  -0.64420
 Alpha  occ. eigenvalues --   -0.64139  -0.62875  -0.61506  -0.56017  -0.54628
 Alpha  occ. eigenvalues --   -0.53880  -0.53606  -0.52494  -0.52239  -0.49876
 Alpha  occ. eigenvalues --   -0.49837  -0.48366  -0.48351  -0.45931  -0.44403
 Alpha  occ. eigenvalues --   -0.38133  -0.37123  -0.36733  -0.35758
 Alpha virt. eigenvalues --    0.04097   0.05573   0.10521   0.11901   0.15627
 Alpha virt. eigenvalues --    0.17110   0.20723   0.21984   0.26655   0.27272
 Alpha virt. eigenvalues --    0.27931   0.28934   0.30336   0.31277   0.32106

 Mulliken charges:
               1
     1  C   -0.171141
     2  C   -0.218069
     3  C   -0.172370
     4  C    0.158071
     5  C   -0.172121
     6  C   -0.218902
     7  H    0.229458
     8  H    0.228154
     9  H    0.274021
    10  H    0.273514
    11  H    0.221633
    12  N    0.488207
    13  O   -0.462122
    14  O   -0.461959
    15  C   -0.169687
    16  C   -0.218224
    17  C   -0.171633
    18  C    0.154892
    19  C   -0.172842
    20  C   -0.217969
    21  H    0.228935
    22  H    0.225874
    23  H    0.275458
    24  H    0.276325
    25  H    0.226991
    26  N    0.485167
    27  O   -0.460304
    28  O   -0.459358
 Sum of Mulliken charges =  -0.00000

 Dipole moment (field-independent basis, Debye):
    X=              7.0464    Y=             -0.3203    Z=             -4.2299  Tot=              8.2247
 Quadrupole moment (field-independent basis, Debye-Ang):
   XX=           -113.3726   YY=           -101.1230   ZZ=           -105.7596
   XY=             25.0193   XZ=             -7.2548   YZ=              5.5163

 Normal termination of Gaussian 16 at Wed May  5 19:27:22 2021.
