 Gaussian 16, Revision A.03,
 Gaussian 16:  EM64L-G16RevA.03 25-Dec-2016

 -------------
 #p 6-31g* mp2
 -------------

 ------------------------------------------------------
 Input file generated by CHIRIPA (05-May-2021 14:57:24)
 ------------------------------------------------------
 Symbolic Z-matrix:
 Charge =  0 Multiplicity = 1

                         Standard orientation:
 ---------------------------------------------------------------------
 Center     Atomic      Atomic             Coordinates (Angstroms)
 Number     Number       Type             X           Y           Z
 ---------------------------------------------------------------------
      1          6           0       -1.134113   -1.257382    0.353990
      2          6           0       -2.219708   -2.096490    0.082140
      3          6           0       -3.495746   -1.563025   -0.122043
      4          6           0       -3.650914   -0.179713   -0.046798
      5          6           0       -2.589068    0.682485    0.222250
      6          6           0       -1.321926    0.126986    0.423055
      7          1           0       -0.146312   -1.680349    0.511292
      8          1           0       -2.076805   -3.171982    0.027908
      9          1           0       -4.353612   -2.189539   -0.334090
     10          1           0       -2.762662    1.750660    0.270042
     11          1           0       -0.480667    0.781069    0.634010
     12          7           0       -4.997089    0.396706   -0.261170
     13          8           0       -5.107500    1.618721   -0.189586
     14          8           0       -5.916319   -0.384428   -0.496719
     15          6           0        2.343286    2.534137    0.297916
     16          6           0        2.134810    1.531479    1.250669
     17          6           0        2.731364    0.275844    1.102181
     18          6           0        3.534015    0.056281   -0.016226
     19          6           0        3.760883    1.034902   -0.982726
     20          6           0        3.154227    2.283090   -0.813781
     21          1           0        1.875944    3.506652    0.421212
     22          1           0        1.505513    1.723619    2.115026
     23          1           0        2.586873   -0.518338    1.824549
     24          1           0        4.393371    0.813582   -1.833841
     25          1           0        3.317904    3.059884   -1.555297
     26          7           0        4.170907   -1.269062   -0.184252
     27          8           0        4.873677   -1.437351   -1.178452
     28          8           0        3.955275   -2.114482    0.681429
 ---------------------------------------------------------------------

 SCF Done:  E(RHF) =  -868.337535573     A.U. after   16 cycles
 E2 =    -0.2601353350D+01 EUMP2 =    -0.87093888892303D+03

 The electronic state is 1-A.
 Alpha  occ. eigenvalues --  -20.61781 -20.61749 -20.60919 -20.60907 -15.86825
 Alpha  occ. eigenvalues --  -15.85967 -11.32328 -11.31313 -11.28973 -11.28836
 Alpha  occ. eigenvalues --  -11.28633 -11.27977 -11.27904 -11.27847 -11.27841
 Alpha  occ. eigenvalues --  -11.27561 -11.26835 -11.26811  -1.60841  -1.59991
 Alpha  occ. eigenvalues --   -1.40391  -1.39546  -1.20516  -1.19472  -1.09873
 Alpha  occ. eigenvalues --   -1.08862  -1.05939  -1.04874  -0.96679  -0.95705
 Alpha  occ. eigenvalues --   -0.87320  -0.86268  -0.83505  -0.82543  -0.78546
 Alpha  occ. eigenvalues --   -0.77604  -0.73032  -0.72188  -0.72171  -0.71573
 Alpha  occ. eigenvalues --   -0.71314  -0.70565  -0.66150  -0.65941  -0.65119
 Alpha  occ. eigenvalues --   -0.64891  -0.63252  -0.62236  -0.56375  -0.55353
 Alpha  occ. eigenvalues --   -0.54315  -0.53992  -0.53204  -0.52865  -0.49804
 Alpha  occ. eigenvalues --   -0.49784  -0.48946  -0.48938  -0.45766  -0.44956
 Alpha  occ. eigenvalues --   -0.38472  -0.37525  -0.37439  -0.36486
 Alpha virt. eigenvalues --    0.03970   0.04931   0.09920   0.11152   0.15407
 Alpha virt. eigenvalues --    0.16433   0.19802   0.21868   0.25862   0.26430
 Alpha virt. eigenvalues --    0.27960   0.28612   0.29749   0.30817   0.32277

 Mulliken charges:
               1
     1  C   -0.176937
     2  C   -0.218275
     3  C   -0.171283
     4  C    0.159141
     5  C   -0.174109
     6  C   -0.224401
     7  H    0.229206
     8  H    0.226537
     9  H    0.276219
    10  H    0.272221
    11  H    0.226531
    12  N    0.488103
    13  O   -0.462071
    14  O   -0.459478
    15  C   -0.171185
    16  C   -0.231740
    17  C   -0.176357
    18  C    0.159582
    19  C   -0.168556
    20  C   -0.216707
    21  H    0.230568
    22  H    0.227245
    23  H    0.276218
    24  H    0.279784
    25  H    0.229033
    26  N    0.487847
    27  O   -0.455513
    28  O   -0.461621
 Sum of Mulliken charges =  -0.00000

 Dipole moment (field-independent basis, Debye):
    X=              2.8600    Y=              2.6609    Z=              1.1948  Tot=              4.0850
 Quadrupole moment (field-independent basis, Debye-Ang):
   XX=           -154.0294   YY=            -98.9393   ZZ=           -102.1339
   XY=             26.4002   XZ=             -2.9775   YZ=             -0.9489

 Normal termination of Gaussian 16 at Thu May  6 18:01:03 2021.
