 Gaussian 16, Revision A.03,
 Gaussian 16:  EM64L-G16RevA.03 25-Dec-2016

 -------------
 #p 6-31g* mp2
 -------------

 ------------------------------------------------------
 Input file generated by CHIRIPA (05-May-2021 14:51:09)
 ------------------------------------------------------
 Symbolic Z-matrix:
 Charge =  0 Multiplicity = 1

                         Standard orientation:
 ---------------------------------------------------------------------
 Center     Atomic      Atomic             Coordinates (Angstroms)
 Number     Number       Type             X           Y           Z
 ---------------------------------------------------------------------
      1          6           0       -3.882201   -0.216973   -0.106551
      2          6           0       -5.371654   -0.547084   -0.003884
      3          6           0       -5.655012   -2.044635   -0.125716
      4          1           0       -3.496248   -0.587762   -1.065978
      5          1           0       -3.338577   -0.759094    0.679561
      6          1           0       -5.912486   -0.003420   -0.789089
      7          1           0       -5.754150   -0.175296    0.955328
      8          1           0       -5.141180   -2.599581    0.665873
      9          1           0       -5.300415   -2.426729   -1.088455
     10          1           0       -6.725752   -2.258124   -0.049563
     11          6           0       -3.582968    1.276277    0.013416
     12          6           0       -2.093515    1.606389   -0.089252
     13          6           0       -1.810157    3.103940    0.032581
     14          1           0       -4.126592    1.818398   -0.772696
     15          1           0       -3.968921    1.647067    0.972843
     16          1           0       -1.711019    1.234601   -1.048463
     17          1           0       -1.552683    1.062725    0.695953
     18          1           0       -2.164754    3.486034    0.995320
     19          1           0       -2.323989    3.658886   -0.759008
     20          1           0       -0.739417    3.317428   -0.043572
     21          6           0        3.046995   -0.515297    0.383010
     22          6           0        2.046894   -1.491925   -0.236651
     23          6           0        0.679962   -1.451571    0.447208
     24          1           0        3.162575   -0.746937    1.450684
     25          1           0        2.637661    0.502867    0.326596
     26          1           0        2.458599   -2.507770   -0.180333
     27          1           0        1.933828   -1.258053   -1.303017
     28          1           0        0.244473   -0.449430    0.378912
     29          1           0        0.772226   -1.706249    1.507975
     30          1           0       -0.019454   -2.157405   -0.011568
     31          6           0        4.418173   -0.544008   -0.289875
     32          6           0        5.418275    0.432620    0.329786
     33          6           0        6.785207    0.392267   -0.354072
     34          1           0        4.827509   -1.562171   -0.233461
     35          1           0        4.302595   -0.312366   -1.357549
     36          1           0        5.531342    0.198748    1.396152
     37          1           0        5.006570    1.448466    0.273468
     38          1           0        6.692943    0.646945   -1.414840
     39          1           0        7.220697   -0.609873   -0.285777
     40          1           0        7.484623    1.098101    0.104702
 ---------------------------------------------------------------------

 SCF Done:  E(RHF) =  -470.733145621     A.U. after   11 cycles
 E2 =    -0.1582682217D+01 EUMP2 =    -0.47231582783779D+03

 The electronic state is 1-A.
 Alpha  occ. eigenvalues --  -11.21601 -11.21591 -11.21585 -11.21557 -11.21394
 Alpha  occ. eigenvalues --  -11.21386 -11.21329 -11.21326 -11.21097 -11.21063
 Alpha  occ. eigenvalues --  -11.21057 -11.20958  -1.08429  -1.08400  -1.03544
 Alpha  occ. eigenvalues --   -1.03486  -0.95980  -0.95943  -0.87012  -0.86948
 Alpha  occ. eigenvalues --   -0.79671  -0.79503  -0.78274  -0.78179  -0.65074
 Alpha  occ. eigenvalues --   -0.65020  -0.60980  -0.60860  -0.59362  -0.59306
 Alpha  occ. eigenvalues --   -0.57639  -0.57513  -0.55282  -0.55221  -0.52699
 Alpha  occ. eigenvalues --   -0.52620  -0.52451  -0.52331  -0.49989  -0.49861
 Alpha  occ. eigenvalues --   -0.48066  -0.47739  -0.46723  -0.46514  -0.45861
 Alpha  occ. eigenvalues --   -0.45739  -0.45708  -0.45482  -0.43783  -0.43749
 Alpha virt. eigenvalues --    0.22137   0.23011   0.23735   0.24666   0.25811
 Alpha virt. eigenvalues --    0.26671   0.26932   0.27405   0.28069   0.29194
 Alpha virt. eigenvalues --    0.30421   0.31367   0.31721   0.31835   0.32042

 Mulliken charges:
               1
     1  C   -0.298862
     2  C   -0.299648
     3  C   -0.475700
     4  H    0.149556
     5  H    0.150972
     6  H    0.151790
     7  H    0.151890
     8  H    0.155339
     9  H    0.155072
    10  H    0.160171
    11  C   -0.297747
    12  C   -0.305233
    13  C   -0.475363
    14  H    0.149374
    15  H    0.149572
    16  H    0.152067
    17  H    0.157479
    18  H    0.155393
    19  H    0.155318
    20  H    0.159528
    21  C   -0.298222
    22  C   -0.299186
    23  C   -0.483148
    24  H    0.149486
    25  H    0.149196
    26  H    0.151564
    27  H    0.151579
    28  H    0.163784
    29  H    0.153824
    30  H    0.160345
    31  C   -0.298249
    32  C   -0.299625
    33  C   -0.475689
    34  H    0.149526
    35  H    0.149571
    36  H    0.151899
    37  H    0.151845
    38  H    0.155151
    39  H    0.155173
    40  H    0.160212
 Sum of Mulliken charges =  -0.00000

 Dipole moment (field-independent basis, Debye):
    X=             -0.0285    Y=              0.0119    Z=              0.0051  Tot=              0.0313
 Quadrupole moment (field-independent basis, Debye-Ang):
   XX=            -85.9820   YY=            -85.4348   ZZ=            -83.4686
   XY=             -0.6889   XZ=              0.6452   YZ=             -0.6114

 Normal termination of Gaussian 16 at Thu May  6 05:20:55 2021.
