 Gaussian 16, Revision A.03,
 Gaussian 16:  EM64L-G16RevA.03 25-Dec-2016

 -------------
 #p 6-31g* mp2
 -------------

 ------------------------------------------------------
 Input file generated by CHIRIPA (05-May-2021 14:53:17)
 ------------------------------------------------------
 Symbolic Z-matrix:
 Charge =  0 Multiplicity = 1

                         Standard orientation:
 ---------------------------------------------------------------------
 Center     Atomic      Atomic             Coordinates (Angstroms)
 Number     Number       Type             X           Y           Z
 ---------------------------------------------------------------------
      1          6           0        3.524049   -0.037855    0.176557
      2          6           0        3.264941   -1.424618   -0.413135
      3          6           0        4.106926   -2.515460    0.249374
      4          1           0        4.590251    0.205097    0.071048
      5          1           0        3.313837   -0.060464    1.254840
      6          1           0        3.474252   -1.399042   -1.490238
      7          1           0        2.199196   -1.664216   -0.306382
      8          1           0        3.892143   -2.570060    1.321516
      9          1           0        5.174444   -2.303380    0.130933
     10          1           0        3.905859   -3.498646   -0.187407
     11          6           0        2.689684    1.063261   -0.475444
     12          6           0        2.948792    2.450024    0.114248
     13          6           0        2.106807    3.540867   -0.548261
     14          1           0        2.899896    1.085871   -1.553727
     15          1           0        1.623481    0.820310   -0.369935
     16          1           0        4.014537    2.689623    0.007494
     17          1           0        2.739481    2.424449    1.191351
     18          1           0        1.039289    3.328787   -0.429821
     19          1           0        2.321590    3.595467   -1.620403
     20          1           0        2.307874    4.524053   -0.111480
     21          6           0       -4.598559    0.864006   -0.111703
     22          6           0       -3.653460    1.261997    0.839566
     23          6           0       -2.446969    0.568745    0.974948
     24          6           0       -2.217324   -0.522802    0.138839
     25          6           0       -3.139141   -0.943749   -0.818421
     26          6           0       -4.338841   -0.235658   -0.936207
     27          1           0       -5.533153    1.408305   -0.210037
     28          1           0       -3.852468    2.115633    1.481241
     29          1           0       -1.697826    0.855307    1.703018
     30          1           0       -2.912382   -1.798668   -1.443811
     31          1           0       -5.070985   -0.547000   -1.675852
     32          7           0       -0.943660   -1.264572    0.272848
     33          8           0       -0.765303   -2.222873   -0.475807
     34          8           0       -0.147838   -0.873624    1.124002
 ---------------------------------------------------------------------

 SCF Done:  E(RHF) =  -669.537147591     A.U. after   15 cycles
 E2 =    -0.2093052409D+01 EUMP2 =    -0.67163020000055D+03

 The electronic state is 1-A.
 Alpha  occ. eigenvalues --  -20.61273 -20.61264 -15.86229 -11.31454 -11.27996
 Alpha  occ. eigenvalues --  -11.27990 -11.27711 -11.26975 -11.26966 -11.20808
 Alpha  occ. eigenvalues --  -11.20595 -11.20189 -11.19937 -11.19720 -11.19572
 Alpha  occ. eigenvalues --   -1.60287  -1.39847  -1.19604  -1.09031  -1.07166
 Alpha  occ. eigenvalues --   -1.04981  -1.02322  -0.95888  -0.94837  -0.86388
 Alpha  occ. eigenvalues --   -0.85869  -0.82728  -0.78445  -0.77796  -0.76902
 Alpha  occ. eigenvalues --   -0.72447  -0.71585  -0.70712  -0.65262  -0.64986
 Alpha  occ. eigenvalues --   -0.63765  -0.62329  -0.59712  -0.58269  -0.56419
 Alpha  occ. eigenvalues --   -0.55491  -0.54137  -0.53317  -0.53070  -0.51592
 Alpha  occ. eigenvalues --   -0.51268  -0.49343  -0.49222  -0.48746  -0.46758
 Alpha  occ. eigenvalues --   -0.45630  -0.45140  -0.44458  -0.44091  -0.42558
 Alpha  occ. eigenvalues --   -0.37572  -0.36575
 Alpha virt. eigenvalues --    0.04682   0.11072   0.16174   0.21177   0.24003
 Alpha virt. eigenvalues --    0.25507   0.27119   0.27579   0.28291   0.28774
 Alpha virt. eigenvalues --    0.29095   0.30999   0.32207   0.32513   0.32889

 Mulliken charges:
               1
     1  C   -0.293831
     2  C   -0.311297
     3  C   -0.474398
     4  H    0.141290
     5  H    0.152827
     6  H    0.142145
     7  H    0.182995
     8  H    0.155626
     9  H    0.146899
    10  H    0.158173
    11  C   -0.300101
    12  C   -0.298707
    13  C   -0.474125
    14  H    0.143848
    15  H    0.155450
    16  H    0.149660
    17  H    0.151015
    18  H    0.149680
    19  H    0.154102
    20  H    0.156479
    21  C   -0.170097
    22  C   -0.218479
    23  C   -0.171025
    24  C    0.160255
    25  C   -0.170378
    26  C   -0.218581
    27  H    0.226712
    28  H    0.224598
    29  H    0.276024
    30  H    0.276291
    31  H    0.224476
    32  N    0.487412
    33  O   -0.456915
    34  O   -0.458021
 Sum of Mulliken charges =  -0.00000

 Dipole moment (field-independent basis, Debye):
    X=             -4.9726    Y=              2.4224    Z=             -0.3798  Tot=              5.5443
 Quadrupole moment (field-independent basis, Debye-Ang):
   XX=            -76.0036   YY=            -97.4474   ZZ=            -92.3729
   XY=             -2.0813   XZ=              1.3030   YZ=              3.5988

 Normal termination of Gaussian 16 at Thu May  6 13:56:53 2021.
