 Gaussian 16, Revision A.03,
 Gaussian 16:  EM64L-G16RevA.03 25-Dec-2016

 -------------
 #p 6-31g* mp2
 -------------

 ------------------------------------------------------
 Input file generated by CHIRIPA (05-May-2021 14:51:10)
 ------------------------------------------------------
 Symbolic Z-matrix:
 Charge =  0 Multiplicity = 1

                         Standard orientation:
 ---------------------------------------------------------------------
 Center     Atomic      Atomic             Coordinates (Angstroms)
 Number     Number       Type             X           Y           Z
 ---------------------------------------------------------------------
      1          6           0       -2.221515    0.492557    0.823612
      2          6           0       -1.480922    0.038131    2.081787
      3          6           0       -0.674182    1.162761    2.731533
      4          1           0       -1.494951    0.889127    0.101267
      5          1           0       -2.891808    1.324219    1.081374
      6          1           0       -0.813250   -0.793338    1.822000
      7          1           0       -2.209313   -0.357581    2.801144
      8          1           0       -1.329986    1.991069    3.018635
      9          1           0        0.074009    1.552836    2.033928
     10          1           0       -0.152840    0.815974    3.629197
     11          6           0       -3.032520   -0.620630    0.162692
     12          6           0       -3.773113   -0.166203   -1.095483
     13          6           0       -4.579853   -1.290834   -1.745230
     14          1           0       -2.362227   -1.452291   -0.095070
     15          1           0       -3.759084   -1.017200    0.885036
     16          1           0       -3.044722    0.229508   -1.814841
     17          1           0       -4.440785    0.665266   -0.835697
     18          1           0       -5.328044   -1.680909   -1.047625
     19          1           0       -3.924049   -2.119142   -2.032332
     20          1           0       -5.101195   -0.944046   -2.642894
     21          6           0        2.779784   -0.656310   -0.696119
     22          6           0        3.214486   -1.537241    0.475624
     23          6           0        3.516582   -2.975469    0.053687
     24          1           0        1.890110   -1.096333   -1.167081
     25          1           0        3.570224   -0.657141   -1.459401
     26          1           0        2.424052   -1.533640    1.237081
     27          1           0        4.103114   -1.094967    0.943971
     28          1           0        4.320516   -2.998230   -0.689127
     29          1           0        2.631913   -3.439395   -0.394350
     30          1           0        3.825437   -3.587656    0.906738
     31          6           0        2.474251    0.784383   -0.290184
     32          6           0        2.039549    1.665314   -1.461927
     33          6           0        1.737453    3.103542   -1.039990
     34          1           0        1.683811    0.785214    0.473098
     35          1           0        3.363925    1.224405    0.180778
     36          1           0        1.150921    1.223040   -1.930274
     37          1           0        2.829983    1.661713   -2.223385
     38          1           0        2.622122    3.567467   -0.591953
     39          1           0        0.933519    3.126302   -0.297177
     40          1           0        1.428598    3.715728   -1.893041
 ---------------------------------------------------------------------

 SCF Done:  E(RHF) =  -470.733290116     A.U. after   11 cycles
 E2 =    -0.1583774214D+01 EUMP2 =    -0.47231706432984D+03

 The electronic state is 1-A.
 Alpha  occ. eigenvalues --  -11.21679 -11.21652 -11.21646 -11.21637 -11.21474
 Alpha  occ. eigenvalues --  -11.21441 -11.21412 -11.21379 -11.21113 -11.21108
 Alpha  occ. eigenvalues --  -11.21105 -11.21100  -1.08511  -1.08458  -1.03598
 Alpha  occ. eigenvalues --   -1.03561  -0.96043  -0.96008  -0.87058  -0.87026
 Alpha  occ. eigenvalues --   -0.79677  -0.79604  -0.78330  -0.78268  -0.65340
 Alpha  occ. eigenvalues --   -0.64921  -0.61082  -0.60879  -0.59424  -0.59361
 Alpha  occ. eigenvalues --   -0.57646  -0.57625  -0.55423  -0.55224  -0.52724
 Alpha  occ. eigenvalues --   -0.52708  -0.52481  -0.52422  -0.50052  -0.49914
 Alpha  occ. eigenvalues --   -0.48055  -0.47897  -0.46823  -0.46553  -0.45991
 Alpha  occ. eigenvalues --   -0.45799  -0.45770  -0.45490  -0.43841  -0.43822
 Alpha virt. eigenvalues --    0.18877   0.22884   0.23426   0.24165   0.25946
 Alpha virt. eigenvalues --    0.26576   0.26912   0.28157   0.28468   0.29401
 Alpha virt. eigenvalues --    0.30102   0.31411   0.31536   0.31763   0.32185

 Mulliken charges:
               1
     1  C   -0.300377
     2  C   -0.300629
     3  C   -0.482737
     4  H    0.150506
     5  H    0.150122
     6  H    0.151820
     7  H    0.152720
     8  H    0.155752
     9  H    0.161150
    10  H    0.160852
    11  C   -0.298242
    12  C   -0.299684
    13  C   -0.475743
    14  H    0.149224
    15  H    0.150027
    16  H    0.151824
    17  H    0.152184
    18  H    0.155300
    19  H    0.155163
    20  H    0.160473
    21  C   -0.297462
    22  C   -0.300637
    23  C   -0.475679
    24  H    0.148890
    25  H    0.149797
    26  H    0.152482
    27  H    0.152304
    28  H    0.155333
    29  H    0.154973
    30  H    0.160465
    31  C   -0.307399
    32  C   -0.299596
    33  C   -0.478672
    34  H    0.158198
    35  H    0.149997
    36  H    0.151342
    37  H    0.152358
    38  H    0.155592
    39  H    0.157327
    40  H    0.160681
 Sum of Mulliken charges =  -0.00000

 Dipole moment (field-independent basis, Debye):
    X=             -0.0021    Y=              0.0096    Z=              0.0130  Tot=              0.0162
 Quadrupole moment (field-independent basis, Debye-Ang):
   XX=            -83.4764   YY=            -86.2955   ZZ=            -84.7815
   XY=             -0.1140   XZ=             -0.9646   YZ=             -0.4677

 Normal termination of Gaussian 16 at Thu May  6 05:24:34 2021.
