 Gaussian 16, Revision A.03,
 Gaussian 16:  EM64L-G16RevA.03 25-Dec-2016

 -------------
 #p 6-31g* mp2
 -------------

 ------------------------------------------------------
 Input file generated by CHIRIPA (05-May-2021 14:51:13)
 ------------------------------------------------------
 Symbolic Z-matrix:
 Charge =  0 Multiplicity = 1

                         Standard orientation:
 ---------------------------------------------------------------------
 Center     Atomic      Atomic             Coordinates (Angstroms)
 Number     Number       Type             X           Y           Z
 ---------------------------------------------------------------------
      1          6           0        3.175709    0.535281    0.334443
      2          6           0        3.849310    1.139296   -0.898202
      3          6           0        4.418175    2.534285   -0.637070
      4          1           0        2.371123    1.204116    0.669475
      5          1           0        3.904480    0.487314    1.155410
      6          1           0        3.119867    1.184831   -1.717016
      7          1           0        4.652261    0.468852   -1.230453
      8          1           0        5.165832    2.502050    0.162036
      9          1           0        3.624731    3.222097   -0.327291
     10          1           0        4.895096    2.947245   -1.531425
     11          6           0        2.602066   -0.859169    0.089150
     12          6           0        1.928466   -1.463184    1.321795
     13          6           0        1.359600   -2.858173    1.060663
     14          1           0        1.873295   -0.811202   -0.731817
     15          1           0        3.406652   -1.528004   -0.245882
     16          1           0        1.125514   -0.792740    1.654046
     17          1           0        2.657908   -1.508719    2.140609
     18          1           0        2.153044   -3.545985    0.750884
     19          1           0        0.611944   -2.825938    0.261557
     20          1           0        0.882679   -3.271133    1.955018
     21          6           0       -2.893231   -0.593460   -0.098758
     22          6           0       -2.224190   -1.379261   -1.226980
     23          6           0       -2.240790   -2.889108   -0.986395
     24          1           0       -2.385879   -0.820807    0.848794
     25          1           0       -3.931171   -0.936608    0.012262
     26          1           0       -1.188236   -1.033766   -1.336756
     27          1           0       -2.733070   -1.149869   -2.171985
     28          1           0       -3.269274   -3.253879   -0.898289
     29          1           0       -1.715663   -3.137117   -0.058315
     30          1           0       -1.757440   -3.431417   -1.805012
     31          6           0       -2.884545    0.917348   -0.324836
     32          6           0       -3.553586    1.703149    0.803387
     33          6           0       -3.536985    3.212996    0.562803
     34          1           0       -1.846605    1.260495   -0.435854
     35          1           0       -3.391897    1.144695   -1.272387
     36          1           0       -3.044705    1.473757    1.748392
     37          1           0       -4.589539    1.357654    0.913163
     38          1           0       -4.062113    3.461005   -0.365279
     39          1           0       -2.508501    3.577767    0.474696
     40          1           0       -4.020336    3.755305    1.381419
 ---------------------------------------------------------------------

 SCF Done:  E(RHF) =  -470.733162055     A.U. after   11 cycles
 E2 =    -0.1583266050D+01 EUMP2 =    -0.47231642810485D+03

 The electronic state is 1-A.
 Alpha  occ. eigenvalues --  -11.21659 -11.21647 -11.21638 -11.21632 -11.21452
 Alpha  occ. eigenvalues --  -11.21450 -11.21392 -11.21391 -11.21104 -11.21095
 Alpha  occ. eigenvalues --  -11.21062 -11.21059  -1.08488  -1.08457  -1.03602
 Alpha  occ. eigenvalues --   -1.03531  -0.96061  -0.95968  -0.87088  -0.86973
 Alpha  occ. eigenvalues --   -0.79663  -0.79595  -0.78294  -0.78277  -0.65254
 Alpha  occ. eigenvalues --   -0.64978  -0.61225  -0.60729  -0.59403  -0.59358
 Alpha  occ. eigenvalues --   -0.57631  -0.57618  -0.55576  -0.55052  -0.52720
 Alpha  occ. eigenvalues --   -0.52698  -0.52469  -0.52390  -0.50201  -0.49694
 Alpha  occ. eigenvalues --   -0.48008  -0.47877  -0.46721  -0.46565  -0.45905
 Alpha  occ. eigenvalues --   -0.45798  -0.45760  -0.45665  -0.43824  -0.43820
 Alpha virt. eigenvalues --    0.19510   0.23357   0.23546   0.25232   0.25525
 Alpha virt. eigenvalues --    0.26372   0.26851   0.27997   0.28679   0.28977
 Alpha virt. eigenvalues --    0.30786   0.31245   0.31597   0.31769   0.31939

 Mulliken charges:
               1
     1  C   -0.298171
     2  C   -0.299745
     3  C   -0.475710
     4  H    0.149169
     5  H    0.149803
     6  H    0.151989
     7  H    0.152108
     8  H    0.155254
     9  H    0.155126
    10  H    0.160435
    11  C   -0.300168
    12  C   -0.299324
    13  C   -0.483314
    14  H    0.150444
    15  H    0.150123
    16  H    0.151076
    17  H    0.152218
    18  H    0.155480
    19  H    0.164170
    20  H    0.159602
    21  C   -0.298590
    22  C   -0.302390
    23  C   -0.480174
    24  H    0.150118
    25  H    0.149955
    26  H    0.152376
    27  H    0.152506
    28  H    0.155664
    29  H    0.159959
    30  H    0.160161
    31  C   -0.298218
    32  C   -0.299712
    33  C   -0.475681
    34  H    0.148796
    35  H    0.149856
    36  H    0.151932
    37  H    0.152153
    38  H    0.155289
    39  H    0.154981
    40  H    0.160453
 Sum of Mulliken charges =  -0.00000

 Dipole moment (field-independent basis, Debye):
    X=             -0.0057    Y=             -0.0156    Z=             -0.0036  Tot=              0.0170
 Quadrupole moment (field-independent basis, Debye-Ang):
   XX=            -83.2694   YY=            -86.8151   ZZ=            -84.5115
   XY=             -0.7093   XZ=              0.6525   YZ=             -0.0794

 Normal termination of Gaussian 16 at Thu May  6 03:56:57 2021.
