 Gaussian 16, Revision A.03,
 Gaussian 16:  EM64L-G16RevA.03 25-Dec-2016

 -------------
 #p 6-31g* mp2
 -------------

 ------------------------------------------------------
 Input file generated by CHIRIPA (05-May-2021 14:51:07)
 ------------------------------------------------------
 Symbolic Z-matrix:
 Charge =  0 Multiplicity = 1

                         Standard orientation:
 ---------------------------------------------------------------------
 Center     Atomic      Atomic             Coordinates (Angstroms)
 Number     Number       Type             X           Y           Z
 ---------------------------------------------------------------------
      1          6           0       -3.825188   -0.654110   -0.231464
      2          6           0       -4.748389    0.558320   -0.356752
      3          6           0       -5.956628    0.291035   -1.254811
      4          1           0       -3.481725   -0.950405   -1.232058
      5          1           0       -4.398278   -1.503037    0.166389
      6          1           0       -4.173395    1.405094   -0.752948
      7          1           0       -5.089541    0.851881    0.644274
      8          1           0       -6.554628   -0.536601   -0.859824
      9          1           0       -5.633277    0.019755   -2.264985
     10          1           0       -6.603155    1.170896   -1.330362
     11          6           0       -2.612737   -0.402461    0.663166
     12          6           0       -1.689535   -1.614892    0.788454
     13          6           0       -0.481296   -1.347607    1.686514
     14          1           0       -2.039647    0.446465    0.265314
     15          1           0       -2.956199   -0.106167    1.663760
     16          1           0       -1.348383   -1.908453   -0.212572
     17          1           0       -2.264529   -2.461666    1.184651
     18          1           0       -0.804648   -1.076327    2.696688
     19          1           0        0.116704   -0.519970    1.291526
     20          1           0        0.165230   -2.227468    1.762065
     21          6           0        2.938044    1.032634    0.284299
     22          6           0        2.265930    2.234938   -0.379564
     23          6           0        1.708918    3.235023    0.634024
     24          1           0        2.212120    0.529177    0.937378
     25          1           0        3.749619    1.387786    0.934380
     26          1           0        1.456759    1.877531   -1.029270
     27          1           0        2.993484    2.735478   -1.031287
     28          1           0        2.508659    3.619556    1.275232
     29          1           0        0.963203    2.756735    1.277260
     30          1           0        1.232874    4.086529    0.137859
     31          6           0        3.499881    0.023938   -0.716001
     32          6           0        4.171994   -1.178366   -0.052138
     33          6           0        4.729007   -2.178451   -1.065726
     34          1           0        2.688306   -0.331216   -1.366083
     35          1           0        4.225805    0.527394   -1.369080
     36          1           0        3.444441   -1.678907    0.599584
     37          1           0        4.981165   -0.820960    0.597567
     38          1           0        5.474722   -1.700163   -1.708962
     39          1           0        3.929266   -2.562985   -1.706934
     40          1           0        5.205051   -3.029957   -0.569561
 ---------------------------------------------------------------------

 SCF Done:  E(RHF) =  -470.733362931     A.U. after   11 cycles
 E2 =    -0.1582924650D+01 EUMP2 =    -0.47231628758066D+03

 The electronic state is 1-A.
 Alpha  occ. eigenvalues --  -11.21675 -11.21629 -11.21617 -11.21576 -11.21457
 Alpha  occ. eigenvalues --  -11.21395 -11.21386 -11.21323 -11.21158 -11.21092
 Alpha  occ. eigenvalues --  -11.21080 -11.21057  -1.08484  -1.08421  -1.03585
 Alpha  occ. eigenvalues --   -1.03524  -0.96042  -0.95967  -0.87061  -0.86983
 Alpha  occ. eigenvalues --   -0.79657  -0.79579  -0.78306  -0.78220  -0.65199
 Alpha  occ. eigenvalues --   -0.64993  -0.61027  -0.60882  -0.59405  -0.59337
 Alpha  occ. eigenvalues --   -0.57657  -0.57573  -0.55441  -0.55159  -0.52734
 Alpha  occ. eigenvalues --   -0.52665  -0.52499  -0.52365  -0.50077  -0.49837
 Alpha  occ. eigenvalues --   -0.48020  -0.47868  -0.46767  -0.46581  -0.45910
 Alpha  occ. eigenvalues --   -0.45791  -0.45738  -0.45494  -0.43836  -0.43776
 Alpha virt. eigenvalues --    0.20164   0.23156   0.23852   0.24737   0.25799
 Alpha virt. eigenvalues --    0.26626   0.27203   0.27575   0.28034   0.29386
 Alpha virt. eigenvalues --    0.30193   0.31569   0.31714   0.31880   0.32025

 Mulliken charges:
               1
     1  C   -0.298339
     2  C   -0.299742
     3  C   -0.475747
     4  H    0.149657
     5  H    0.149697
     6  H    0.152103
     7  H    0.152065
     8  H    0.155221
     9  H    0.155208
    10  H    0.160407
    11  C   -0.298673
    12  C   -0.299270
    13  C   -0.483004
    14  H    0.149471
    15  H    0.149940
    16  H    0.151775
    17  H    0.152390
    18  H    0.155981
    19  H    0.160864
    20  H    0.160536
    21  C   -0.306190
    22  C   -0.299586
    23  C   -0.476297
    24  H    0.157324
    25  H    0.149897
    26  H    0.150831
    27  H    0.152202
    28  H    0.155523
    29  H    0.155474
    30  H    0.160203
    31  C   -0.297707
    32  C   -0.300354
    33  C   -0.475709
    34  H    0.148984
    35  H    0.149581
    36  H    0.153063
    37  H    0.151901
    38  H    0.155079
    39  H    0.155037
    40  H    0.160205
 Sum of Mulliken charges =  -0.00000

 Dipole moment (field-independent basis, Debye):
    X=             -0.0191    Y=             -0.0060    Z=              0.0200  Tot=              0.0283
 Quadrupole moment (field-independent basis, Debye-Ang):
   XX=            -84.7052   YY=            -85.1162   ZZ=            -84.8660
   XY=              0.9756   XZ=             -0.7130   YZ=             -0.7900

 Normal termination of Gaussian 16 at Wed May  5 15:00:53 2021.
