 Gaussian 16, Revision A.03,
 Gaussian 16:  EM64L-G16RevA.03 25-Dec-2016

 -------------
 #p 6-31g* mp2
 -------------

 ------------------------------------------------------
 Input file generated by CHIRIPA (05-May-2021 14:57:23)
 ------------------------------------------------------
 Symbolic Z-matrix:
 Charge =  0 Multiplicity = 1

                         Standard orientation:
 ---------------------------------------------------------------------
 Center     Atomic      Atomic             Coordinates (Angstroms)
 Number     Number       Type             X           Y           Z
 ---------------------------------------------------------------------
      1          6           0       -3.815148    1.705969   -1.671529
      2          6           0       -4.424468    0.450206   -1.580371
      3          6           0       -4.021624   -0.465208   -0.603496
      4          6           0       -3.001831   -0.090151    0.269800
      5          6           0       -2.375323    1.153430    0.204354
      6          6           0       -2.794320    2.052961   -0.780447
      7          1           0       -4.134361    2.410915   -2.433468
      8          1           0       -5.217508    0.178013   -2.271055
      9          1           0       -4.476197   -1.444054   -0.510532
     10          1           0       -1.587429    1.396171    0.907004
     11          1           0       -2.319317    3.027503   -0.848895
     12          7           0       -2.566809   -1.050852    1.308168
     13          8           0       -1.666135   -0.696287    2.065603
     14          8           0       -3.134749   -2.140222    1.344946
     15          6           0        3.391699    2.130870    1.096684
     16          6           0        2.332396    1.288698    1.450442
     17          6           0        2.146480    0.067936    0.794909
     18          6           0        3.042769   -0.280781   -0.214226
     19          6           0        4.107785    0.536673   -0.589462
     20          6           0        4.274456    1.752836    0.079653
     21          1           0        3.528647    3.077401    1.611193
     22          1           0        1.645283    1.579701    2.239896
     23          1           0        1.334879   -0.603125    1.048679
     24          1           0        4.776384    0.219368   -1.380481
     25          1           0        5.098014    2.404877   -0.197187
     26          7           0        2.856135   -1.570712   -0.915398
     27          8           0        3.659569   -1.854951   -1.801027
     28          8           0        1.909951   -2.273097   -0.566072
 ---------------------------------------------------------------------

 SCF Done:  E(RHF) =  -868.338955788     A.U. after   16 cycles
 E2 =    -0.2599384952D+01 EUMP2 =    -0.87093834073965D+03

 The electronic state is 1-A.
 Alpha  occ. eigenvalues --  -20.61116 -20.61028 -20.60424 -20.60397 -15.86105
 Alpha  occ. eigenvalues --  -15.85466 -11.31370 -11.30855 -11.27993 -11.27884
 Alpha  occ. eigenvalues --  -11.27646 -11.27506 -11.27316 -11.27267 -11.26957
 Alpha  occ. eigenvalues --  -11.26890 -11.26531 -11.26444  -1.60114  -1.59493
 Alpha  occ. eigenvalues --   -1.39682  -1.39041  -1.19529  -1.19060  -1.08939
 Alpha  occ. eigenvalues --   -1.08465  -1.04928  -1.04453  -0.95796  -0.95278
 Alpha  occ. eigenvalues --   -0.86333  -0.85856  -0.82643  -0.82097  -0.77711
 Alpha  occ. eigenvalues --   -0.77119  -0.72338  -0.71681  -0.71406  -0.70822
 Alpha  occ. eigenvalues --   -0.70653  -0.70160  -0.65196  -0.64940  -0.64707
 Alpha  occ. eigenvalues --   -0.64453  -0.62298  -0.61755  -0.55431  -0.54992
 Alpha  occ. eigenvalues --   -0.53244  -0.53036  -0.52810  -0.52528  -0.49100
 Alpha  occ. eigenvalues --   -0.49059  -0.48455  -0.48426  -0.45099  -0.44440
 Alpha  occ. eigenvalues --   -0.37490  -0.37089  -0.36524  -0.36070
 Alpha virt. eigenvalues --    0.04811   0.05379   0.11119   0.11575   0.16298
 Alpha virt. eigenvalues --    0.16791   0.20683   0.21919   0.25959   0.27483
 Alpha virt. eigenvalues --    0.28416   0.28985   0.30829   0.31403   0.32976

 Mulliken charges:
               1
     1  C   -0.170123
     2  C   -0.217940
     3  C   -0.168987
     4  C    0.161008
     5  C   -0.169869
     6  C   -0.217651
     7  H    0.226320
     8  H    0.225024
     9  H    0.277590
    10  H    0.267412
    11  H    0.222188
    12  N    0.491001
    13  O   -0.470905
    14  O   -0.452431
    15  C   -0.171566
    16  C   -0.225797
    17  C   -0.177889
    18  C    0.157748
    19  C   -0.171182
    20  C   -0.219634
    21  H    0.223388
    22  H    0.226239
    23  H    0.292158
    24  H    0.274385
    25  H    0.221558
    26  N    0.487350
    27  O   -0.463250
    28  O   -0.456145
 Sum of Mulliken charges =  -0.00000

 Dipole moment (field-independent basis, Debye):
    X=             -1.1854    Y=              7.7282    Z=             -1.2296  Tot=              7.9147
 Quadrupole moment (field-independent basis, Debye-Ang):
   XX=            -86.5848   YY=           -106.6149   ZZ=           -106.9599
   XY=              7.2232   XZ=             17.2295   YZ=             -0.0254

 Normal termination of Gaussian 16 at Fri May  7 04:53:55 2021.
