 Gaussian 16, Revision A.03,
 Gaussian 16:  EM64L-G16RevA.03 25-Dec-2016

 -------------
 #p 6-31g* mp2
 -------------

 ------------------------------------------------------
 Input file generated by CHIRIPA (05-May-2021 14:57:24)
 ------------------------------------------------------
 Symbolic Z-matrix:
 Charge =  0 Multiplicity = 1

                         Standard orientation:
 ---------------------------------------------------------------------
 Center     Atomic      Atomic             Coordinates (Angstroms)
 Number     Number       Type             X           Y           Z
 ---------------------------------------------------------------------
      1          6           0        2.739176    2.663018    0.446458
      2          6           0        2.120862    1.695734    1.245564
      3          6           0        2.273707    0.335654    0.960312
      4          6           0        3.055391   -0.023286   -0.136694
      5          6           0        3.684167    0.916753   -0.951713
      6          6           0        3.517482    2.271132   -0.647701
      7          1           0        2.615067    3.717346    0.675336
      8          1           0        1.515842    1.997164    2.095938
      9          1           0        1.806266   -0.434089    1.562320
     10          1           0        4.281202    0.585568   -1.792714
     11          1           0        3.998851    3.020146   -1.270040
     12          7           0        3.224526   -1.460124   -0.448608
     13          8           0        3.918323   -1.750427   -1.420723
     14          8           0        2.660096   -2.268808    0.284935
     15          6           0       -4.587878    1.413239   -1.048221
     16          6           0       -4.482308    0.100479   -1.519430
     17          6           0       -3.620978   -0.809421   -0.899156
     18          6           0       -2.876665   -0.370792    0.194870
     19          6           0       -2.959820    0.930517    0.687792
     20          6           0       -3.827637    1.823345    0.051946
     21          1           0       -5.259500    2.113440   -1.536113
     22          1           0       -5.071506   -0.220792   -2.373640
     23          1           0       -3.519813   -1.831562   -1.243263
     24          1           0       -2.359678    1.221509    1.541355
     25          1           0       -3.907587    2.842239    0.420062
     26          7           0       -1.961379   -1.325025    0.859769
     27          8           0       -1.316445   -0.913883    1.821881
     28          8           0       -1.906244   -2.466027    0.406215
 ---------------------------------------------------------------------

 SCF Done:  E(RHF) =  -868.337863274     A.U. after   16 cycles
 E2 =    -0.2599617104D+01 EUMP2 =    -0.87093748037727D+03

 The electronic state is 1-A.
 Alpha  occ. eigenvalues --  -20.61008 -20.60917 -20.60002 -20.59935 -15.86009
 Alpha  occ. eigenvalues --  -15.85025 -11.31394 -11.30500 -11.28017 -11.27922
 Alpha  occ. eigenvalues --  -11.27707 -11.27181 -11.27014 -11.26976 -11.26953
 Alpha  occ. eigenvalues --  -11.26949 -11.26233 -11.26134  -1.60015  -1.59052
 Alpha  occ. eigenvalues --   -1.39577  -1.38595  -1.19565  -1.18721  -1.08954
 Alpha  occ. eigenvalues --   -1.08118  -1.04977  -1.04126  -0.95787  -0.94912
 Alpha  occ. eigenvalues --   -0.86373  -0.85531  -0.82627  -0.81729  -0.77673
 Alpha  occ. eigenvalues --   -0.76733  -0.72231  -0.71342  -0.71231  -0.70678
 Alpha  occ. eigenvalues --   -0.70385  -0.69832  -0.65224  -0.64982  -0.64370
 Alpha  occ. eigenvalues --   -0.64142  -0.62330  -0.61435  -0.55472  -0.54686
 Alpha  occ. eigenvalues --   -0.53297  -0.53073  -0.52487  -0.52212  -0.48991
 Alpha  occ. eigenvalues --   -0.48952  -0.48028  -0.47976  -0.44974  -0.43972
 Alpha  occ. eigenvalues --   -0.37541  -0.36768  -0.36578  -0.35739
 Alpha virt. eigenvalues --    0.04845   0.05785   0.11075   0.11894   0.16324
 Alpha virt. eigenvalues --    0.17211   0.21079   0.22035   0.26828   0.27537
 Alpha virt. eigenvalues --    0.28457   0.29025   0.30759   0.31478   0.32547

 Mulliken charges:
               1
     1  C   -0.171980
     2  C   -0.222367
     3  C   -0.173249
     4  C    0.156043
     5  C   -0.171626
     6  C   -0.219799
     7  H    0.220980
     8  H    0.222124
     9  H    0.294017
    10  H    0.273570
    11  H    0.219945
    12  N    0.486954
    13  O   -0.465729
    14  O   -0.451072
    15  C   -0.170753
    16  C   -0.218362
    17  C   -0.170075
    18  C    0.159338
    19  C   -0.170426
    20  C   -0.218348
    21  H    0.225898
    22  H    0.224865
    23  H    0.278370
    24  H    0.270026
    25  H    0.221783
    26  N    0.489340
    27  O   -0.469770
    28  O   -0.449696
 Sum of Mulliken charges =  -0.00000

 Dipole moment (field-independent basis, Debye):
    X=             -4.0738    Y=              8.0836    Z=             -1.2194  Tot=              9.1339
 Quadrupole moment (field-independent basis, Debye-Ang):
   XX=            -89.5447   YY=           -105.7133   ZZ=           -101.7670
   XY=              8.6686   XZ=              8.7831   YZ=              2.2867

 Normal termination of Gaussian 16 at Thu May  6 11:22:21 2021.
