 Gaussian 16, Revision A.03,
 Gaussian 16:  EM64L-G16RevA.03 25-Dec-2016

 -------------
 #p 6-31g* mp2
 -------------

 ------------------------------------------------------
 Input file generated by CHIRIPA (05-May-2021 14:53:12)
 ------------------------------------------------------
 Symbolic Z-matrix:
 Charge =  0 Multiplicity = 1

                         Standard orientation:
 ---------------------------------------------------------------------
 Center     Atomic      Atomic             Coordinates (Angstroms)
 Number     Number       Type             X           Y           Z
 ---------------------------------------------------------------------
      1          6           0        2.049255    1.121127   -0.478882
      2          6           0        2.275641    2.446811    0.248647
      3          6           0        1.231301    3.504183   -0.110676
      4          1           0        2.062669    1.298215   -1.563043
      5          1           0        1.046028    0.744310   -0.236110
      6          1           0        3.278669    2.820324    0.005668
      7          1           0        2.261879    2.266515    1.331199
      8          1           0        0.225987    3.156170    0.147842
      9          1           0        1.248555    3.713126   -1.185220
     10          1           0        1.412101    4.443822    0.420596
     11          6           0        3.085256    0.054014   -0.130027
     12          6           0        2.858870   -1.271669   -0.857556
     13          6           0        3.903210   -2.329041   -0.498234
     14          1           0        4.088483    0.430832   -0.372800
     15          1           0        3.071843   -0.123074    0.954134
     16          1           0        2.872633   -1.091374   -1.940109
     17          1           0        1.855842   -1.645183   -0.614578
     18          1           0        3.885956   -2.537984    0.576311
     19          1           0        4.908524   -1.981029   -0.756751
     20          1           0        3.722410   -3.268681   -1.029505
     21          6           0       -0.624495   -0.997027    2.279632
     22          6           0       -1.596455    0.007240    2.336727
     23          6           0       -2.367577    0.313804    1.211588
     24          6           0       -2.139195   -0.407029    0.040464
     25          6           0       -1.178371   -1.413160   -0.047897
     26          6           0       -0.418917   -1.702778    1.089601
     27          1           0       -0.030002   -1.228592    3.158467
     28          1           0       -1.758289    0.556970    3.259577
     29          1           0       -3.126710    1.086374    1.228017
     30          1           0       -1.040007   -1.943931   -0.982004
     31          1           0        0.335221   -2.483219    1.042349
     32          7           0       -2.949371   -0.091453   -1.157212
     33          8           0       -2.728782   -0.741052   -2.177016
     34          8           0       -3.789636    0.799518   -1.053469
 ---------------------------------------------------------------------

 SCF Done:  E(RHF) =  -669.534451687     A.U. after   15 cycles
 E2 =    -0.2094963701D+01 EUMP2 =    -0.67162941538828D+03

 The electronic state is 1-A.
 Alpha  occ. eigenvalues --  -20.60848 -20.60843 -15.85905 -11.31334 -11.27905
 Alpha  occ. eigenvalues --  -11.27883 -11.27640 -11.26931 -11.26900 -11.22077
 Alpha  occ. eigenvalues --  -11.21758 -11.21753 -11.21651 -11.21448 -11.21134
 Alpha  occ. eigenvalues --   -1.59922  -1.39474  -1.19520  -1.08901  -1.08712
 Alpha  occ. eigenvalues --   -1.04932  -1.03849  -0.96281  -0.95715  -0.87299
 Alpha  occ. eigenvalues --   -0.86309  -0.82558  -0.79934  -0.78521  -0.77580
 Alpha  occ. eigenvalues --   -0.72120  -0.71247  -0.70600  -0.65489  -0.65153
 Alpha  occ. eigenvalues --   -0.64860  -0.62322  -0.61199  -0.59664  -0.57891
 Alpha  occ. eigenvalues --   -0.55603  -0.55396  -0.53323  -0.53015  -0.52960
 Alpha  occ. eigenvalues --   -0.52682  -0.50223  -0.48886  -0.48872  -0.48238
 Alpha  occ. eigenvalues --   -0.46986  -0.46043  -0.45909  -0.44863  -0.44073
 Alpha  occ. eigenvalues --   -0.37488  -0.36428
 Alpha virt. eigenvalues --    0.04917   0.11059   0.16275   0.20280   0.22974
 Alpha virt. eigenvalues --    0.23728   0.26090   0.26570   0.27579   0.28109
 Alpha virt. eigenvalues --    0.28491   0.30488   0.31181   0.31366   0.32304

 Mulliken charges:
               1
     1  C   -0.305147
     2  C   -0.298627
     3  C   -0.476080
     4  H    0.151955
     5  H    0.158015
     6  H    0.151746
     7  H    0.147581
     8  H    0.154937
     9  H    0.158396
    10  H    0.159362
    11  C   -0.295830
    12  C   -0.303964
    13  C   -0.476322
    14  H    0.151224
    15  H    0.143408
    16  H    0.156969
    17  H    0.145304
    18  H    0.149881
    19  H    0.159227
    20  H    0.160429
    21  C   -0.172513
    22  C   -0.218253
    23  C   -0.172171
    24  C    0.159722
    25  C   -0.171504
    26  C   -0.217005
    27  H    0.226408
    28  H    0.224439
    29  H    0.276499
    30  H    0.277027
    31  H    0.226331
    32  N    0.488191
    33  O   -0.459658
    34  O   -0.459978
 Sum of Mulliken charges =  -0.00000

 Dipole moment (field-independent basis, Debye):
    X=              2.7572    Y=             -1.0829    Z=              4.1709  Tot=              5.1158
 Quadrupole moment (field-independent basis, Debye-Ang):
   XX=           -106.5696   YY=            -92.5317   ZZ=            -92.8534
   XY=              0.0909   XZ=            -11.2173   YZ=              0.1098

 Normal termination of Gaussian 16 at Wed May  5 20:09:53 2021.
