 Gaussian 16, Revision A.03,
 Gaussian 16:  EM64L-G16RevA.03 25-Dec-2016

 -------------
 #p 6-31g* mp2
 -------------

 ------------------------------------------------------
 Input file generated by CHIRIPA (05-May-2021 14:55:25)
 ------------------------------------------------------
 Symbolic Z-matrix:
 Charge =  0 Multiplicity = 1

                         Standard orientation:
 ---------------------------------------------------------------------
 Center     Atomic      Atomic             Coordinates (Angstroms)
 Number     Number       Type             X           Y           Z
 ---------------------------------------------------------------------
      1          6           0       -2.066217    2.129714    0.086772
      2          6           0       -2.002281    1.248477    1.171141
      3          6           0       -2.698229    0.036286    1.142923
      4          6           0       -3.451805   -0.264118    0.009269
      5          6           0       -3.535371    0.593030   -1.086907
      6          6           0       -2.831210    1.799759   -1.036810
      7          1           0       -1.522398    3.069251    0.117191
      8          1           0       -1.408974    1.502103    2.045043
      9          1           0       -2.666260   -0.664334    1.968470
     10          1           0       -4.135196    0.312586   -1.944217
     11          1           0       -2.882701    2.482211   -1.880406
     12          7           0       -4.192921   -1.544519   -0.032185
     13          8           0       -4.849743   -1.785859   -1.042620
     14          8           0       -4.102954   -2.282514    0.946542
     15          6           0        4.812616   -0.242339   -0.449481
     16          6           0        5.899398   -0.939002    0.370000
     17          6           0        6.993956   -1.554805   -0.502079
     18          1           0        4.365710   -0.966272   -1.144565
     19          1           0        5.274147    0.540348   -1.067369
     20          1           0        5.435766   -1.719219    0.987191
     21          1           0        6.343637   -0.213373    1.063348
     22          1           0        7.483110   -0.784736   -1.107326
     23          1           0        6.570080   -2.299136   -1.183915
     24          1           0        7.760481   -2.047599    0.104099
     25          6           0        3.711313    0.378255    0.408262
     26          6           0        2.624531    1.074919   -0.411220
     27          6           0        1.529973    1.690721    0.460860
     28          1           0        3.249782   -0.404432    1.026149
     29          1           0        4.158219    1.102188    1.103345
     30          1           0        2.180292    0.349290   -1.104568
     31          1           0        3.088164    1.855135   -1.028410
     32          1           0        1.953850    2.435053    1.142695
     33          1           0        1.040819    0.920652    1.066106
     34          1           0        0.763448    2.183515   -0.145319
 ---------------------------------------------------------------------

 SCF Done:  E(RHF) =  -669.533966347     A.U. after   15 cycles
 E2 =    -0.2092510621D+01 EUMP2 =    -0.67162647696831D+03

 The electronic state is 1-A.
 Alpha  occ. eigenvalues --  -20.60750 -20.60744 -15.85804 -11.31161 -11.27735
 Alpha  occ. eigenvalues --  -11.27717 -11.27446 -11.26751 -11.26706 -11.22161
 Alpha  occ. eigenvalues --  -11.21865 -11.21838 -11.21826 -11.21696 -11.21275
 Alpha  occ. eigenvalues --   -1.59826  -1.39380  -1.19339  -1.08851  -1.08730
 Alpha  occ. eigenvalues --   -1.04743  -1.03972  -0.96459  -0.95566  -0.87493
 Alpha  occ. eigenvalues --   -0.86127  -0.82407  -0.80057  -0.78632  -0.77446
 Alpha  occ. eigenvalues --   -0.72022  -0.71150  -0.70476  -0.65470  -0.64990
 Alpha  occ. eigenvalues --   -0.64747  -0.62100  -0.61357  -0.59865  -0.58059
 Alpha  occ. eigenvalues --   -0.55756  -0.55268  -0.53460  -0.52973  -0.52739
 Alpha  occ. eigenvalues --   -0.52715  -0.50360  -0.48784  -0.48777  -0.48354
 Alpha  occ. eigenvalues --   -0.47058  -0.46182  -0.46085  -0.44788  -0.44238
 Alpha  occ. eigenvalues --   -0.37232  -0.36320
 Alpha virt. eigenvalues --    0.05046   0.11274   0.16409   0.20866   0.22544
 Alpha virt. eigenvalues --    0.24058   0.26102   0.26478   0.26924   0.27563
 Alpha virt. eigenvalues --    0.28621   0.29959   0.31104   0.31726   0.32334

 Mulliken charges:
               1
     1  C   -0.169680
     2  C   -0.213430
     3  C   -0.173556
     4  C    0.158662
     5  C   -0.170849
     6  C   -0.220436
     7  H    0.226182
     8  H    0.225063
     9  H    0.275229
    10  H    0.275443
    11  H    0.223233
    12  N    0.488084
    13  O   -0.460580
    14  O   -0.460634
    15  C   -0.298759
    16  C   -0.300012
    17  C   -0.475985
    18  H    0.151261
    19  H    0.149580
    20  H    0.152856
    21  H    0.151722
    22  H    0.155157
    23  H    0.156177
    24  H    0.161162
    25  C   -0.299171
    26  C   -0.299410
    27  C   -0.478469
    28  H    0.150510
    29  H    0.149250
    30  H    0.155567
    31  H    0.151947
    32  H    0.152595
    33  H    0.155503
    34  H    0.155786
 Sum of Mulliken charges =  -0.00000

 Dipole moment (field-independent basis, Debye):
    X=              2.7028    Y=              4.4752    Z=              0.1256  Tot=              5.2296
 Quadrupole moment (field-independent basis, Debye-Ang):
   XX=           -113.2292   YY=            -97.1542   ZZ=            -91.0063
   XY=            -16.1508   XZ=              1.6920   YZ=             -1.4315

 Normal termination of Gaussian 16 at Wed May  5 20:51:06 2021.
