 Gaussian 16, Revision A.03,
 Gaussian 16:  EM64L-G16RevA.03 25-Dec-2016

 -------------
 #p 6-31g* mp2
 -------------

 ------------------------------------------------------
 Input file generated by CHIRIPA (05-May-2021 14:55:23)
 ------------------------------------------------------
 Symbolic Z-matrix:
 Charge =  0 Multiplicity = 1

                         Standard orientation:
 ---------------------------------------------------------------------
 Center     Atomic      Atomic             Coordinates (Angstroms)
 Number     Number       Type             X           Y           Z
 ---------------------------------------------------------------------
      1          6           0        6.214162   -1.225132   -0.378676
      2          6           0        5.004999   -1.881101   -0.125400
      3          6           0        3.827261   -1.151595    0.062490
      4          6           0        3.895327    0.238877   -0.009930
      5          6           0        5.084681    0.921418   -0.260660
      6          6           0        6.250081    0.171572   -0.445380
      7          1           0        7.124265   -1.799730   -0.523402
      8          1           0        4.974118   -2.965698   -0.073046
      9          1           0        2.877608   -1.633851    0.259992
     10          1           0        5.084005    2.003669   -0.307040
     11          1           0        7.187712    0.683687   -0.641927
     12          7           0        2.655040    1.021939    0.187302
     13          8           0        2.741566    2.246042    0.118595
     14          8           0        1.619861    0.396772    0.406867
     15          6           0       -4.654195   -0.457458    0.415984
     16          6           0       -3.330086    0.260536    0.152920
     17          6           0       -2.152205   -0.385161    0.883307
     18          1           0       -4.851094   -0.465713    1.496774
     19          1           0       -4.561360   -1.507886    0.107151
     20          1           0       -3.425832    1.309637    0.460874
     21          1           0       -3.136411    0.267251   -0.927386
     22          1           0       -2.028195   -1.426559    0.569122
     23          1           0       -2.319260   -0.378251    1.965271
     24          1           0       -1.215702    0.143981    0.681236
     25          6           0       -5.841143    0.176323   -0.307346
     26          6           0       -7.165253   -0.541671   -0.044281
     27          6           0       -8.343134    0.104025   -0.774669
     28          1           0       -5.933979    1.226750    0.001486
     29          1           0       -5.644245    0.184578   -1.388137
     30          1           0       -7.358927   -0.548386    1.036025
     31          1           0       -7.069507   -1.590772   -0.352235
     32          1           0       -8.176079    0.097115   -1.856633
     33          1           0       -8.467144    1.145424   -0.460485
     34          1           0       -9.279637   -0.425116   -0.572598
 ---------------------------------------------------------------------

 SCF Done:  E(RHF) =  -669.536190285     A.U. after   15 cycles
 E2 =    -0.2090573869D+01 EUMP2 =    -0.67162676415345D+03

 The electronic state is 1-A.
 Alpha  occ. eigenvalues --  -20.60934 -20.60924 -15.85970 -11.31282 -11.27845
 Alpha  occ. eigenvalues --  -11.27839 -11.27584 -11.26852 -11.26842 -11.21082
 Alpha  occ. eigenvalues --  -11.20727 -11.20634 -11.20574 -11.20499 -11.19597
 Alpha  occ. eigenvalues --   -1.59995  -1.39551  -1.19450  -1.08857  -1.07666
 Alpha  occ. eigenvalues --   -1.04846  -1.02685  -0.95701  -0.95116  -0.86247
 Alpha  occ. eigenvalues --   -0.86133  -0.82533  -0.78780  -0.77586  -0.77456
 Alpha  occ. eigenvalues --   -0.72197  -0.71309  -0.70559  -0.65107  -0.64849
 Alpha  occ. eigenvalues --   -0.64310  -0.62192  -0.60100  -0.58508  -0.56696
 Alpha  occ. eigenvalues --   -0.55351  -0.54434  -0.53178  -0.52938  -0.51747
 Alpha  occ. eigenvalues --   -0.51549  -0.49103  -0.48945  -0.48930  -0.47066
 Alpha  occ. eigenvalues --   -0.45849  -0.44998  -0.44963  -0.44924  -0.42898
 Alpha  occ. eigenvalues --   -0.37431  -0.36447
 Alpha virt. eigenvalues --    0.04948   0.11209   0.16448   0.21335   0.23572
 Alpha virt. eigenvalues --    0.25214   0.27260   0.27360   0.28145   0.28218
 Alpha virt. eigenvalues --    0.28968   0.30901   0.32172   0.32368   0.32511

 Mulliken charges:
               1
     1  C   -0.170585
     2  C   -0.218583
     3  C   -0.170861
     4  C    0.157406
     5  C   -0.170415
     6  C   -0.218645
     7  H    0.225943
     8  H    0.223852
     9  H    0.276289
    10  H    0.275829
    11  H    0.223749
    12  N    0.493882
    13  O   -0.459226
    14  O   -0.465095
    15  C   -0.297170
    16  C   -0.298755
    17  C   -0.487120
    18  H    0.147870
    19  H    0.146590
    20  H    0.151921
    21  H    0.150106
    22  H    0.146354
    23  H    0.149249
    24  H    0.191823
    25  C   -0.297566
    26  C   -0.298950
    27  C   -0.475273
    28  H    0.149270
    29  H    0.148581
    30  H    0.151126
    31  H    0.150526
    32  H    0.154479
    33  H    0.154935
    34  H    0.158465
 Sum of Mulliken charges =  -0.00000

 Dipole moment (field-independent basis, Debye):
    X=              4.7237    Y=             -2.6814    Z=             -0.7022  Tot=              5.4769
 Quadrupole moment (field-independent basis, Debye-Ang):
   XX=            -61.9093   YY=            -92.4663   ZZ=            -95.2432
   XY=             -7.4044   XZ=             -3.7846   YZ=             -0.0536

 Normal termination of Gaussian 16 at Thu May  6 17:38:28 2021.
