 Gaussian 16, Revision A.03,
 Gaussian 16:  EM64L-G16RevA.03 25-Dec-2016

 -------------
 #p 6-31g* mp2
 -------------

 ------------------------------------------------------
 Input file generated by CHIRIPA (05-May-2021 14:55:25)
 ------------------------------------------------------
 Symbolic Z-matrix:
 Charge =  0 Multiplicity = 1

                         Standard orientation:
 ---------------------------------------------------------------------
 Center     Atomic      Atomic             Coordinates (Angstroms)
 Number     Number       Type             X           Y           Z
 ---------------------------------------------------------------------
      1          6           0        1.407477    0.963280    0.415862
      2          6           0        1.624094   -0.356400    0.825790
      3          6           0        2.867168   -0.965609    0.630390
      4          6           0        3.875837   -0.222501    0.019108
      5          6           0        3.690915    1.094000   -0.400321
      6          6           0        2.439759    1.683000   -0.194808
      7          1           0        0.438689    1.428679    0.571582
      8          1           0        0.824243   -0.917752    1.300309
      9          1           0        3.062130   -1.985789    0.938029
     10          1           0        4.507561    1.628210   -0.870562
     11          1           0        2.274390    2.708036   -0.514182
     12          7           0        5.196101   -0.856746   -0.193106
     13          8           0        6.068433   -0.180645   -0.733996
     14          8           0        5.333593   -2.017958    0.185469
     15          6           0       -4.449757    0.845470    0.147458
     16          6           0       -2.991505    1.135046   -0.209799
     17          6           0       -2.540519    2.528191    0.230149
     18          1           0       -5.092550    1.604736   -0.318672
     19          1           0       -4.581345    0.948539    1.233487
     20          1           0       -2.862399    1.030108   -1.294665
     21          1           0       -2.352126    0.374891    0.257080
     22          1           0       -2.640731    2.640997    1.314506
     23          1           0       -3.153904    3.299936   -0.246055
     24          1           0       -1.495091    2.714144   -0.035110
     25          6           0       -4.915341   -0.543469   -0.285912
     26          6           0       -6.373592   -0.833044    0.071344
     27          6           0       -6.824579   -2.226189   -0.368602
     28          1           0       -4.783753   -0.646537   -1.371940
     29          1           0       -4.272548   -1.302734    0.180219
     30          1           0       -7.012971   -0.072890   -0.395534
     31          1           0       -6.502698   -0.728106    1.156211
     32          1           0       -6.211194   -2.997934    0.107601
     33          1           0       -6.724367   -2.338994   -1.452961
     34          1           0       -7.870006   -2.412142   -0.103343
 ---------------------------------------------------------------------

 SCF Done:  E(RHF) =  -669.535472562     A.U. after   15 cycles
 E2 =    -0.2091036851D+01 EUMP2 =    -0.67162650941311D+03

 The electronic state is 1-A.
 Alpha  occ. eigenvalues --  -20.60726 -20.60721 -15.85780 -11.31136 -11.27710
 Alpha  occ. eigenvalues --  -11.27707 -11.27406 -11.26718 -11.26708 -11.22727
 Alpha  occ. eigenvalues --  -11.22364 -11.22246 -11.22170 -11.22066 -11.21538
 Alpha  occ. eigenvalues --   -1.59802  -1.39355  -1.19308  -1.09256  -1.08701
 Alpha  occ. eigenvalues --   -1.04714  -1.04384  -0.96835  -0.95537  -0.87849
 Alpha  occ. eigenvalues --   -0.86110  -0.82374  -0.80455  -0.79017  -0.77424
 Alpha  occ. eigenvalues --   -0.71998  -0.71125  -0.70438  -0.65882  -0.64960
 Alpha  occ. eigenvalues --   -0.64725  -0.62065  -0.61770  -0.60288  -0.58454
 Alpha  occ. eigenvalues --   -0.56112  -0.55195  -0.53519  -0.53218  -0.53037
 Alpha  occ. eigenvalues --   -0.52806  -0.50756  -0.48783  -0.48753  -0.48738
 Alpha  occ. eigenvalues --   -0.47482  -0.46569  -0.46461  -0.44763  -0.44626
 Alpha  occ. eigenvalues --   -0.37279  -0.36321
 Alpha virt. eigenvalues --    0.05109   0.11326   0.16579   0.19195   0.22466
 Alpha virt. eigenvalues --    0.23863   0.25323   0.26097   0.26419   0.27459
 Alpha virt. eigenvalues --    0.29037   0.30193   0.30850   0.31215   0.31784

 Mulliken charges:
               1
     1  C   -0.177692
     2  C   -0.220685
     3  C   -0.170667
     4  C    0.158158
     5  C   -0.170717
     6  C   -0.221078
     7  H    0.238019
     8  H    0.223139
     9  H    0.275323
    10  H    0.275433
    11  H    0.222976
    12  N    0.488038
    13  O   -0.460586
    14  O   -0.460603
    15  C   -0.298900
    16  C   -0.300660
    17  C   -0.480107
    18  H    0.152595
    19  H    0.150578
    20  H    0.156622
    21  H    0.145069
    22  H    0.157814
    23  H    0.162823
    24  H    0.150707
    25  C   -0.298672
    26  C   -0.300317
    27  C   -0.476131
    28  H    0.151356
    29  H    0.148748
    30  H    0.153164
    31  H    0.152477
    32  H    0.155470
    33  H    0.156237
    34  H    0.162069
 Sum of Mulliken charges =  -0.00000

 Dipole moment (field-independent basis, Debye):
    X=             -4.9327    Y=              2.2440    Z=              0.7113  Tot=              5.4656
 Quadrupole moment (field-independent basis, Debye-Ang):
   XX=           -129.9424   YY=            -93.0910   ZZ=            -93.7991
   XY=             10.7038   XZ=              2.2639   YZ=             -2.8331

 Normal termination of Gaussian 16 at Thu May  6 11:07:57 2021.
