 Gaussian 16, Revision A.03,
 Gaussian 16:  EM64L-G16RevA.03 25-Dec-2016

 -------------
 #p 6-31g* mp2
 -------------

 ------------------------------------------------------
 Input file generated by CHIRIPA (05-May-2021 14:51:14)
 ------------------------------------------------------
 Symbolic Z-matrix:
 Charge =  0 Multiplicity = 1

                         Standard orientation:
 ---------------------------------------------------------------------
 Center     Atomic      Atomic             Coordinates (Angstroms)
 Number     Number       Type             X           Y           Z
 ---------------------------------------------------------------------
      1          6           0        2.592865    1.469020    0.301430
      2          6           0        1.273448    2.060544   -0.195786
      3          6           0        0.865548    3.320755    0.567942
      4          1           0        2.503541    1.238045    1.371765
      5          1           0        3.383721    2.226376    0.210039
      6          1           0        0.485599    1.301843   -0.104775
      7          1           0        1.365860    2.289960   -1.265106
      8          1           0        1.631066    4.096932    0.467289
      9          1           0        0.745804    3.103201    1.634212
     10          1           0       -0.080351    3.726935    0.196251
     11          6           0        3.013973    0.208759   -0.452320
     12          6           0        4.333390   -0.382765    0.044896
     13          6           0        4.741290   -1.642976   -0.718832
     14          1           0        2.223117   -0.548597   -0.360929
     15          1           0        3.103296    0.439734   -1.522655
     16          1           0        4.240978   -0.612181    1.114215
     17          1           0        5.121238    0.375936   -0.046115
     18          1           0        4.861033   -1.425422   -1.785103
     19          1           0        3.975771   -2.419153   -0.618179
     20          1           0        5.687189   -2.049156   -0.347141
     21          6           0       -2.164572   -0.987530    0.466869
     22          6           0       -1.501790   -2.306348    0.067590
     23          6           0       -0.224889   -2.589749    0.859423
     24          1           0       -1.450110   -0.166085    0.319496
     25          1           0       -2.395774   -1.011798    1.540812
     26          1           0       -1.273163   -2.280142   -1.005565
     27          1           0       -2.217976   -3.124725    0.215749
     28          1           0       -0.440207   -2.642765    1.931537
     29          1           0        0.509974   -1.793383    0.703284
     30          1           0        0.232465   -3.537282    0.557980
     31          6           0       -3.442266   -0.690249   -0.315979
     32          6           0       -4.105048    0.628569    0.083301
     33          6           0       -5.381949    0.911970   -0.708534
     34          1           0       -3.211064   -0.665980   -1.389922
     35          1           0       -4.156727   -1.511694   -0.168606
     36          1           0       -3.388861    1.446946   -0.064860
     37          1           0       -4.333674    0.602363    1.156455
     38          1           0       -6.116812    0.115605   -0.552394
     39          1           0       -5.166630    0.964986   -1.780647
     40          1           0       -5.839302    1.859504   -0.407090
 ---------------------------------------------------------------------

 SCF Done:  E(RHF) =  -470.733034878     A.U. after   11 cycles
 E2 =    -0.1584012144D+01 EUMP2 =    -0.47231704702192D+03

 The electronic state is 1-A.
 Alpha  occ. eigenvalues --  -11.21648 -11.21647 -11.21614 -11.21600 -11.21435
 Alpha  occ. eigenvalues --  -11.21424 -11.21374 -11.21362 -11.21134 -11.21104
 Alpha  occ. eigenvalues --  -11.21079 -11.21056  -1.08483  -1.08438  -1.03566
 Alpha  occ. eigenvalues --   -1.03548  -0.96033  -0.95981  -0.87053  -0.86994
 Alpha  occ. eigenvalues --   -0.79634  -0.79616  -0.78360  -0.78193  -0.65290
 Alpha  occ. eigenvalues --   -0.64924  -0.60962  -0.60955  -0.59391  -0.59357
 Alpha  occ. eigenvalues --   -0.57680  -0.57565  -0.55472  -0.55135  -0.52710
 Alpha  occ. eigenvalues --   -0.52688  -0.52505  -0.52363  -0.50116  -0.49795
 Alpha  occ. eigenvalues --   -0.47988  -0.47919  -0.46828  -0.46665  -0.46057
 Alpha  occ. eigenvalues --   -0.45780  -0.45772  -0.45206  -0.43819  -0.43800
 Alpha virt. eigenvalues --    0.19639   0.22766   0.23899   0.24281   0.25778
 Alpha virt. eigenvalues --    0.26808   0.27141   0.27348   0.28054   0.29678
 Alpha virt. eigenvalues --    0.30834   0.31566   0.31710   0.31778   0.31981

 Mulliken charges:
               1
     1  C   -0.297551
     2  C   -0.308816
     3  C   -0.475222
     4  H    0.149952
     5  H    0.149897
     6  H    0.158445
     7  H    0.152118
     8  H    0.155499
     9  H    0.155700
    10  H    0.159921
    11  C   -0.306714
    12  C   -0.299200
    13  C   -0.476038
    14  H    0.156664
    15  H    0.149821
    16  H    0.152282
    17  H    0.151941
    18  H    0.154968
    19  H    0.155855
    20  H    0.160264
    21  C   -0.307648
    22  C   -0.298907
    23  C   -0.483377
    24  H    0.157826
    25  H    0.149678
    26  H    0.152274
    27  H    0.152394
    28  H    0.155618
    29  H    0.160879
    30  H    0.160479
    31  C   -0.297760
    32  C   -0.299800
    33  C   -0.475760
    34  H    0.149740
    35  H    0.149789
    36  H    0.152014
    37  H    0.151974
    38  H    0.155197
    39  H    0.155269
    40  H    0.160337
 Sum of Mulliken charges =  -0.00000

 Dipole moment (field-independent basis, Debye):
    X=             -0.0046    Y=             -0.0019    Z=              0.0047  Tot=              0.0069
 Quadrupole moment (field-independent basis, Debye-Ang):
   XX=            -85.2469   YY=            -85.1644   ZZ=            -84.2592
   XY=              1.2970   XZ=             -0.9843   YZ=             -0.9844

 Normal termination of Gaussian 16 at Thu May  6 02:26:10 2021.
