 Gaussian 16, Revision A.03,
 Gaussian 16:  EM64L-G16RevA.03 25-Dec-2016

 -------------
 #p 6-31g* mp2
 -------------

 ------------------------------------------------------
 Input file generated by CHIRIPA (05-May-2021 14:57:24)
 ------------------------------------------------------
 Symbolic Z-matrix:
 Charge =  0 Multiplicity = 1

                         Standard orientation:
 ---------------------------------------------------------------------
 Center     Atomic      Atomic             Coordinates (Angstroms)
 Number     Number       Type             X           Y           Z
 ---------------------------------------------------------------------
      1          6           0       -1.846426    2.683328   -0.886218
      2          6           0       -2.791485    2.473767    0.123470
      3          6           0       -3.134559    1.176785    0.516770
      4          6           0       -2.510214    0.107598   -0.123795
      5          6           0       -1.564891    0.283921   -1.133035
      6          6           0       -1.237220    1.589665   -1.510147
      7          1           0       -1.585901    3.694258   -1.185456
      8          1           0       -3.266211    3.321228    0.609772
      9          1           0       -3.862894    0.985901    1.295557
     10          1           0       -1.108596   -0.580807   -1.599358
     11          1           0       -0.502929    1.749410   -2.294586
     12          7           0       -2.865258   -1.270097    0.284006
     13          8           0       -2.300913   -2.195219   -0.295908
     14          8           0       -3.701164   -1.398724    1.175832
     15          6           0        3.518174    1.885080    0.739927
     16          6           0        3.897777    1.192530   -0.414541
     17          6           0        3.313553   -0.038154   -0.728620
     18          6           0        2.348596   -0.549255    0.137938
     19          6           0        1.949196    0.116783    1.295593
     20          6           0        2.546807    1.345947    1.589811
     21          1           0        3.977214    2.840515    0.976198
     22          1           0        4.651892    1.608819   -1.076402
     23          1           0        3.588730   -0.595451   -1.615815
     24          1           0        1.194691   -0.323584    1.936074
     25          1           0        2.250042    1.881573    2.487073
     26          7           0        1.723017   -1.851320   -0.184051
     27          8           0        0.875226   -2.280165    0.595679
     28          8           0        2.092326   -2.418380   -1.210059
 ---------------------------------------------------------------------

 SCF Done:  E(RHF) =  -868.335832539     A.U. after   16 cycles
 E2 =    -0.2602541643D+01 EUMP2 =    -0.87093837418133D+03

 The electronic state is 1-A.
 Alpha  occ. eigenvalues --  -20.60751 -20.60647 -20.60133 -20.59977 -15.85740
 Alpha  occ. eigenvalues --  -15.85105 -11.31349 -11.30877 -11.27962 -11.27914
 Alpha  occ. eigenvalues --  -11.27726 -11.27505 -11.27438 -11.27319 -11.27017
 Alpha  occ. eigenvalues --  -11.26977 -11.26617 -11.26581  -1.59777  -1.59121
 Alpha  occ. eigenvalues --   -1.39320  -1.38658  -1.19545  -1.19087  -1.08898
 Alpha  occ. eigenvalues --   -1.08411  -1.04972  -1.04544  -0.95687  -0.95176
 Alpha  occ. eigenvalues --   -0.86361  -0.85919  -0.82508  -0.81999  -0.77526
 Alpha  occ. eigenvalues --   -0.76976  -0.71954  -0.71366  -0.71131  -0.70643
 Alpha  occ. eigenvalues --   -0.70407  -0.70178  -0.65183  -0.64968  -0.64723
 Alpha  occ. eigenvalues --   -0.64545  -0.62310  -0.61871  -0.55466  -0.55044
 Alpha  occ. eigenvalues --   -0.53362  -0.53062  -0.52807  -0.52631  -0.48726
 Alpha  occ. eigenvalues --   -0.48696  -0.48130  -0.48061  -0.44782  -0.43809
 Alpha  occ. eigenvalues --   -0.37582  -0.37093  -0.36622  -0.36105
 Alpha virt. eigenvalues --    0.04986   0.05557   0.10989   0.11526   0.16440
 Alpha virt. eigenvalues --    0.16981   0.21194   0.21562   0.27105   0.27398
 Alpha virt. eigenvalues --    0.28081   0.28459   0.30664   0.31134   0.32340

 Mulliken charges:
               1
     1  C   -0.172846
     2  C   -0.219601
     3  C   -0.173371
     4  C    0.159525
     5  C   -0.176670
     6  C   -0.217436
     7  H    0.222231
     8  H    0.220972
     9  H    0.274945
    10  H    0.282778
    11  H    0.221914
    12  N    0.487149
    13  O   -0.443428
    14  O   -0.466642
    15  C   -0.172457
    16  C   -0.219710
    17  C   -0.174620
    18  C    0.156216
    19  C   -0.169491
    20  C   -0.218311
    21  H    0.224714
    22  H    0.222698
    23  H    0.275362
    24  H    0.278082
    25  H    0.223582
    26  N    0.484119
    27  O   -0.446907
    28  O   -0.462798
 Sum of Mulliken charges =  -0.00000

 Dipole moment (field-independent basis, Debye):
    X=              3.4429    Y=              9.0823    Z=             -0.2464  Tot=              9.7161
 Quadrupole moment (field-independent basis, Debye-Ang):
   XX=            -98.9053   YY=           -109.2302   ZZ=            -99.1986
   XY=             -3.5850   XZ=              1.5869   YZ=              1.0221

 Normal termination of Gaussian 16 at Wed May  5 22:42:01 2021.
