 Gaussian 16, Revision A.03,
 Gaussian 16:  EM64L-G16RevA.03 25-Dec-2016

 -------------
 #p 6-31g* mp2
 -------------

 ------------------------------------------------------
 Input file generated by CHIRIPA (05-May-2021 14:53:17)
 ------------------------------------------------------
 Symbolic Z-matrix:
 Charge =  0 Multiplicity = 1

                         Standard orientation:
 ---------------------------------------------------------------------
 Center     Atomic      Atomic             Coordinates (Angstroms)
 Number     Number       Type             X           Y           Z
 ---------------------------------------------------------------------
      1          6           0        4.760613   -0.398043   -0.020557
      2          6           0        5.825002    0.565366    0.505659
      3          6           0        7.209036   -0.077442    0.600744
      4          1           0        4.713798   -1.277165    0.636631
      5          1           0        5.064765   -0.764026   -1.010983
      6          1           0        5.518260    0.930492    1.494198
      7          1           0        5.869154    1.442386   -0.152751
      8          1           0        7.540269   -0.426070   -0.382793
      9          1           0        7.187382   -0.940873    1.273513
     10          1           0        7.954587    0.628852    0.979114
     11          6           0        3.371674    0.229995   -0.121278
     12          6           0        2.307284   -0.733415   -0.647495
     13          6           0        0.923250   -0.090606   -0.742579
     14          1           0        3.067521    0.595978    0.869147
     15          1           0        3.418488    1.109117   -0.778467
     16          1           0        2.263132   -1.610434    0.010915
     17          1           0        2.614026   -1.098540   -1.636033
     18          1           0        0.944905    0.772825   -1.415349
     19          1           0        0.592017    0.258022    0.240957
     20          1           0        0.177699   -0.796900   -1.120950
     21          6           0       -3.404838   -2.442073    0.214222
     22          6           0       -2.808170   -1.863319   -0.910745
     23          6           0       -2.676462   -0.474989   -1.009454
     24          6           0       -3.154617    0.308080    0.040051
     25          6           0       -3.753767   -0.238703    1.173777
     26          6           0       -3.874903   -1.629351    1.251065
     27          1           0       -3.503046   -3.521461    0.282581
     28          1           0       -2.442202   -2.492022   -1.717494
     29          1           0       -2.218666   -0.000604   -1.868989
     30          1           0       -4.109015    0.414007    1.961931
     31          1           0       -4.338717   -2.076059    2.125922
     32          7           0       -3.020779    1.779069   -0.053109
     33          8           0       -3.450110    2.447015    0.885059
     34          8           0       -2.489080    2.236232   -1.062533
 ---------------------------------------------------------------------

 SCF Done:  E(RHF) =  -669.534853998     A.U. after   15 cycles
 E2 =    -0.2092207320D+01 EUMP2 =    -0.67162706131745D+03

 The electronic state is 1-A.
 Alpha  occ. eigenvalues --  -20.60741 -20.60731 -15.85790 -11.31146 -11.27753
 Alpha  occ. eigenvalues --  -11.27730 -11.27502 -11.26748 -11.26739 -11.21618
 Alpha  occ. eigenvalues --  -11.21535 -11.21356 -11.21286 -11.21030 -11.21013
 Alpha  occ. eigenvalues --   -1.59810  -1.39364  -1.19347  -1.08736  -1.08389
 Alpha  occ. eigenvalues --   -1.04762  -1.03499  -0.95957  -0.95565  -0.86979
 Alpha  occ. eigenvalues --   -0.86141  -0.82408  -0.79572  -0.78197  -0.77445
 Alpha  occ. eigenvalues --   -0.72011  -0.71131  -0.70463  -0.65018  -0.65003
 Alpha  occ. eigenvalues --   -0.64759  -0.62125  -0.60893  -0.59346  -0.57568
 Alpha  occ. eigenvalues --   -0.55263  -0.55222  -0.53326  -0.52865  -0.52411
 Alpha  occ. eigenvalues --   -0.52340  -0.49869  -0.48769  -0.48764  -0.47877
 Alpha  occ. eigenvalues --   -0.46591  -0.45739  -0.45663  -0.44767  -0.43773
 Alpha  occ. eigenvalues --   -0.37323  -0.36275
 Alpha virt. eigenvalues --    0.05068   0.11270   0.16459   0.21199   0.22925
 Alpha virt. eigenvalues --    0.24295   0.26623   0.26781   0.27483   0.27972
 Alpha virt. eigenvalues --    0.28799   0.30501   0.31428   0.31822   0.32500

 Mulliken charges:
               1
     1  C   -0.298161
     2  C   -0.299769
     3  C   -0.475666
     4  H    0.148342
     5  H    0.148791
     6  H    0.152528
     7  H    0.153050
     8  H    0.154824
     9  H    0.154457
    10  H    0.160601
    11  C   -0.298768
    12  C   -0.299991
    13  C   -0.477419
    14  H    0.150935
    15  H    0.152224
    16  H    0.149446
    17  H    0.149814
    18  H    0.162905
    19  H    0.157044
    20  H    0.151476
    21  C   -0.170347
    22  C   -0.219958
    23  C   -0.165454
    24  C    0.157331
    25  C   -0.171203
    26  C   -0.219047
    27  H    0.225554
    28  H    0.223247
    29  H    0.277270
    30  H    0.275535
    31  H    0.223214
    32  N    0.488320
    33  O   -0.460907
    34  O   -0.460220
 Sum of Mulliken charges =  -0.00000

 Dipole moment (field-independent basis, Debye):
    X=             -0.4913    Y=             -5.1054    Z=              0.3322  Tot=              5.1397
 Quadrupole moment (field-independent basis, Debye-Ang):
   XX=            -92.6814   YY=            -98.6436   ZZ=            -90.0261
   XY=             16.7554   XZ=             -3.6692   YZ=              0.0474

 Normal termination of Gaussian 16 at Thu May  6 09:08:07 2021.
