 Gaussian 16, Revision A.03,
 Gaussian 16:  EM64L-G16RevA.03 25-Dec-2016

 -------------
 #p 6-31g* mp2
 -------------

 ------------------------------------------------------
 Input file generated by CHIRIPA (05-May-2021 14:53:16)
 ------------------------------------------------------
 Symbolic Z-matrix:
 Charge =  0 Multiplicity = 1

                         Standard orientation:
 ---------------------------------------------------------------------
 Center     Atomic      Atomic             Coordinates (Angstroms)
 Number     Number       Type             X           Y           Z
 ---------------------------------------------------------------------
      1          6           0       -2.678725    1.178369    0.316901
      2          6           0       -2.354238    2.370488   -0.583956
      3          6           0       -1.661856    3.508001    0.167352
      4          1           0       -3.317788    1.515524    1.144470
      5          1           0       -1.749486    0.807054    0.770811
      6          1           0       -3.283633    2.738577   -1.037114
      7          1           0       -1.716030    2.030418   -1.409583
      8          1           0       -0.719957    3.162860    0.605879
      9          1           0       -2.296466    3.875043    0.980464
     10          1           0       -1.439059    4.349872   -0.495577
     11          6           0       -3.371129    0.033113   -0.419777
     12          6           0       -3.695617   -1.159006    0.481080
     13          6           0       -4.387999   -2.296520   -0.270229
     14          1           0       -4.300368    0.404428   -0.873688
     15          1           0       -2.732066   -0.304042   -1.247346
     16          1           0       -4.333824   -0.818936    1.306707
     17          1           0       -2.766221   -1.527095    0.934237
     18          1           0       -3.753388   -2.663561   -1.083341
     19          1           0       -5.329898   -1.951379   -0.708755
     20          1           0       -4.610795   -3.138390    0.392701
     21          6           0        4.716422    0.398240   -0.222339
     22          6           0        4.133617    0.327784    1.047266
     23          6           0        2.830440   -0.153388    1.204587
     24          6           0        2.135726   -0.557486    0.065566
     25          6           0        2.688923   -0.499436   -1.212673
     26          6           0        3.993489   -0.014868   -1.346274
     27          1           0        5.729300    0.773345   -0.335336
     28          1           0        4.692693    0.647916    1.921907
     29          1           0        2.355019   -0.218650    2.175737
     30          1           0        2.106698   -0.825860   -2.065831
     31          1           0        4.443561    0.038726   -2.333497
     32          7           0        0.755376   -1.068680    0.219559
     33          8           0        0.164364   -1.418526   -0.799730
     34          8           0        0.290606   -1.109828    1.356632
 ---------------------------------------------------------------------

 SCF Done:  E(RHF) =  -669.537274587     A.U. after   15 cycles
 E2 =    -0.2093086881D+01 EUMP2 =    -0.67163036146784D+03

 The electronic state is 1-A.
 Alpha  occ. eigenvalues --  -20.61277 -20.61264 -15.86238 -11.31461 -11.28003
 Alpha  occ. eigenvalues --  -11.28000 -11.27721 -11.26982 -11.26972 -11.20656
 Alpha  occ. eigenvalues --  -11.20437 -11.19952 -11.19777 -11.19712 -11.19573
 Alpha  occ. eigenvalues --   -1.60291  -1.39850  -1.19612  -1.09038  -1.07014
 Alpha  occ. eigenvalues --   -1.04989  -1.02236  -0.95895  -0.94724  -0.86395
 Alpha  occ. eigenvalues --   -0.85757  -0.82734  -0.78334  -0.77803  -0.76754
 Alpha  occ. eigenvalues --   -0.72448  -0.71604  -0.70719  -0.65267  -0.64995
 Alpha  occ. eigenvalues --   -0.63617  -0.62336  -0.59626  -0.58148  -0.56320
 Alpha  occ. eigenvalues --   -0.55498  -0.54020  -0.53317  -0.53078  -0.51503
 Alpha  occ. eigenvalues --   -0.51154  -0.49259  -0.49234  -0.48659  -0.46660
 Alpha  occ. eigenvalues --   -0.45517  -0.45199  -0.44307  -0.43954  -0.42445
 Alpha  occ. eigenvalues --   -0.37581  -0.36583
 Alpha virt. eigenvalues --    0.04670   0.11073   0.16168   0.21199   0.24141
 Alpha virt. eigenvalues --    0.25564   0.27150   0.27791   0.28380   0.28828
 Alpha virt. eigenvalues --    0.29287   0.30926   0.32327   0.32550   0.32783

 Mulliken charges:
               1
     1  C   -0.304830
     2  C   -0.299352
     3  C   -0.473694
     4  H    0.143906
     5  H    0.162986
     6  H    0.148886
     7  H    0.149744
     8  H    0.150618
     9  H    0.154326
    10  H    0.155406
    11  C   -0.297611
    12  C   -0.305753
    13  C   -0.475665
    14  H    0.139521
    15  H    0.160387
    16  H    0.142498
    17  H    0.176531
    18  H    0.158543
    19  H    0.147587
    20  H    0.155331
    21  C   -0.170047
    22  C   -0.218541
    23  C   -0.170577
    24  C    0.158749
    25  C   -0.170490
    26  C   -0.218562
    27  H    0.226736
    28  H    0.224566
    29  H    0.276350
    30  H    0.276059
    31  H    0.224498
    32  N    0.488004
    33  O   -0.458428
    34  O   -0.457683
 Sum of Mulliken charges =  -0.00000

 Dipole moment (field-independent basis, Debye):
    X=              5.3364    Y=              1.5751    Z=             -0.5106  Tot=              5.5874
 Quadrupole moment (field-independent basis, Debye-Ang):
   XX=            -75.3506   YY=            -98.9404   ZZ=            -90.0321
   XY=              0.6569   XZ=             -1.0324   YZ=              0.9997

 Normal termination of Gaussian 16 at Thu May  6 12:12:29 2021.
