 Gaussian 16, Revision A.03,
 Gaussian 16:  EM64L-G16RevA.03 25-Dec-2016

 -------------
 #p 6-31g* mp2
 -------------

 ------------------------------------------------------
 Input file generated by CHIRIPA (05-May-2021 14:51:14)
 ------------------------------------------------------
 Symbolic Z-matrix:
 Charge =  0 Multiplicity = 1

                         Standard orientation:
 ---------------------------------------------------------------------
 Center     Atomic      Atomic             Coordinates (Angstroms)
 Number     Number       Type             X           Y           Z
 ---------------------------------------------------------------------
      1          6           0        4.189997   -0.537316    0.233640
      2          6           0        3.236198   -1.651358   -0.198982
      3          6           0        3.711395   -3.038218    0.235299
      4          1           0        5.186407   -0.733014   -0.185662
      5          1           0        4.300356   -0.562511    1.326609
      6          1           0        3.126591   -1.623192   -1.290682
      7          1           0        2.241896   -1.452883    0.221241
      8          1           0        3.803068   -3.090288    1.325017
      9          1           0        4.692789   -3.261565   -0.195496
     10          1           0        3.014824   -3.819574   -0.084282
     11          6           0        3.728545    0.855015   -0.193215
     12          6           0        4.682344    1.969058    0.239407
     13          6           0        4.207146    3.355918   -0.194874
     14          1           0        3.618186    0.880211   -1.286184
     15          1           0        2.732135    1.050714    0.226087
     16          1           0        5.676646    1.770583   -0.180816
     17          1           0        4.791951    1.940892    1.331107
     18          1           0        3.225753    3.579264    0.235921
     19          1           0        4.115474    3.407988   -1.284592
     20          1           0        4.903718    4.137273    0.124707
     21          6           0       -4.396778    0.449085    0.129569
     22          6           0       -5.888481    0.190114   -0.084310
     23          6           0       -6.750749    1.415692    0.219409
     24          1           0       -4.231551    0.767192    1.168055
     25          1           0       -4.082131    1.287009   -0.507828
     26          1           0       -6.199917   -0.647970    0.552274
     27          1           0       -6.050150   -0.127598   -1.122355
     28          1           0       -6.468277    2.254666   -0.424743
     29          1           0       -6.618894    1.731337    1.259402
     30          1           0       -7.813500    1.208354    0.059938
     31          6           0       -3.521764   -0.766785   -0.169994
     32          6           0       -2.030061   -0.507814    0.043885
     33          6           0       -1.167793   -1.733391   -0.259835
     34          1           0       -3.836411   -1.604708    0.467404
     35          1           0       -3.686991   -1.084891   -1.208480
     36          1           0       -1.868392   -0.190101    1.081930
     37          1           0       -1.718625    0.330270   -0.592699
     38          1           0       -1.299648   -2.049037   -1.299827
     39          1           0       -1.450265   -2.572366    0.384318
     40          1           0       -0.105041   -1.526054   -0.100363
 ---------------------------------------------------------------------

 SCF Done:  E(RHF) =  -470.733316183     A.U. after   11 cycles
 E2 =    -0.1582400055D+01 EUMP2 =    -0.47231571623799D+03

 The electronic state is 1-A.
 Alpha  occ. eigenvalues --  -11.21604 -11.21600 -11.21599 -11.21596 -11.21409
 Alpha  occ. eigenvalues --  -11.21400 -11.21350 -11.21341 -11.21072 -11.21069
 Alpha  occ. eigenvalues --  -11.21059 -11.21029  -1.08438  -1.08422  -1.03543
 Alpha  occ. eigenvalues --   -1.03510  -0.95987  -0.95961  -0.87011  -0.86971
 Alpha  occ. eigenvalues --   -0.79642  -0.79543  -0.78254  -0.78234  -0.65072
 Alpha  occ. eigenvalues --   -0.65054  -0.60952  -0.60916  -0.59464  -0.59233
 Alpha  occ. eigenvalues --   -0.57650  -0.57519  -0.55266  -0.55253  -0.52735
 Alpha  occ. eigenvalues --   -0.52632  -0.52428  -0.52366  -0.49917  -0.49908
 Alpha  occ. eigenvalues --   -0.48021  -0.47803  -0.46624  -0.46614  -0.45800
 Alpha  occ. eigenvalues --   -0.45768  -0.45711  -0.45704  -0.43807  -0.43705
 Alpha virt. eigenvalues --    0.21857   0.23040   0.23608   0.24660   0.26074
 Alpha virt. eigenvalues --    0.26659   0.26997   0.27517   0.28015   0.28740
 Alpha virt. eigenvalues --    0.30367   0.31420   0.31588   0.31869   0.32039

 Mulliken charges:
               1
     1  C   -0.297515
     2  C   -0.307263
     3  C   -0.475454
     4  H    0.149760
     5  H    0.149415
     6  H    0.152178
     7  H    0.158474
     8  H    0.154992
     9  H    0.155168
    10  H    0.161029
    11  C   -0.298452
    12  C   -0.299628
    13  C   -0.475742
    14  H    0.149553
    15  H    0.149446
    16  H    0.151991
    17  H    0.151946
    18  H    0.155282
    19  H    0.155145
    20  H    0.160260
    21  C   -0.298228
    22  C   -0.299637
    23  C   -0.475701
    24  H    0.149525
    25  H    0.149552
    26  H    0.151911
    27  H    0.151961
    28  H    0.155199
    29  H    0.155141
    30  H    0.160248
    31  C   -0.298482
    32  C   -0.298920
    33  C   -0.483866
    34  H    0.149483
    35  H    0.149710
    36  H    0.151303
    37  H    0.152058
    38  H    0.155308
    39  H    0.154855
    40  H    0.167992
 Sum of Mulliken charges =  -0.00000

 Dipole moment (field-independent basis, Debye):
    X=              0.0168    Y=             -0.0055    Z=             -0.0057  Tot=              0.0186
 Quadrupole moment (field-independent basis, Debye-Ang):
   XX=            -85.1599   YY=            -86.4642   ZZ=            -83.1214
   XY=              0.7693   XZ=             -0.4612   YZ=             -0.0914

 Normal termination of Gaussian 16 at Wed May  5 23:16:54 2021.
