 Gaussian 16, Revision A.03,
 Gaussian 16:  EM64L-G16RevA.03 25-Dec-2016

 -------------
 #p 6-31g* mp2
 -------------

 ------------------------------------------------------
 Input file generated by CHIRIPA (05-May-2021 14:57:26)
 ------------------------------------------------------
 Symbolic Z-matrix:
 Charge =  0 Multiplicity = 1

                         Standard orientation:
 ---------------------------------------------------------------------
 Center     Atomic      Atomic             Coordinates (Angstroms)
 Number     Number       Type             X           Y           Z
 ---------------------------------------------------------------------
      1          6           0       -5.331648    1.035379   -0.189963
      2          6           0       -4.810985    0.855748    1.095791
      3          6           0       -3.620502    0.148192    1.287268
      4          6           0       -2.973890   -0.368497    0.165565
      5          6           0       -3.467388   -0.206333   -1.128055
      6          6           0       -4.659373    0.504701   -1.295833
      7          1           0       -6.257028    1.586376   -0.329502
      8          1           0       -5.330937    1.266766    1.956464
      9          1           0       -3.195139   -0.005702    2.271545
     10          1           0       -2.926470   -0.627789   -1.966626
     11          1           0       -5.061392    0.642650   -2.295531
     12          7           0       -1.712784   -1.119395    0.355729
     13          8           0       -1.162202   -1.564694   -0.648864
     14          8           0       -1.298790   -1.248433    1.505770
     15          6           0        3.286383   -2.274696   -0.220360
     16          6           0        2.402739   -1.581870   -1.054439
     17          6           0        2.336287   -0.185950   -1.015213
     18          6           0        3.171619    0.488309   -0.125897
     19          6           0        4.062446   -0.173499    0.717742
     20          6           0        4.111961   -1.569542    0.661513
     21          1           0        3.331426   -3.359127   -0.257436
     22          1           0        1.760401   -2.126884   -1.740301
     23          1           0        1.661402    0.375534   -1.649788
     24          1           0        4.690298    0.397379    1.391031
     25          1           0        4.799175   -2.104966    1.310437
     26          7           0        3.110235    1.966172   -0.075370
     27          8           0        3.856686    2.536908    0.716910
     28          8           0        2.316833    2.525802   -0.829006
 ---------------------------------------------------------------------

 SCF Done:  E(RHF) =  -868.339630713     A.U. after   16 cycles
 E2 =    -0.2599092872D+01 EUMP2 =    -0.87093872358425D+03

 The electronic state is 1-A.
 Alpha  occ. eigenvalues --  -20.61268 -20.61213 -20.59922 -20.59913 -15.86277
 Alpha  occ. eigenvalues --  -15.84959 -11.31414 -11.30014 -11.27980 -11.27938
 Alpha  occ. eigenvalues --  -11.27656 -11.26931 -11.26907 -11.26566 -11.26460
 Alpha  occ. eigenvalues --  -11.26192 -11.25574 -11.25359  -1.60299  -1.58999
 Alpha  occ. eigenvalues --   -1.39866  -1.38563  -1.19563  -1.18132  -1.09000
 Alpha  occ. eigenvalues --   -1.07594  -1.04937  -1.03475  -0.95877  -0.94490
 Alpha  occ. eigenvalues --   -0.86347  -0.84908  -0.82727  -0.81326  -0.77796
 Alpha  occ. eigenvalues --   -0.76414  -0.72521  -0.71602  -0.71193  -0.70678
 Alpha  occ. eigenvalues --   -0.70311  -0.69276  -0.65227  -0.64943  -0.63791
 Alpha  occ. eigenvalues --   -0.63487  -0.62294  -0.60846  -0.55448  -0.54028
 Alpha  occ. eigenvalues --   -0.53269  -0.53032  -0.51831  -0.51584  -0.49265
 Alpha  occ. eigenvalues --   -0.49223  -0.47960  -0.47916  -0.45324  -0.44038
 Alpha  occ. eigenvalues --   -0.37526  -0.36524  -0.36096  -0.35002
 Alpha virt. eigenvalues --    0.04714   0.06103   0.11133   0.12610   0.16254
 Alpha virt. eigenvalues --    0.17694   0.21261   0.22643   0.27183   0.28024
 Alpha virt. eigenvalues --    0.28652   0.29428   0.30866   0.32146   0.32362

 Mulliken charges:
               1
     1  C   -0.169666
     2  C   -0.218086
     3  C   -0.169507
     4  C    0.158937
     5  C   -0.170016
     6  C   -0.217901
     7  H    0.227026
     8  H    0.224951
     9  H    0.276412
    10  H    0.272531
    11  H    0.224229
    12  N    0.490533
    13  O   -0.471467
    14  O   -0.456143
    15  C   -0.170714
    16  C   -0.202080
    17  C   -0.169727
    18  C    0.157960
    19  C   -0.172853
    20  C   -0.217568
    21  H    0.222936
    22  H    0.229971
    23  H    0.271138
    24  H    0.270880
    25  H    0.218918
    26  N    0.488330
    27  O   -0.463906
    28  O   -0.465115
 Sum of Mulliken charges =  -0.00000

 Dipole moment (field-independent basis, Debye):
    X=             -4.6243    Y=             -2.6981    Z=             -0.8284  Tot=              5.4175
 Quadrupole moment (field-independent basis, Debye-Ang):
   XX=            -76.0030   YY=           -113.3854   ZZ=            -97.9539
   XY=            -23.6812   XZ=              2.9350   YZ=              2.2102

 Normal termination of Gaussian 16 at Thu May  6 22:57:34 2021.
