 Gaussian 16, Revision A.03,
 Gaussian 16:  EM64L-G16RevA.03 25-Dec-2016

 -------------
 #p 6-31g* mp2
 -------------

 ------------------------------------------------------
 Input file generated by CHIRIPA (05-May-2021 14:55:20)
 ------------------------------------------------------
 Symbolic Z-matrix:
 Charge =  0 Multiplicity = 1

                         Standard orientation:
 ---------------------------------------------------------------------
 Center     Atomic      Atomic             Coordinates (Angstroms)
 Number     Number       Type             X           Y           Z
 ---------------------------------------------------------------------
      1          6           0        4.656696    0.926356   -1.271494
      2          6           0        3.674633    1.616684   -0.553497
      3          6           0        2.716037    0.920043    0.188347
      4          6           0        2.769285   -0.472958    0.189974
      5          6           0        3.735202   -1.189312   -0.515100
      6          6           0        4.683798   -0.471974   -1.250042
      7          1           0        5.397473    1.475562   -1.845095
      8          1           0        3.651158    2.702628   -0.568330
      9          1           0        1.944695    1.429270    0.753270
     10          1           0        3.733026   -2.272020   -0.481070
     11          1           0        5.445322   -1.010734   -1.806697
     12          7           0        1.759755   -1.221416    0.971677
     13          8           0        1.828260   -2.448496    0.956864
     14          8           0        0.919095   -0.566806    1.584388
     15          6           0       -4.062719   -0.217541   -0.297573
     16          6           0       -5.560020   -0.129162   -0.594674
     17          6           0       -6.155886   -1.467555   -1.032212
     18          1           0       -3.538424   -0.578786   -1.192872
     19          1           0       -3.895366   -0.968461    0.486969
     20          1           0       -5.724633    0.622361   -1.377446
     21          1           0       -6.080789    0.232096    0.301377
     22          1           0       -6.020899   -2.223007   -0.251396
     23          1           0       -5.662719   -1.830525   -1.939758
     24          1           0       -7.227103   -1.381519   -1.239466
     25          6           0       -3.452588    1.112524    0.141055
     26          6           0       -1.955289    1.024145    0.438156
     27          6           0       -1.359422    2.362539    0.875693
     28          1           0       -3.619943    1.863445   -0.643487
     29          1           0       -3.976885    1.473769    1.036354
     30          1           0       -1.434520    0.662887   -0.457895
     31          1           0       -1.790676    0.272623    1.220928
     32          1           0       -1.852589    2.725509    1.783240
     33          1           0       -1.494409    3.117990    0.094878
     34          1           0       -0.288206    2.276503    1.082948
 ---------------------------------------------------------------------

 SCF Done:  E(RHF) =  -669.535466574     A.U. after   15 cycles
 E2 =    -0.2092328166D+01 EUMP2 =    -0.67162779473948D+03

 The electronic state is 1-A.
 Alpha  occ. eigenvalues --  -20.60900 -20.60883 -15.85920 -11.31249 -11.27813
 Alpha  occ. eigenvalues --  -11.27804 -11.27552 -11.26824 -11.26812 -11.21083
 Alpha  occ. eigenvalues --  -11.20740 -11.20684 -11.20638 -11.20602 -11.20584
 Alpha  occ. eigenvalues --   -1.59952  -1.39509  -1.19419  -1.08823  -1.07762
 Alpha  occ. eigenvalues --   -1.04817  -1.02900  -0.95678  -0.95399  -0.86445
 Alpha  occ. eigenvalues --   -0.86211  -0.82503  -0.78949  -0.77633  -0.77465
 Alpha  occ. eigenvalues --   -0.72156  -0.71261  -0.70536  -0.65077  -0.64833
 Alpha  occ. eigenvalues --   -0.64392  -0.62200  -0.60294  -0.58760  -0.56990
 Alpha  occ. eigenvalues --   -0.55321  -0.54711  -0.53148  -0.52958  -0.52092
 Alpha  occ. eigenvalues --   -0.51815  -0.49359  -0.48917  -0.48898  -0.47281
 Alpha  occ. eigenvalues --   -0.45964  -0.45252  -0.45030  -0.44679  -0.43166
 Alpha  occ. eigenvalues --   -0.37397  -0.36415
 Alpha virt. eigenvalues --    0.04954   0.11213   0.16443   0.20685   0.23429
 Alpha virt. eigenvalues --    0.24216   0.26544   0.27314   0.27701   0.28299
 Alpha virt. eigenvalues --    0.29251   0.30439   0.31520   0.31968   0.32506

 Mulliken charges:
               1
     1  C   -0.170360
     2  C   -0.222061
     3  C   -0.174539
     4  C    0.155244
     5  C   -0.169896
     6  C   -0.218963
     7  H    0.225885
     8  H    0.224385
     9  H    0.287127
    10  H    0.275741
    11  H    0.223644
    12  N    0.489214
    13  O   -0.459430
    14  O   -0.462337
    15  C   -0.298016
    16  C   -0.299096
    17  C   -0.475377
    18  H    0.148365
    19  H    0.154129
    20  H    0.149576
    21  H    0.151167
    22  H    0.156411
    23  H    0.154351
    24  H    0.158204
    25  C   -0.299357
    26  C   -0.298209
    27  C   -0.478588
    28  H    0.144277
    29  H    0.147989
    30  H    0.145252
    31  H    0.175707
    32  H    0.155802
    33  H    0.148265
    34  H    0.155498
 Sum of Mulliken charges =  -0.00000

 Dipole moment (field-independent basis, Debye):
    X=              3.6930    Y=              2.4642    Z=             -2.6362  Tot=              5.1633
 Quadrupole moment (field-independent basis, Debye-Ang):
   XX=            -75.5694   YY=            -94.8981   ZZ=            -95.2481
   XY=              3.4939   XZ=             -8.6832   YZ=              2.6611

 Normal termination of Gaussian 16 at Thu May  6 17:27:14 2021.
