 Gaussian 16, Revision A.03,
 Gaussian 16:  EM64L-G16RevA.03 25-Dec-2016

 -------------
 #p 6-31g* mp2
 -------------

 ------------------------------------------------------
 Input file generated by CHIRIPA (05-May-2021 14:55:22)
 ------------------------------------------------------
 Symbolic Z-matrix:
 Charge =  0 Multiplicity = 1

                         Standard orientation:
 ---------------------------------------------------------------------
 Center     Atomic      Atomic             Coordinates (Angstroms)
 Number     Number       Type             X           Y           Z
 ---------------------------------------------------------------------
      1          6           0       -4.745943    0.693634    0.338930
      2          6           0       -4.554964   -0.671892    0.574268
      3          6           0       -3.315867   -1.269015    0.324004
      4          6           0       -2.284989   -0.467202   -0.163516
      5          6           0       -2.444120    0.895941   -0.408075
      6          6           0       -3.691770    1.471821   -0.150628
      7          1           0       -5.711825    1.149243    0.536131
      8          1           0       -5.371852   -1.278692    0.954443
      9          1           0       -3.140535   -2.323836    0.497296
     10          1           0       -1.610879    1.475015   -0.787284
     11          1           0       -3.837206    2.532551   -0.334327
     12          7           0       -0.968685   -1.088105   -0.432262
     13          8           0       -0.076459   -0.359914   -0.861571
     14          8           0       -0.854117   -2.291203   -0.208506
     15          6           0        2.881632    1.064116    0.504723
     16          6           0        2.739800    2.293339   -0.393542
     17          6           0        2.096272    3.479592    0.325115
     18          1           0        1.889894    0.774334    0.878123
     19          1           0        3.482000    1.329805    1.385837
     20          1           0        2.141041    2.025043   -1.273383
     21          1           0        3.731967    2.580113   -0.765002
     22          1           0        2.694913    3.775245    1.192767
     23          1           0        1.094948    3.217021    0.681496
     24          1           0        2.004549    4.347444   -0.335400
     25          6           0        3.523312   -0.130049   -0.199511
     26          6           0        3.665144   -1.359272    0.698754
     27          6           0        4.308673   -2.545525   -0.019903
     28          1           0        2.922944   -0.395738   -1.080625
     29          1           0        4.515049    0.159733   -0.572912
     30          1           0        2.672977   -1.646046    1.070213
     31          1           0        4.263903   -1.090976    1.578594
     32          1           0        5.309996   -2.282954   -0.376284
     33          1           0        3.710031   -2.841178   -0.887555
     34          1           0        4.400395   -3.413376    0.640613
 ---------------------------------------------------------------------

 SCF Done:  E(RHF) =  -669.536632906     A.U. after   15 cycles
 E2 =    -0.2092426303D+01 EUMP2 =    -0.67162905920940D+03

 The electronic state is 1-A.
 Alpha  occ. eigenvalues --  -20.61155 -20.61144 -15.86158 -11.31402 -11.27953
 Alpha  occ. eigenvalues --  -11.27950 -11.27676 -11.26943 -11.26933 -11.20593
 Alpha  occ. eigenvalues --  -11.20504 -11.20135 -11.20021 -11.19773 -11.19755
 Alpha  occ. eigenvalues --   -1.60198  -1.39757  -1.19561  -1.08982  -1.07083
 Alpha  occ. eigenvalues --   -1.04945  -1.02362  -0.95838  -0.94825  -0.86349
 Alpha  occ. eigenvalues --   -0.85860  -0.82674  -0.78439  -0.77737  -0.76872
 Alpha  occ. eigenvalues --   -0.72402  -0.71506  -0.70669  -0.65229  -0.64948
 Alpha  occ. eigenvalues --   -0.63631  -0.62293  -0.59746  -0.58244  -0.56444
 Alpha  occ. eigenvalues --   -0.55452  -0.54110  -0.53278  -0.53031  -0.51602
 Alpha  occ. eigenvalues --   -0.51284  -0.49206  -0.49126  -0.48708  -0.46777
 Alpha  occ. eigenvalues --   -0.45545  -0.45135  -0.44394  -0.44187  -0.42552
 Alpha  occ. eigenvalues --   -0.37535  -0.36542
 Alpha virt. eigenvalues --    0.04754   0.11106   0.16245   0.20862   0.23633
 Alpha virt. eigenvalues --    0.25169   0.27064   0.27507   0.28722   0.28839
 Alpha virt. eigenvalues --    0.29107   0.30884   0.31593   0.32524   0.33075

 Mulliken charges:
               1
     1  C   -0.170289
     2  C   -0.218588
     3  C   -0.170424
     4  C    0.157690
     5  C   -0.171668
     6  C   -0.218552
     7  H    0.226497
     8  H    0.224229
     9  H    0.276044
    10  H    0.276739
    11  H    0.224604
    12  N    0.490905
    13  O   -0.462390
    14  O   -0.458140
    15  C   -0.294911
    16  C   -0.300642
    17  C   -0.474733
    18  H    0.156231
    19  H    0.140597
    20  H    0.158680
    21  H    0.147846
    22  H    0.153859
    23  H    0.148241
    24  H    0.154964
    25  C   -0.299864
    26  C   -0.299538
    27  C   -0.475460
    28  H    0.168264
    29  H    0.140080
    30  H    0.160357
    31  H    0.143549
    32  H    0.149232
    33  H    0.160920
    34  H    0.155669
 Sum of Mulliken charges =  -0.00000

 Dipole moment (field-independent basis, Debye):
    X=             -5.0363    Y=              1.9845    Z=              0.8140  Tot=              5.4740
 Quadrupole moment (field-independent basis, Debye-Ang):
   XX=            -74.0319   YY=            -94.5558   ZZ=            -95.6125
   XY=             -0.6372   XZ=             -2.1219   YZ=             -2.6418

 Normal termination of Gaussian 16 at Thu May  6 01:29:23 2021.
