 Gaussian 16, Revision A.03,
 Gaussian 16:  EM64L-G16RevA.03 25-Dec-2016

 -------------
 #p 6-31g* mp2
 -------------

 ------------------------------------------------------
 Input file generated by CHIRIPA (05-May-2021 14:55:24)
 ------------------------------------------------------
 Symbolic Z-matrix:
 Charge =  0 Multiplicity = 1

                         Standard orientation:
 ---------------------------------------------------------------------
 Center     Atomic      Atomic             Coordinates (Angstroms)
 Number     Number       Type             X           Y           Z
 ---------------------------------------------------------------------
      1          6           0       -5.924345    0.792481    0.189626
      2          6           0       -4.812925    1.560017   -0.173908
      3          6           0       -3.557192    0.964219   -0.324594
      4          6           0       -3.448440   -0.407762   -0.102944
      5          6           0       -4.536928   -1.199359    0.260180
      6          6           0       -5.783049   -0.582333    0.405129
      7          1           0       -6.896096    1.263556    0.304454
      8          1           0       -4.919696    2.627921   -0.341912
      9          1           0       -2.680137    1.534699   -0.605211
     10          1           0       -4.399282   -2.261735    0.420893
     11          1           0       -6.644449   -1.180897    0.687539
     12          7           0       -2.124140   -1.049743   -0.259433
     13          8           0       -2.054680   -2.260288   -0.058449
     14          8           0       -1.180688   -0.330227   -0.580108
     15          6           0        5.384910    0.290733   -0.211152
     16          6           0        6.165989   -0.874447    0.397338
     17          6           0        7.547448   -1.053338   -0.233029
     18          1           0        5.277830    0.127233   -1.292237
     19          1           0        5.966339    1.215332   -0.090938
     20          1           0        5.582639   -1.796345    0.277244
     21          1           0        6.271055   -0.708250    1.477132
     22          1           0        8.151196   -0.149681   -0.100762
     23          1           0        7.458868   -1.243960   -1.307467
     24          1           0        8.088481   -1.891673    0.216792
     25          6           0        4.001844    0.482276    0.408663
     26          6           0        3.220766    1.647455   -0.199825
     27          6           0        1.839306    1.826346    0.430540
     28          1           0        3.420415   -0.442323    0.288450
     29          1           0        4.108923    0.645775    1.489749
     30          1           0        3.115699    1.481257   -1.279620
     31          1           0        3.804116    2.569353   -0.079732
     32          1           0        1.927886    2.016968    1.504979
     33          1           0        1.235558    0.922689    0.298273
     34          1           0        1.298274    2.664681   -0.019279
 ---------------------------------------------------------------------

 SCF Done:  E(RHF) =  -669.536200996     A.U. after   15 cycles
 E2 =    -0.2090642643D+01 EUMP2 =    -0.67162684363868D+03

 The electronic state is 1-A.
 Alpha  occ. eigenvalues --  -20.60924 -20.60918 -15.85960 -11.31269 -11.27834
 Alpha  occ. eigenvalues --  -11.27825 -11.27572 -11.26840 -11.26829 -11.20954
 Alpha  occ. eigenvalues --  -11.20655 -11.20647 -11.20532 -11.20463 -11.19857
 Alpha  occ. eigenvalues --   -1.59987  -1.39543  -1.19438  -1.08845  -1.07615
 Alpha  occ. eigenvalues --   -1.04833  -1.02699  -0.95691  -0.95140  -0.86234
 Alpha  occ. eigenvalues --   -0.86159  -0.82523  -0.78782  -0.77577  -0.77413
 Alpha  occ. eigenvalues --   -0.72189  -0.71300  -0.70547  -0.65095  -0.64836
 Alpha  occ. eigenvalues --   -0.64239  -0.62179  -0.60080  -0.58546  -0.56760
 Alpha  occ. eigenvalues --   -0.55340  -0.54402  -0.53165  -0.52925  -0.51861
 Alpha  occ. eigenvalues --   -0.51564  -0.49129  -0.48942  -0.48864  -0.47092
 Alpha  occ. eigenvalues --   -0.45815  -0.45024  -0.44943  -0.44775  -0.42971
 Alpha  occ. eigenvalues --   -0.37418  -0.36433
 Alpha virt. eigenvalues --    0.04934   0.11222   0.16415   0.21322   0.23676
 Alpha virt. eigenvalues --    0.25129   0.27224   0.27469   0.27995   0.28326
 Alpha virt. eigenvalues --    0.29037   0.30909   0.32066   0.32414   0.32699

 Mulliken charges:
               1
     1  C   -0.170576
     2  C   -0.218602
     3  C   -0.170616
     4  C    0.157766
     5  C   -0.170667
     6  C   -0.218632
     7  H    0.225907
     8  H    0.223849
     9  H    0.276459
    10  H    0.275732
    11  H    0.223696
    12  N    0.491882
    13  O   -0.459357
    14  O   -0.463588
    15  C   -0.297797
    16  C   -0.299458
    17  C   -0.475305
    18  H    0.149535
    19  H    0.146756
    20  H    0.153741
    21  H    0.150564
    22  H    0.153601
    23  H    0.154842
    24  H    0.158757
    25  C   -0.299404
    26  C   -0.297933
    27  C   -0.485519
    28  H    0.156737
    29  H    0.146759
    30  H    0.152310
    31  H    0.146031
    32  H    0.147903
    33  H    0.183610
    34  H    0.151014
 Sum of Mulliken charges =  -0.00000

 Dipole moment (field-independent basis, Debye):
    X=             -4.9440    Y=              2.1177    Z=              0.5165  Tot=              5.4033
 Quadrupole moment (field-independent basis, Debye-Ang):
   XX=            -64.0811   YY=            -92.9254   ZZ=            -95.2100
   XY=             -3.8881   XZ=             -1.5196   YZ=             -1.4365

 Normal termination of Gaussian 16 at Wed May  5 20:46:41 2021.
