 Gaussian 16, Revision A.03,
 Gaussian 16:  EM64L-G16RevA.03 25-Dec-2016

 -------------
 #p 6-31g* mp2
 -------------

 ------------------------------------------------------
 Input file generated by CHIRIPA (05-May-2021 14:55:19)
 ------------------------------------------------------
 Symbolic Z-matrix:
 Charge =  0 Multiplicity = 1

                         Standard orientation:
 ---------------------------------------------------------------------
 Center     Atomic      Atomic             Coordinates (Angstroms)
 Number     Number       Type             X           Y           Z
 ---------------------------------------------------------------------
      1          6           0       -3.726751    2.074966    0.596944
      2          6           0       -2.379824    1.862333    0.908548
      3          6           0       -1.755465    0.656920    0.574329
      4          6           0       -2.511371   -0.318561   -0.074003
      5          6           0       -3.854981   -0.136637   -0.397894
      6          6           0       -4.458740    1.076563   -0.054135
      7          1           0       -4.203766    3.014385    0.860278
      8          1           0       -1.808891    2.635926    1.414152
      9          1           0       -0.714162    0.465900    0.803711
     10          1           0       -4.398185   -0.926556   -0.902250
     11          1           0       -5.504932    1.238929   -0.297374
     12          7           0       -1.861294   -1.598799   -0.432875
     13          8           0       -2.549140   -2.442358   -1.003765
     14          8           0       -0.676228   -1.734450   -0.136475
     15          6           0        3.465536   -0.597601   -0.153713
     16          6           0        2.959531   -1.558677    0.922519
     17          6           0        3.194414   -3.025994    0.562510
     18          1           0        2.967004   -0.827484   -1.105325
     19          1           0        4.538960   -0.769566   -0.313667
     20          1           0        1.887679   -1.384002    1.081380
     21          1           0        3.459185   -1.326354    1.871723
     22          1           0        4.262493   -3.222432    0.423876
     23          1           0        2.682058   -3.280408   -0.370959
     24          1           0        2.825158   -3.695566    1.345571
     25          6           0        3.237853    0.872959    0.191746
     26          6           0        3.743858    1.834036   -0.884487
     27          6           0        3.508976    3.301352   -0.524479
     28          1           0        2.164429    1.044925    0.351699
     29          1           0        3.736385    1.102842    1.143356
     30          1           0        3.244204    1.601713   -1.833691
     31          1           0        4.815710    1.659362   -1.043348
     32          1           0        4.021332    3.555766    0.408990
     33          1           0        2.440896    3.497791   -0.385844
     34          1           0        3.878231    3.970924   -1.307540
 ---------------------------------------------------------------------

 SCF Done:  E(RHF) =  -669.536119884     A.U. after   15 cycles
 E2 =    -0.2091722961D+01 EUMP2 =    -0.67162784284461D+03

 The electronic state is 1-A.
 Alpha  occ. eigenvalues --  -20.60948 -20.60936 -15.85987 -11.31298 -11.27864
 Alpha  occ. eigenvalues --  -11.27857 -11.27593 -11.26866 -11.26855 -11.21461
 Alpha  occ. eigenvalues --  -11.21180 -11.21122 -11.20735 -11.20614 -11.19998
 Alpha  occ. eigenvalues --   -1.60010  -1.39567  -1.19466  -1.08870  -1.07967
 Alpha  occ. eigenvalues --   -1.04861  -1.02988  -0.95716  -0.95477  -0.86495
 Alpha  occ. eigenvalues --   -0.86262  -0.82552  -0.79131  -0.77774  -0.77555
 Alpha  occ. eigenvalues --   -0.72218  -0.71325  -0.70575  -0.65130  -0.64872
 Alpha  occ. eigenvalues --   -0.64571  -0.62209  -0.60347  -0.58908  -0.57070
 Alpha  occ. eigenvalues --   -0.55365  -0.54764  -0.53193  -0.52953  -0.52170
 Alpha  occ. eigenvalues --   -0.51902  -0.49433  -0.48964  -0.48956  -0.47429
 Alpha  occ. eigenvalues --   -0.46171  -0.45269  -0.45121  -0.44958  -0.43271
 Alpha  occ. eigenvalues --   -0.37443  -0.36462
 Alpha virt. eigenvalues --    0.04920   0.11184   0.16426   0.19789   0.22924
 Alpha virt. eigenvalues --    0.24568   0.25110   0.27515   0.27674   0.28352
 Alpha virt. eigenvalues --    0.29543   0.31061   0.31738   0.32029   0.32726

 Mulliken charges:
               1
     1  C   -0.170376
     2  C   -0.219891
     3  C   -0.174373
     4  C    0.157393
     5  C   -0.170463
     6  C   -0.218705
     7  H    0.226127
     8  H    0.224418
     9  H    0.280783
    10  H    0.275807
    11  H    0.223865
    12  N    0.494069
    13  O   -0.459010
    14  O   -0.467597
    15  C   -0.297931
    16  C   -0.306205
    17  C   -0.474482
    18  H    0.155682
    19  H    0.146764
    20  H    0.169301
    21  H    0.143816
    22  H    0.148159
    23  H    0.165077
    24  H    0.159437
    25  C   -0.297495
    26  C   -0.299492
    27  C   -0.474573
    28  H    0.141133
    29  H    0.147912
    30  H    0.153514
    31  H    0.153106
    32  H    0.154547
    33  H    0.149321
    34  H    0.160364
 Sum of Mulliken charges =  -0.00000

 Dipole moment (field-independent basis, Debye):
    X=             -2.4763    Y=              4.3786    Z=              1.1797  Tot=              5.1668
 Quadrupole moment (field-independent basis, Debye-Ang):
   XX=            -79.3025   YY=            -98.9697   ZZ=            -94.7894
   XY=             -9.1687   XZ=             -0.9594   YZ=              0.0877

 Normal termination of Gaussian 16 at Wed May  5 18:52:38 2021.
