 Gaussian 16, Revision A.03,
 Gaussian 16:  EM64L-G16RevA.03 25-Dec-2016

 -------------
 #p 6-31g* mp2
 -------------

 ------------------------------------------------------
 Input file generated by CHIRIPA (05-May-2021 14:53:14)
 ------------------------------------------------------
 Symbolic Z-matrix:
 Charge =  0 Multiplicity = 1

                         Standard orientation:
 ---------------------------------------------------------------------
 Center     Atomic      Atomic             Coordinates (Angstroms)
 Number     Number       Type             X           Y           Z
 ---------------------------------------------------------------------
      1          6           0       -3.975723   -0.588844   -0.485375
      2          6           0       -3.011255   -1.762852   -0.313641
      3          6           0       -3.502776   -3.037117   -1.000990
      4          1           0       -4.958952   -0.868399   -0.082813
      5          1           0       -4.120260   -0.395894   -1.557417
      6          1           0       -2.867502   -1.952641    0.757775
      7          1           0       -2.030156   -1.480401   -0.716485
      8          1           0       -3.628591   -2.871071   -2.075793
      9          1           0       -4.470695   -3.345994   -0.593157
     10          1           0       -2.798230   -3.863639   -0.865578
     11          6           0       -3.498161    0.692206    0.196220
     12          6           0       -4.462629    1.866214    0.024486
     13          6           0       -3.971108    3.140479    0.711835
     14          1           0       -3.353624    0.499256    1.268262
     15          1           0       -2.514932    0.971761   -0.206342
     16          1           0       -5.443728    1.583764    0.427330
     17          1           0       -4.606382    2.056003   -1.046930
     18          1           0       -3.003189    3.449356    0.304002
     19          1           0       -3.845293    2.974434    1.786638
     20          1           0       -4.675654    3.967001    0.576423
     21          6           0        4.961455    0.940048   -0.998379
     22          6           0        5.095917    0.183235    0.170241
     23          6           0        3.971439   -0.364808    0.794537
     24          6           0        2.722075   -0.135159    0.220391
     25          6           0        2.555579    0.614412   -0.943101
     26          6           0        3.693949    1.152847   -1.550347
     27          1           0        5.840372    1.362049   -1.476725
     28          1           0        6.079031    0.016342    0.601145
     29          1           0        4.046832   -0.954644    1.699981
     30          1           0        1.562420    0.763595   -1.349055
     31          1           0        3.586516    1.740185   -2.457836
     32          7           0        1.524288   -0.710262    0.872280
     33          8           0        0.434692   -0.493434    0.346538
     34          8           0        1.697737   -1.366965    1.896631
 ---------------------------------------------------------------------

 SCF Done:  E(RHF) =  -669.535839431     A.U. after   15 cycles
 E2 =    -0.2091244258D+01 EUMP2 =    -0.67162708368920D+03

 The electronic state is 1-A.
 Alpha  occ. eigenvalues --  -20.60937 -20.60930 -15.85975 -11.31305 -11.27875
 Alpha  occ. eigenvalues --  -11.27865 -11.27607 -11.26880 -11.26869 -11.20793
 Alpha  occ. eigenvalues --  -11.20429 -11.20270 -11.20203 -11.20044 -11.19951
 Alpha  occ. eigenvalues --   -1.59998  -1.39555  -1.19475  -1.08876  -1.07317
 Alpha  occ. eigenvalues --   -1.04873  -1.02480  -0.95717  -0.94982  -0.86273
 Alpha  occ. eigenvalues --   -0.86006  -0.82555  -0.78526  -0.77616  -0.77042
 Alpha  occ. eigenvalues --   -0.72192  -0.71313  -0.70584  -0.65132  -0.64876
 Alpha  occ. eigenvalues --   -0.63961  -0.62222  -0.59890  -0.58351  -0.56557
 Alpha  occ. eigenvalues --   -0.55375  -0.54296  -0.53203  -0.52966  -0.51708
 Alpha  occ. eigenvalues --   -0.51395  -0.49001  -0.48953  -0.48923  -0.46839
 Alpha  occ. eigenvalues --   -0.45579  -0.44942  -0.44597  -0.44475  -0.42722
 Alpha  occ. eigenvalues --   -0.37452  -0.36475
 Alpha virt. eigenvalues --    0.04912   0.11180   0.16396   0.21253   0.23839
 Alpha virt. eigenvalues --    0.25278   0.27038   0.27469   0.28088   0.28756
 Alpha virt. eigenvalues --    0.29071   0.30970   0.32296   0.32450   0.32853

 Mulliken charges:
               1
     1  C   -0.298754
     2  C   -0.302125
     3  C   -0.475764
     4  H    0.144766
     5  H    0.143008
     6  H    0.156642
     7  H    0.169699
     8  H    0.149114
     9  H    0.150602
    10  H    0.159353
    11  C   -0.297214
    12  C   -0.299121
    13  C   -0.474204
    14  H    0.152654
    15  H    0.155638
    16  H    0.149744
    17  H    0.147817
    18  H    0.152605
    19  H    0.155852
    20  H    0.156487
    21  C   -0.170637
    22  C   -0.218524
    23  C   -0.170620
    24  C    0.157721
    25  C   -0.170558
    26  C   -0.218450
    27  H    0.226043
    28  H    0.223871
    29  H    0.275917
    30  H    0.274807
    31  H    0.223802
    32  N    0.493190
    33  O   -0.464373
    34  O   -0.458988
 Sum of Mulliken charges =  -0.00000

 Dipole moment (field-independent basis, Debye):
    X=              4.5752    Y=              1.9918    Z=             -2.1874  Tot=              5.4483
 Quadrupole moment (field-independent basis, Debye-Ang):
   XX=            -71.6796   YY=            -96.8235   ZZ=            -93.1945
   XY=              3.6751   XZ=             -4.0123   YZ=             -1.8966

 Normal termination of Gaussian 16 at Wed May  5 23:29:08 2021.
