 Gaussian 16, Revision A.03,
 Gaussian 16:  EM64L-G16RevA.03 25-Dec-2016

 -------------
 #p 6-31g* mp2
 -------------

 ------------------------------------------------------
 Input file generated by CHIRIPA (05-May-2021 14:53:15)
 ------------------------------------------------------
 Symbolic Z-matrix:
 Charge =  0 Multiplicity = 1

                         Standard orientation:
 ---------------------------------------------------------------------
 Center     Atomic      Atomic             Coordinates (Angstroms)
 Number     Number       Type             X           Y           Z
 ---------------------------------------------------------------------
      1          6           0       -3.509531   -0.069417   -0.566603
      2          6           0       -4.104339   -1.263349    0.180869
      3          6           0       -4.524389   -2.397104   -0.755054
      4          1           0       -4.245491    0.305036   -1.291236
      5          1           0       -2.640787   -0.406186   -1.149069
      6          1           0       -4.970869   -0.924160    0.762842
      7          1           0       -3.366948   -1.634884    0.903941
      8          1           0       -3.665272   -2.763292   -1.326389
      9          1           0       -5.278306   -2.048529   -1.468291
     10          1           0       -4.946890   -3.240345   -0.199808
     11          6           0       -3.084813    1.072122    0.355477
     12          6           0       -2.490006    2.266054   -0.391995
     13          6           0       -2.069955    3.399809    0.543928
     14          1           0       -3.953557    1.408891    0.937943
     15          1           0       -2.348853    0.697669    1.080110
     16          1           0       -3.227396    2.637589   -1.115067
     17          1           0       -1.623475    1.926865   -0.973967
     18          1           0       -1.316039    3.051234    1.257165
     19          1           0       -2.929073    3.765996    1.115263
     20          1           0       -1.647455    4.243050   -0.011317
     21          6           0        0.394431   -1.186018    1.070436
     22          6           0        0.498239   -0.959585   -0.305962
     23          6           0        1.701999   -0.519394   -0.864302
     24          6           0        2.786814   -0.314888   -0.013042
     25          6           0        2.714776   -0.531623    1.362141
     26          6           0        1.501080   -0.971693    1.898634
     27          1           0       -0.544539   -1.527922    1.495682
     28          1           0       -0.359556   -1.125197   -0.951566
     29          1           0        1.810061   -0.336272   -1.926472
     30          1           0        3.587185   -0.357729    1.980270
     31          1           0        1.423364   -1.146724    2.967919
     32          7           0        4.066440    0.151058   -0.592567
     33          8           0        5.007545    0.323797    0.178873
     34          8           0        4.104077    0.334705   -1.807267
 ---------------------------------------------------------------------

 SCF Done:  E(RHF) =  -669.535358279     A.U. after   15 cycles
 E2 =    -0.2092951224D+01 EUMP2 =    -0.67162830950308D+03

 The electronic state is 1-A.
 Alpha  occ. eigenvalues --  -20.60797 -20.60792 -15.85851 -11.31239 -11.27809
 Alpha  occ. eigenvalues --  -11.27806 -11.27556 -11.26827 -11.26815 -11.22697
 Alpha  occ. eigenvalues --  -11.22433 -11.22227 -11.22167 -11.22003 -11.21501
 Alpha  occ. eigenvalues --   -1.59872  -1.39425  -1.19415  -1.09336  -1.08800
 Alpha  occ. eigenvalues --   -1.04819  -1.04321  -0.96763  -0.95635  -0.87773
 Alpha  occ. eigenvalues --   -0.86218  -0.82470  -0.80412  -0.79132  -0.77511
 Alpha  occ. eigenvalues --   -0.72069  -0.71195  -0.70533  -0.66107  -0.65060
 Alpha  occ. eigenvalues --   -0.64725  -0.62163  -0.61718  -0.60139  -0.58369
 Alpha  occ. eigenvalues --   -0.56059  -0.55332  -0.53425  -0.53196  -0.53128
 Alpha  occ. eigenvalues --   -0.52905  -0.50707  -0.48837  -0.48822  -0.48708
 Alpha  occ. eigenvalues --   -0.47473  -0.46645  -0.46566  -0.44825  -0.44599
 Alpha  occ. eigenvalues --   -0.37379  -0.36413
 Alpha virt. eigenvalues --    0.04994   0.11138   0.16376   0.18004   0.23198
 Alpha virt. eigenvalues --    0.23642   0.23796   0.25230   0.27120   0.28615
 Alpha virt. eigenvalues --    0.29737   0.30227   0.31058   0.31372   0.31782

 Mulliken charges:
               1
     1  C   -0.302188
     2  C   -0.301130
     3  C   -0.475441
     4  H    0.155815
     5  H    0.142177
     6  H    0.157373
     7  H    0.143105
     8  H    0.152090
     9  H    0.159501
    10  H    0.163232
    11  C   -0.299858
    12  C   -0.299867
    13  C   -0.476495
    14  H    0.152571
    15  H    0.146138
    16  H    0.153652
    17  H    0.151716
    18  H    0.156612
    19  H    0.155390
    20  H    0.163792
    21  C   -0.175137
    22  C   -0.222247
    23  C   -0.172406
    24  C    0.158929
    25  C   -0.170618
    26  C   -0.219585
    27  H    0.229317
    28  H    0.229934
    29  H    0.276201
    30  H    0.275865
    31  H    0.224006
    32  N    0.488004
    33  O   -0.460252
    34  O   -0.460194
 Sum of Mulliken charges =  -0.00000

 Dipole moment (field-independent basis, Debye):
    X=             -4.6325    Y=             -1.5531    Z=              2.0345  Tot=              5.2926
 Quadrupole moment (field-independent basis, Debye-Ang):
   XX=           -118.0028   YY=            -94.9033   ZZ=            -91.0484
   XY=             -3.9559   XZ=              7.9818   YZ=             -1.1926

 Normal termination of Gaussian 16 at Thu May  6 10:34:48 2021.
