 Gaussian 16, Revision A.03,
 Gaussian 16:  EM64L-G16RevA.03 25-Dec-2016

 -------------
 #p 6-31g* mp2
 -------------

 ------------------------------------------------------
 Input file generated by CHIRIPA (05-May-2021 14:57:26)
 ------------------------------------------------------
 Symbolic Z-matrix:
 Charge =  0 Multiplicity = 1

                         Standard orientation:
 ---------------------------------------------------------------------
 Center     Atomic      Atomic             Coordinates (Angstroms)
 Number     Number       Type             X           Y           Z
 ---------------------------------------------------------------------
      1          6           0       -6.388700   -0.787743    0.388714
      2          6           0       -6.131199    0.223930   -0.542271
      3          6           0       -4.822981    0.658839   -0.774581
      4          6           0       -3.791567    0.057406   -0.055031
      5          6           0       -4.016012   -0.952704    0.879095
      6          6           0       -5.332148   -1.371801    1.095180
      7          1           0       -7.408031   -1.119449    0.562876
      8          1           0       -6.949765    0.679323   -1.092372
      9          1           0       -4.595299    1.440140   -1.489528
     10          1           0       -3.179310   -1.387638    1.412180
     11          1           0       -5.529158   -2.157679    1.818802
     12          7           0       -2.402424    0.509455   -0.292380
     13          8           0       -1.511235   -0.036471    0.354447
     14          8           0       -2.231106    1.401137   -1.120746
     15          6           0        3.046792    2.297266    0.483479
     16          6           0        2.241408    1.289702   -0.057530
     17          6           0        2.770275    0.022579   -0.320677
     18          6           0        4.114650   -0.203341   -0.029289
     19          6           0        4.942656    0.779923    0.510051
     20          6           0        4.392473    2.039616    0.765047
     21          1           0        2.627677    3.278712    0.684733
     22          1           0        1.195998    1.486950   -0.277202
     23          1           0        2.169345   -0.775618   -0.739226
     24          1           0        5.981226    0.553296    0.718452
     25          1           0        5.020311    2.820199    1.185230
     26          7           0        4.685820   -1.540855   -0.303556
     27          8           0        5.873211   -1.714561   -0.037913
     28          8           0        3.935298   -2.390164   -0.778978
 ---------------------------------------------------------------------

 SCF Done:  E(RHF) =  -868.341320903     A.U. after   16 cycles
 E2 =    -0.2598438208D+01 EUMP2 =    -0.87093975911069D+03

 The electronic state is 1-A.
 Alpha  occ. eigenvalues --  -20.61800 -20.61791 -20.59839 -20.59828 -15.86773
 Alpha  occ. eigenvalues --  -15.84875 -11.31801 -11.30002 -11.28331 -11.28312
 Alpha  occ. eigenvalues --  -11.28008 -11.27267 -11.27249 -11.26592 -11.26382
 Alpha  occ. eigenvalues --  -11.26198 -11.25612 -11.25208  -1.60841  -1.58915
 Alpha  occ. eigenvalues --   -1.40398  -1.38475  -1.19940  -1.18127  -1.09404
 Alpha  occ. eigenvalues --   -1.07576  -1.05288  -1.03452  -0.96293  -0.94456
 Alpha  occ. eigenvalues --   -0.86703  -0.84873  -0.83135  -0.81267  -0.78219
 Alpha  occ. eigenvalues --   -0.76340  -0.73003  -0.72121  -0.71103  -0.71043
 Alpha  occ. eigenvalues --   -0.70234  -0.69255  -0.65595  -0.65289  -0.63762
 Alpha  occ. eigenvalues --   -0.63412  -0.62636  -0.60777  -0.55807  -0.54006
 Alpha  occ. eigenvalues --   -0.53638  -0.53374  -0.51851  -0.51523  -0.49778
 Alpha  occ. eigenvalues --   -0.49737  -0.47868  -0.47831  -0.45871  -0.43933
 Alpha  occ. eigenvalues --   -0.37901  -0.36874  -0.36133  -0.35048
 Alpha virt. eigenvalues --    0.04291   0.06125   0.10786   0.12586   0.15859
 Alpha virt. eigenvalues --    0.17688   0.20960   0.22813   0.26901   0.27818
 Alpha virt. eigenvalues --    0.28912   0.29501   0.30567   0.32049   0.32426

 Mulliken charges:
               1
     1  C   -0.169499
     2  C   -0.218650
     3  C   -0.170355
     4  C    0.157768
     5  C   -0.170130
     6  C   -0.218608
     7  H    0.227990
     8  H    0.225280
     9  H    0.275762
    10  H    0.277278
    11  H    0.226099
    12  N    0.489417
    13  O   -0.464348
    14  O   -0.463069
    15  C   -0.173244
    16  C   -0.223568
    17  C   -0.172998
    18  C    0.157519
    19  C   -0.174120
    20  C   -0.218781
    21  H    0.223103
    22  H    0.248286
    23  H    0.278230
    24  H    0.270930
    25  H    0.218266
    26  N    0.488093
    27  O   -0.464699
    28  O   -0.461953
 Sum of Mulliken charges =  -0.00000

 Dipole moment (field-independent basis, Debye):
    X=             -7.6249    Y=              3.0878    Z=              1.7808  Tot=              8.4170
 Quadrupole moment (field-independent basis, Debye-Ang):
   XX=            -81.1265   YY=           -105.5481   ZZ=           -103.3497
   XY=             26.2624   XZ=              3.8371   YZ=             -2.4023

 Normal termination of Gaussian 16 at Thu May  6 00:24:43 2021.
