 Gaussian 16, Revision A.03,
 Gaussian 16:  EM64L-G16RevA.03 25-Dec-2016

 -------------
 #p 6-31g* mp2
 -------------

 ------------------------------------------------------
 Input file generated by CHIRIPA (05-May-2021 14:55:19)
 ------------------------------------------------------
 Symbolic Z-matrix:
 Charge =  0 Multiplicity = 1

                         Standard orientation:
 ---------------------------------------------------------------------
 Center     Atomic      Atomic             Coordinates (Angstroms)
 Number     Number       Type             X           Y           Z
 ---------------------------------------------------------------------
      1          6           0       -5.837973    0.241695    0.694731
      2          6           0       -4.800833    1.105396    1.061993
      3          6           0       -3.481992    0.830460    0.688340
      4          6           0       -3.235075   -0.322211   -0.055750
      5          6           0       -4.246806   -1.202202   -0.436941
      6          6           0       -5.558143   -0.907322   -0.052247
      7          1           0       -6.859566    0.463018    0.989282
      8          1           0       -5.015204    1.998466    1.642093
      9          1           0       -2.660016    1.481934    0.959181
     10          1           0       -4.002036   -2.084782   -1.015352
     11          1           0       -6.361602   -1.579884   -0.338881
     12          7           0       -1.842849   -0.623830   -0.457164
     13          8           0       -1.651550   -1.645816   -1.112592
     14          8           0       -0.969284    0.167458   -0.108764
     15          6           0        3.873062    0.575888   -0.478659
     16          6           0        3.248792    1.910353   -0.069424
     17          6           0        2.126903    2.351323   -1.010011
     18          1           0        4.262559    0.659211   -1.502522
     19          1           0        3.090234   -0.194790   -0.503793
     20          1           0        4.032815    2.677989   -0.043726
     21          1           0        2.860906    1.823902    0.953653
     22          1           0        1.324754    1.606468   -1.028676
     23          1           0        2.503320    2.465409   -2.031723
     24          1           0        1.694783    3.307539   -0.698909
     25          6           0        4.996137    0.121714    0.452016
     26          6           0        5.620407   -1.212752    0.042780
     27          6           0        6.742295   -1.653722    0.983367
     28          1           0        5.778964    0.892391    0.477150
     29          1           0        4.606640    0.038390    1.475878
     30          1           0        6.008293   -1.126300   -0.980297
     31          1           0        4.836384   -1.980387    0.017083
     32          1           0        6.365878   -1.767807    2.005080
     33          1           0        7.544445   -0.908868    1.002033
     34          1           0        7.174415   -2.609938    0.672265
 ---------------------------------------------------------------------

 SCF Done:  E(RHF) =  -669.536367596     A.U. after   15 cycles
 E2 =    -0.2090734691D+01 EUMP2 =    -0.67162710228711D+03

 The electronic state is 1-A.
 Alpha  occ. eigenvalues --  -20.60997 -20.60991 -15.86028 -11.31320 -11.27880
 Alpha  occ. eigenvalues --  -11.27875 -11.27615 -11.26882 -11.26872 -11.20790
 Alpha  occ. eigenvalues --  -11.20465 -11.20425 -11.20416 -11.20195 -11.19593
 Alpha  occ. eigenvalues --   -1.60056  -1.39612  -1.19486  -1.08896  -1.07404
 Alpha  occ. eigenvalues --   -1.04878  -1.02498  -0.95744  -0.94941  -0.86280
 Alpha  occ. eigenvalues --   -0.85960  -0.82577  -0.78591  -0.77632  -0.77194
 Alpha  occ. eigenvalues --   -0.72256  -0.71366  -0.70595  -0.65143  -0.64881
 Alpha  occ. eigenvalues --   -0.64028  -0.62225  -0.59879  -0.58354  -0.56559
 Alpha  occ. eigenvalues --   -0.55385  -0.54204  -0.53211  -0.52969  -0.51669
 Alpha  occ. eigenvalues --   -0.51365  -0.49114  -0.49005  -0.48749  -0.46893
 Alpha  occ. eigenvalues --   -0.45623  -0.45021  -0.44751  -0.44595  -0.42766
 Alpha  occ. eigenvalues --   -0.37464  -0.36478
 Alpha virt. eigenvalues --    0.04884   0.11178   0.16378   0.21305   0.23866
 Alpha virt. eigenvalues --    0.25365   0.27235   0.27661   0.28159   0.28549
 Alpha virt. eigenvalues --    0.29107   0.30886   0.32293   0.32567   0.32719

 Mulliken charges:
               1
     1  C   -0.170501
     2  C   -0.218575
     3  C   -0.170708
     4  C    0.157607
     5  C   -0.170475
     6  C   -0.218624
     7  H    0.226098
     8  H    0.223981
     9  H    0.276131
    10  H    0.275891
    11  H    0.223892
    12  N    0.491923
    13  O   -0.458864
    14  O   -0.463776
    15  C   -0.300640
    16  C   -0.296520
    17  C   -0.487481
    18  H    0.146397
    19  H    0.161209
    20  H    0.145096
    21  H    0.150739
    22  H    0.184783
    23  H    0.148450
    24  H    0.150924
    25  C   -0.297549
    26  C   -0.299433
    27  C   -0.475130
    28  H    0.145992
    29  H    0.148496
    30  H    0.150623
    31  H    0.154317
    32  H    0.154110
    33  H    0.153315
    34  H    0.158305
 Sum of Mulliken charges =  -0.00000

 Dipole moment (field-independent basis, Debye):
    X=             -5.2787    Y=              0.9157    Z=              1.4014  Tot=              5.5378
 Quadrupole moment (field-independent basis, Debye-Ang):
   XX=            -64.5091   YY=            -92.8206   ZZ=            -94.6921
   XY=             -0.1090   XZ=             -4.5481   YZ=              1.9282

 Normal termination of Gaussian 16 at Wed May  5 23:42:47 2021.
