 Gaussian 16, Revision A.03,
 Gaussian 16:  EM64L-G16RevA.03 25-Dec-2016

 -------------
 #p 6-31g* mp2
 -------------

 ------------------------------------------------------
 Input file generated by CHIRIPA (05-May-2021 14:57:21)
 ------------------------------------------------------
 Symbolic Z-matrix:
 Charge =  0 Multiplicity = 1

                         Standard orientation:
 ---------------------------------------------------------------------
 Center     Atomic      Atomic             Coordinates (Angstroms)
 Number     Number       Type             X           Y           Z
 ---------------------------------------------------------------------
      1          6           0       -2.648517    2.358137   -0.902036
      2          6           0       -3.775583    1.661986   -1.351055
      3          6           0       -4.019427    0.353762   -0.922526
      4          6           0       -3.111340   -0.230364   -0.040787
      5          6           0       -1.979451    0.437196    0.424490
      6          6           0       -1.755623    1.744602   -0.017256
      7          1           0       -2.466867    3.374079   -1.240061
      8          1           0       -4.470725    2.135954   -2.038207
      9          1           0       -4.884053   -0.208145   -1.254341
     10          1           0       -1.304504   -0.061742    1.109271
     11          1           0       -0.879500    2.282834    0.333115
     12          7           0       -3.358892   -1.614889    0.419874
     13          8           0       -2.543665   -2.107161    1.196862
     14          8           0       -4.363463   -2.181590   -0.004770
     15          6           0        1.997172    1.798155    1.526769
     16          6           0        1.632968    0.459127    1.702495
     17          6           0        2.221145   -0.544329    0.926820
     18          6           0        3.174309   -0.171451   -0.019610
     19          6           0        3.558261    1.153842   -0.218280
     20          6           0        2.956964    2.140635    0.568631
     21          1           0        1.535166    2.571192    2.133696
     22          1           0        0.887868    0.190224    2.445841
     23          1           0        1.957797   -1.588737    1.042048
     24          1           0        4.304035    1.391046   -0.967261
     25          1           0        3.241760    3.179726    0.429978
     26          7           0        3.803931   -1.224945   -0.846730
     27          8           0        4.641118   -0.870393   -1.673802
     28          8           0        3.448319   -2.385277   -0.652294
 ---------------------------------------------------------------------

 SCF Done:  E(RHF) =  -868.337007172     A.U. after   16 cycles
 E2 =    -0.2601649975D+01 EUMP2 =    -0.87093865714709D+03

 The electronic state is 1-A.
 Alpha  occ. eigenvalues --  -20.61103 -20.61100 -20.61079 -20.61079 -15.86153
 Alpha  occ. eigenvalues --  -15.86147 -11.31757 -11.31522 -11.28370 -11.28321
 Alpha  occ. eigenvalues --  -11.28244 -11.28122 -11.28059 -11.27831 -11.27474
 Alpha  occ. eigenvalues --  -11.27460 -11.27111 -11.27084  -1.60163  -1.60162
 Alpha  occ. eigenvalues --   -1.39720  -1.39708  -1.19984  -1.19691  -1.09359
 Alpha  occ. eigenvalues --   -1.09084  -1.05420  -1.05091  -0.96133  -0.95923
 Alpha  occ. eigenvalues --   -0.86810  -0.86505  -0.82950  -0.82757  -0.77972
 Alpha  occ. eigenvalues --   -0.77776  -0.72370  -0.72365  -0.71490  -0.71481
 Alpha  occ. eigenvalues --   -0.71104  -0.70828  -0.65639  -0.65475  -0.65328
 Alpha  occ. eigenvalues --   -0.65094  -0.62812  -0.62377  -0.55958  -0.55624
 Alpha  occ. eigenvalues --   -0.53742  -0.53538  -0.53398  -0.53131  -0.49151
 Alpha  occ. eigenvalues --   -0.49129  -0.49112  -0.49103  -0.45122  -0.45060
 Alpha  occ. eigenvalues --   -0.38026  -0.37669  -0.37060  -0.36629
 Alpha virt. eigenvalues --    0.04510   0.04760   0.10523   0.10946   0.15796
 Alpha virt. eigenvalues --    0.16228   0.19396   0.22009   0.25191   0.26312
 Alpha virt. eigenvalues --    0.28152   0.29246   0.29809   0.31324   0.32080

 Mulliken charges:
               1
     1  C   -0.171147
     2  C   -0.218111
     3  C   -0.169980
     4  C    0.160160
     5  C   -0.172562
     6  C   -0.219329
     7  H    0.225263
     8  H    0.224705
     9  H    0.276963
    10  H    0.268800
    11  H    0.220195
    12  N    0.488593
    13  O   -0.463675
    14  O   -0.457554
    15  C   -0.178989
    16  C   -0.227690
    17  C   -0.168800
    18  C    0.159720
    19  C   -0.169197
    20  C   -0.219742
    21  H    0.224801
    22  H    0.227341
    23  H    0.285134
    24  H    0.277868
    25  H    0.224355
    26  N    0.487747
    27  O   -0.459726
    28  O   -0.455143
 Sum of Mulliken charges =  -0.00000

 Dipole moment (field-independent basis, Debye):
    X=             -1.1823    Y=              8.4114    Z=              1.1562  Tot=              8.5724
 Quadrupole moment (field-independent basis, Debye-Ang):
   XX=           -119.0538   YY=           -106.8644   ZZ=           -103.3596
   XY=             -1.0982   XZ=             15.7879   YZ=             -2.3392

 Normal termination of Gaussian 16 at Thu May  6 06:29:40 2021.
