 Gaussian 16, Revision A.03,
 Gaussian 16:  EM64L-G16RevA.03 25-Dec-2016

 -------------
 #p 6-31g* mp2
 -------------

 ------------------------------------------------------
 Input file generated by CHIRIPA (05-May-2021 14:55:19)
 ------------------------------------------------------
 Symbolic Z-matrix:
 Charge =  0 Multiplicity = 1

                         Standard orientation:
 ---------------------------------------------------------------------
 Center     Atomic      Atomic             Coordinates (Angstroms)
 Number     Number       Type             X           Y           Z
 ---------------------------------------------------------------------
      1          6           0        0.572807   -0.160485    1.240034
      2          6           0        1.568252    0.733636    1.647661
      3          6           0        2.842921    0.686158    1.075374
      4          6           0        3.088663   -0.272547    0.093649
      5          6           0        2.117848   -1.177064   -0.333735
      6          6           0        0.850293   -1.111305    0.252379
      7          1           0       -0.414623   -0.116502    1.689971
      8          1           0        1.355594    1.473108    2.414475
      9          1           0        3.632064    1.366284    1.372190
     10          1           0        2.359778   -1.903116   -1.100374
     11          1           0        0.079157   -1.806956   -0.066155
     12          7           0        4.434332   -0.332487   -0.519525
     13          8           0        4.625552   -1.186471   -1.382533
     14          8           0        5.272367    0.475652   -0.125511
     15          6           0       -3.679945    1.093470   -0.348679
     16          6           0       -2.285057    1.708798   -0.465492
     17          6           0       -2.322248    3.224371   -0.664114
     18          1           0       -4.255963    1.332138   -1.253215
     19          1           0       -4.210310    1.561498    0.492188
     20          1           0       -1.756977    1.238769   -1.305027
     21          1           0       -1.712228    1.468476    0.439345
     22          1           0       -2.825487    3.710984    0.177645
     23          1           0       -2.870491    3.479972   -1.576639
     24          1           0       -1.314466    3.643497   -0.745160
     25          6           0       -3.659270   -0.421039   -0.149771
     26          6           0       -5.054157   -1.036366   -0.032959
     27          6           0       -5.016967   -2.551940    0.165665
     28          1           0       -3.128904   -0.889067   -0.990638
     29          1           0       -3.083252   -0.659706    0.754765
     30          1           0       -5.626985   -0.796044   -0.937795
     31          1           0       -5.582237   -0.566337    0.806576
     32          1           0       -4.468723   -2.807540    1.078188
     33          1           0       -4.513726   -3.038553   -0.676095
     34          1           0       -6.024748   -2.971066    0.246710
 ---------------------------------------------------------------------

 SCF Done:  E(RHF) =  -669.534886862     A.U. after   15 cycles
 E2 =    -0.2092478520D+01 EUMP2 =    -0.67162736538237D+03

 The electronic state is 1-A.
 Alpha  occ. eigenvalues --  -20.60734 -20.60729 -15.85789 -11.31142 -11.27726
 Alpha  occ. eigenvalues --  -11.27717 -11.27444 -11.26730 -11.26703 -11.22461
 Alpha  occ. eigenvalues --  -11.22395 -11.22382 -11.22200 -11.21837 -11.21704
 Alpha  occ. eigenvalues --   -1.59811  -1.39364  -1.19323  -1.09312  -1.08716
 Alpha  occ. eigenvalues --   -1.04723  -1.04316  -0.96767  -0.95559  -0.87778
 Alpha  occ. eigenvalues --   -0.86119  -0.82396  -0.80390  -0.79159  -0.77430
 Alpha  occ. eigenvalues --   -0.72007  -0.71134  -0.70466  -0.65939  -0.64973
 Alpha  occ. eigenvalues --   -0.64720  -0.62071  -0.61717  -0.60136  -0.58382
 Alpha  occ. eigenvalues --   -0.56061  -0.55267  -0.53429  -0.53208  -0.53034
 Alpha  occ. eigenvalues --   -0.52812  -0.50710  -0.48776  -0.48762  -0.48681
 Alpha  occ. eigenvalues --   -0.47429  -0.46663  -0.46590  -0.44773  -0.44598
 Alpha  occ. eigenvalues --   -0.37236  -0.36330
 Alpha virt. eigenvalues --    0.05077   0.11278   0.16484   0.19299   0.22755
 Alpha virt. eigenvalues --    0.23500   0.24719   0.25645   0.27112   0.27723
 Alpha virt. eigenvalues --    0.30131   0.30495   0.30967   0.31259   0.31818

 Mulliken charges:
               1
     1  C   -0.167180
     2  C   -0.220400
     3  C   -0.170643
     4  C    0.158354
     5  C   -0.171300
     6  C   -0.220331
     7  H    0.227099
     8  H    0.223197
     9  H    0.275423
    10  H    0.275389
    11  H    0.224812
    12  N    0.488086
    13  O   -0.460629
    14  O   -0.460636
    15  C   -0.298900
    16  C   -0.300652
    17  C   -0.476505
    18  H    0.153665
    19  H    0.150382
    20  H    0.155483
    21  H    0.144151
    22  H    0.154659
    23  H    0.158089
    24  H    0.163122
    25  C   -0.299399
    26  C   -0.299901
    27  C   -0.476437
    28  H    0.149449
    29  H    0.139591
    30  H    0.155614
    31  H    0.153771
    32  H    0.153344
    33  H    0.155295
    34  H    0.163937
 Sum of Mulliken charges =  -0.00000

 Dipole moment (field-independent basis, Debye):
    X=             -4.9068    Y=              0.2563    Z=              2.0675  Tot=              5.3307
 Quadrupole moment (field-independent basis, Debye-Ang):
   XX=           -123.6501   YY=            -93.2992   ZZ=            -92.1902
   XY=              3.1289   XZ=              7.5621   YZ=              2.2096

 Normal termination of Gaussian 16 at Thu May  6 09:14:30 2021.
