 Gaussian 16, Revision A.03,
 Gaussian 16:  EM64L-G16RevA.03 25-Dec-2016

 -------------
 #p 6-31g* mp2
 -------------

 ------------------------------------------------------
 Input file generated by CHIRIPA (05-May-2021 14:57:25)
 ------------------------------------------------------
 Symbolic Z-matrix:
 Charge =  0 Multiplicity = 1

                         Standard orientation:
 ---------------------------------------------------------------------
 Center     Atomic      Atomic             Coordinates (Angstroms)
 Number     Number       Type             X           Y           Z
 ---------------------------------------------------------------------
      1          6           0       -3.141975   -2.356253   -0.462712
      2          6           0       -1.881446   -1.790021   -0.245988
      3          6           0       -1.738055   -0.405554   -0.114694
      4          6           0       -2.881598    0.386465   -0.205824
      5          6           0       -4.151048   -0.147774   -0.421174
      6          6           0       -4.270763   -1.534770   -0.549461
      7          1           0       -3.244168   -3.432723   -0.563536
      8          1           0       -1.003066   -2.425550   -0.178183
      9          1           0       -0.774155    0.059196    0.053597
     10          1           0       -5.008238    0.511524   -0.484184
     11          1           0       -5.250960   -1.971747   -0.717718
     12          7           0       -2.742329    1.853477   -0.068421
     13          8           0       -3.765346    2.529489   -0.152574
     14          8           0       -1.612790    2.299531    0.120827
     15          6           0        1.180880   -0.880336    1.917759
     16          6           0        1.657250   -1.785835    0.963996
     17          6           0        2.612293   -1.389216    0.023179
     18          6           0        3.071189   -0.073564    0.065156
     19          6           0        2.616016    0.851970    1.002970
     20          6           0        1.660937    0.433360    1.934173
     21          1           0        0.438966   -1.196980    2.644874
     22          1           0        1.286227   -2.806696    0.948878
     23          1           0        2.998241   -2.069609   -0.726172
     24          1           0        3.004774    1.863002    0.993069
     25          1           0        1.292780    1.138744    2.673727
     26          7           0        4.082269    0.357959   -0.925756
     27          8           0        4.470600    1.522633   -0.867693
     28          8           0        4.467278   -0.476659   -1.741733
 ---------------------------------------------------------------------

 SCF Done:  E(RHF) =  -868.336772489     A.U. after   16 cycles
 E2 =    -0.2603164967D+01 EUMP2 =    -0.87093993745527D+03

 The electronic state is 1-A.
 Alpha  occ. eigenvalues --  -20.61138 -20.61119 -20.61033 -20.61010 -15.86183
 Alpha  occ. eigenvalues --  -15.86087 -11.31647 -11.31515 -11.28340 -11.28176
 Alpha  occ. eigenvalues --  -11.28122 -11.28040 -11.27993 -11.27898 -11.27428
 Alpha  occ. eigenvalues --  -11.27165 -11.27129 -11.27119  -1.60206  -1.60095
 Alpha  occ. eigenvalues --   -1.39760  -1.39642  -1.19897  -1.19709  -1.09253
 Alpha  occ. eigenvalues --   -1.09125  -1.05305  -1.05102  -0.96042  -0.95934
 Alpha  occ. eigenvalues --   -0.86724  -0.86484  -0.82836  -0.82782  -0.77913
 Alpha  occ. eigenvalues --   -0.77767  -0.72405  -0.72300  -0.71533  -0.71421
 Alpha  occ. eigenvalues --   -0.70962  -0.70819  -0.65550  -0.65446  -0.65365
 Alpha  occ. eigenvalues --   -0.64968  -0.62685  -0.62417  -0.55783  -0.55680
 Alpha  occ. eigenvalues --   -0.53687  -0.53463  -0.53357  -0.53035  -0.49160
 Alpha  occ. eigenvalues --   -0.49154  -0.49073  -0.49040  -0.45172  -0.45004
 Alpha  occ. eigenvalues --   -0.37974  -0.37728  -0.36898  -0.36618
 Alpha virt. eigenvalues --    0.04419   0.04950   0.10479   0.11006   0.15810
 Alpha virt. eigenvalues --    0.16400   0.19884   0.21884   0.25491   0.27847
 Alpha virt. eigenvalues --    0.28078   0.28361   0.29953   0.31555   0.32013

 Mulliken charges:
               1
     1  C   -0.170430
     2  C   -0.224377
     3  C   -0.178419
     4  C    0.156918
     5  C   -0.169930
     6  C   -0.219193
     7  H    0.225219
     8  H    0.217583
     9  H    0.286219
    10  H    0.276442
    11  H    0.224379
    12  N    0.487970
    13  O   -0.459020
    14  O   -0.462434
    15  C   -0.181169
    16  C   -0.227897
    17  C   -0.171492
    18  C    0.157990
    19  C   -0.165059
    20  C   -0.216114
    21  H    0.229609
    22  H    0.218609
    23  H    0.276628
    24  H    0.282473
    25  H    0.233503
    26  N    0.488320
    27  O   -0.455709
    28  O   -0.460620
 Sum of Mulliken charges =  -0.00000

 Dipole moment (field-independent basis, Debye):
    X=             -3.8223    Y=             -6.3593    Z=              3.0824  Tot=              8.0344
 Quadrupole moment (field-independent basis, Debye-Ang):
   XX=           -118.9749   YY=           -105.3111   ZZ=           -104.3785
   XY=             10.2686   XZ=             13.0267   YZ=              2.8232

 Normal termination of Gaussian 16 at Wed May  5 22:45:18 2021.
