 Gaussian 16, Revision A.03,
 Gaussian 16:  EM64L-G16RevA.03 25-Dec-2016

 -------------
 #p 6-31g* mp2
 -------------

 ------------------------------------------------------
 Input file generated by CHIRIPA (05-May-2021 14:51:11)
 ------------------------------------------------------
 Symbolic Z-matrix:
 Charge =  0 Multiplicity = 1

                         Standard orientation:
 ---------------------------------------------------------------------
 Center     Atomic      Atomic             Coordinates (Angstroms)
 Number     Number       Type             X           Y           Z
 ---------------------------------------------------------------------
      1          6           0        2.997813   -0.674063    0.187519
      2          6           0        1.694812   -0.436499   -0.576508
      3          6           0        0.549855   -1.320958   -0.081937
      4          1           0        3.282540   -1.731042    0.094407
      5          1           0        2.826423   -0.489574    1.257091
      6          1           0        1.868958   -0.620040   -1.644498
      7          1           0        1.413254    0.620079   -0.481726
      8          1           0        0.347456   -1.132568    0.977376
      9          1           0        0.805749   -2.379733   -0.192002
     10          1           0       -0.371953   -1.134742   -0.641807
     11          6           0        4.151768    0.202797   -0.295421
     12          6           0        5.454769   -0.034766    0.468607
     13          6           0        6.599726    0.849693   -0.025964
     14          1           0        4.323158    0.018308   -1.364993
     15          1           0        3.867040    1.259776   -0.202308
     16          1           0        5.736327   -1.091345    0.373824
     17          1           0        5.280623    0.148774    1.536596
     18          1           0        6.343832    1.908468    0.084101
     19          1           0        6.802125    0.661302   -1.085278
     20          1           0        7.521533    0.663476    0.533906
     21          6           0       -3.719550    0.909729   -0.274791
     22          6           0       -3.204895    2.101414    0.533295
     23          6           0       -3.502053    3.442982   -0.137293
     24          1           0       -3.265777    0.929739   -1.275108
     25          1           0       -4.803438    1.015468   -0.421077
     26          1           0       -2.122526    1.992752    0.679199
     27          1           0       -3.659799    2.078457    1.531870
     28          1           0       -4.580601    3.577508   -0.268587
     29          1           0       -3.034593    3.491316   -1.126104
     30          1           0       -3.125516    4.281149    0.457312
     31          6           0       -3.430031   -0.438464    0.382692
     32          6           0       -3.944686   -1.630148   -0.425393
     33          6           0       -3.647528   -2.971716    0.245194
     34          1           0       -2.346142   -0.544203    0.528978
     35          1           0       -3.883804   -0.458473    1.383009
     36          1           0       -3.489782   -1.607192   -1.423968
     37          1           0       -5.027055   -1.521486   -0.571297
     38          1           0       -4.114988   -3.020050    1.234005
     39          1           0       -2.568981   -3.106242    0.376489
     40          1           0       -4.024064   -3.809884   -0.349410
 ---------------------------------------------------------------------

 SCF Done:  E(RHF) =  -470.733008498     A.U. after   11 cycles
 E2 =    -0.1583109083D+01 EUMP2 =    -0.47231611758054D+03

 The electronic state is 1-A.
 Alpha  occ. eigenvalues --  -11.21698 -11.21637 -11.21577 -11.21539 -11.21463
 Alpha  occ. eigenvalues --  -11.21401 -11.21337 -11.21222 -11.21185 -11.21098
 Alpha  occ. eigenvalues --  -11.21055 -11.20987  -1.08495  -1.08369  -1.03605
 Alpha  occ. eigenvalues --   -1.03476  -0.96060  -0.95919  -0.87087  -0.86932
 Alpha  occ. eigenvalues --   -0.79687  -0.79528  -0.78308  -0.78172  -0.65144
 Alpha  occ. eigenvalues --   -0.65019  -0.60999  -0.60905  -0.59429  -0.59270
 Alpha  occ. eigenvalues --   -0.57670  -0.57528  -0.55395  -0.55163  -0.52788
 Alpha  occ. eigenvalues --   -0.52622  -0.52483  -0.52329  -0.50044  -0.49815
 Alpha  occ. eigenvalues --   -0.47978  -0.47858  -0.46723  -0.46563  -0.45858
 Alpha  occ. eigenvalues --   -0.45783  -0.45712  -0.45602  -0.43782  -0.43720
 Alpha virt. eigenvalues --    0.20766   0.22981   0.23954   0.24543   0.26178
 Alpha virt. eigenvalues --    0.26641   0.26893   0.27475   0.27937   0.29564
 Alpha virt. eigenvalues --    0.30440   0.31170   0.31597   0.31819   0.32184

 Mulliken charges:
               1
     1  C   -0.298741
     2  C   -0.300098
     3  C   -0.480870
     4  H    0.149936
     5  H    0.149866
     6  H    0.152287
     7  H    0.151984
     8  H    0.156419
     9  H    0.155918
    10  H    0.164536
    11  C   -0.298366
    12  C   -0.299705
    13  C   -0.475747
    14  H    0.149632
    15  H    0.149768
    16  H    0.152034
    17  H    0.152047
    18  H    0.155252
    19  H    0.155231
    20  H    0.160397
    21  C   -0.298005
    22  C   -0.299556
    23  C   -0.475659
    24  H    0.148806
    25  H    0.149407
    26  H    0.151498
    27  H    0.151904
    28  H    0.155228
    29  H    0.155098
    30  H    0.159982
    31  C   -0.306980
    32  C   -0.299377
    33  C   -0.477677
    34  H    0.159226
    35  H    0.149053
    36  H    0.150893
    37  H    0.151724
    38  H    0.154836
    39  H    0.158109
    40  H    0.159711
 Sum of Mulliken charges =  -0.00000

 Dipole moment (field-independent basis, Debye):
    X=              0.0680    Y=             -0.0153    Z=              0.0093  Tot=              0.0703
 Quadrupole moment (field-independent basis, Debye-Ang):
   XX=            -84.9513   YY=            -85.7176   ZZ=            -84.2816
   XY=             -0.6457   XZ=             -0.4808   YZ=              1.0321

 Normal termination of Gaussian 16 at Wed May  5 16:45:20 2021.
