 Gaussian 16, Revision A.03,
 Gaussian 16:  EM64L-G16RevA.03 25-Dec-2016

 -------------
 #p 6-31g* mp2
 -------------

 ------------------------------------------------------
 Input file generated by CHIRIPA (05-May-2021 14:55:25)
 ------------------------------------------------------
 Symbolic Z-matrix:
 Charge =  0 Multiplicity = 1

                         Standard orientation:
 ---------------------------------------------------------------------
 Center     Atomic      Atomic             Coordinates (Angstroms)
 Number     Number       Type             X           Y           Z
 ---------------------------------------------------------------------
      1          6           0        2.277815    2.030431    1.277170
      2          6           0        1.467243    1.510442    0.262721
      3          6           0        1.814230    0.320214   -0.383427
      4          6           0        2.983991   -0.326832    0.011896
      5          6           0        3.812276    0.165992    1.019050
      6          6           0        3.445685    1.357732    1.651437
      7          1           0        2.000653    2.955616    1.773768
      8          1           0        0.559688    2.030725   -0.030014
      9          1           0        1.204971   -0.104628   -1.171926
     10          1           0        4.710947   -0.375243    1.289002
     11          1           0        4.077099    1.759227    2.438941
     12          7           0        3.361707   -1.587673   -0.664867
     13          8           0        4.397356   -2.138648   -0.298131
     14          8           0        2.614961   -2.001071   -1.549236
     15          6           0       -3.911825   -0.281105    0.446948
     16          6           0       -5.163159   -1.136103    0.244151
     17          6           0       -5.494327   -1.997726    1.463055
     18          1           0       -3.060720   -0.936774    0.676434
     19          1           0       -4.055211    0.363807    1.324970
     20          1           0       -5.017999   -1.778218   -0.634048
     21          1           0       -6.011343   -0.478336    0.014931
     22          1           0       -5.665676   -1.369970    2.343489
     23          1           0       -4.666688   -2.677237    1.690822
     24          1           0       -6.392342   -2.600762    1.296389
     25          6           0       -3.567826    0.585821   -0.762942
     26          6           0       -2.316493    1.440819   -0.560145
     27          6           0       -1.985324    2.302442   -1.779049
     28          1           0       -3.424440   -0.059090   -1.640965
     29          1           0       -4.418931    1.241490   -0.992429
     30          1           0       -1.468308    0.783051   -0.330926
     31          1           0       -2.461652    2.082933    0.318054
     32          1           0       -2.812963    2.981954   -2.006817
     33          1           0       -1.813974    1.674685   -2.659483
     34          1           0       -1.087309    2.905478   -1.612383
 ---------------------------------------------------------------------

 SCF Done:  E(RHF) =  -669.534905786     A.U. after   15 cycles
 E2 =    -0.2092266899D+01 EUMP2 =    -0.67162717268537D+03

 The electronic state is 1-A.
 Alpha  occ. eigenvalues --  -20.60744 -20.60739 -15.85796 -11.31149 -11.27712
 Alpha  occ. eigenvalues --  -11.27698 -11.27433 -11.26731 -11.26639 -11.22536
 Alpha  occ. eigenvalues --  -11.22076 -11.21988 -11.21889 -11.21784 -11.21272
 Alpha  occ. eigenvalues --   -1.59820  -1.39374  -1.19313  -1.09009  -1.08707
 Alpha  occ. eigenvalues --   -1.04725  -1.04134  -0.96573  -0.95549  -0.87580
 Alpha  occ. eigenvalues --   -0.86112  -0.82393  -0.80239  -0.78773  -0.77427
 Alpha  occ. eigenvalues --   -0.72015  -0.71142  -0.70425  -0.65656  -0.64959
 Alpha  occ. eigenvalues --   -0.64759  -0.62229  -0.61446  -0.59925  -0.58163
 Alpha  occ. eigenvalues --   -0.55823  -0.55198  -0.53324  -0.53105  -0.53014
 Alpha  occ. eigenvalues --   -0.52643  -0.50488  -0.48772  -0.48770  -0.48536
 Alpha  occ. eigenvalues --   -0.47250  -0.46306  -0.46192  -0.44782  -0.44371
 Alpha  occ. eigenvalues --   -0.37291  -0.36295
 Alpha virt. eigenvalues --    0.05073   0.11326   0.16489   0.19818   0.22636
 Alpha virt. eigenvalues --    0.23860   0.25643   0.26184   0.26923   0.28096
 Alpha virt. eigenvalues --    0.29344   0.29851   0.30997   0.31446   0.32192

 Mulliken charges:
               1
     1  C   -0.173416
     2  C   -0.224792
     3  C   -0.175696
     4  C    0.158755
     5  C   -0.171345
     6  C   -0.218320
     7  H    0.225855
     8  H    0.238567
     9  H    0.275397
    10  H    0.275389
    11  H    0.223182
    12  N    0.488250
    13  O   -0.460559
    14  O   -0.460838
    15  C   -0.299340
    16  C   -0.300406
    17  C   -0.476236
    18  H    0.152208
    19  H    0.148919
    20  H    0.154191
    21  H    0.152039
    22  H    0.154691
    23  H    0.157025
    24  H    0.161707
    25  C   -0.298158
    26  C   -0.308605
    27  C   -0.481655
    28  H    0.153357
    29  H    0.151630
    30  H    0.149996
    31  H    0.151809
    32  H    0.162030
    33  H    0.161227
    34  H    0.153140
 Sum of Mulliken charges =  -0.00000

 Dipole moment (field-independent basis, Debye):
    X=             -1.5335    Y=              4.4002    Z=              2.3608  Tot=              5.2237
 Quadrupole moment (field-independent basis, Debye-Ang):
   XX=            -98.7521   YY=            -98.2378   ZZ=            -93.9552
   XY=             12.8888   XZ=             10.1759   YZ=             -0.0880

 Normal termination of Gaussian 16 at Thu May  6 06:24:25 2021.
