 Gaussian 16, Revision A.03,
 Gaussian 16:  EM64L-G16RevA.03 25-Dec-2016

 -------------
 #p 6-31g* mp2
 -------------

 ------------------------------------------------------
 Input file generated by CHIRIPA (05-May-2021 14:51:08)
 ------------------------------------------------------
 Symbolic Z-matrix:
 Charge =  0 Multiplicity = 1

                         Standard orientation:
 ---------------------------------------------------------------------
 Center     Atomic      Atomic             Coordinates (Angstroms)
 Number     Number       Type             X           Y           Z
 ---------------------------------------------------------------------
      1          6           0        2.297290   -0.728333    0.442364
      2          6           0        2.009684   -2.228620    0.375997
      3          6           0        0.663403   -2.600540    0.998089
      4          1           0        2.274161   -0.403071    1.491466
      5          1           0        1.492289   -0.184675   -0.071257
      6          1           0        2.815699   -2.769369    0.888391
      7          1           0        2.033689   -2.550385   -0.673053
      8          1           0       -0.154374   -2.087103    0.482121
      9          1           0        0.632080   -2.307330    2.052436
     10          1           0        0.478094   -3.677633    0.939841
     11          6           0        3.639596   -0.340893   -0.175561
     12          6           0        3.927202    1.159394   -0.109195
     13          6           0        5.273483    1.531314   -0.731286
     14          1           0        4.444597   -0.884551    0.338060
     15          1           0        3.662725   -0.666155   -1.224663
     16          1           0        3.903197    1.481159    0.939856
     17          1           0        3.121187    1.700143   -0.621588
     18          1           0        5.304806    1.238104   -1.785633
     19          1           0        6.091260    1.017877   -0.215318
     20          1           0        5.458792    2.608407   -0.673038
     21          6           0       -2.757251   -0.136513   -0.430757
     22          6           0       -3.800128   -1.238611   -0.241618
     23          6           0       -3.363165   -2.575258   -0.841812
     24          1           0       -2.556841   -0.010342   -1.503539
     25          1           0       -1.810979   -0.453996    0.028775
     26          1           0       -4.744545   -0.918563   -0.700161
     27          1           0       -3.998220   -1.362041    0.830827
     28          1           0       -2.433762   -2.920577   -0.377522
     29          1           0       -3.184326   -2.474579   -1.917210
     30          1           0       -4.123419   -3.348823   -0.695280
     31          6           0       -3.179635    1.205739    0.163954
     32          6           0       -2.136758    2.307837   -0.025185
     33          6           0       -2.573721    3.644484    0.575009
     34          1           0       -4.125907    1.523222   -0.295578
     35          1           0       -3.380046    1.079568    1.236736
     36          1           0       -1.938666    2.431266   -1.097631
     37          1           0       -1.192341    1.987789    0.433358
     38          1           0       -2.752559    3.543805    1.650408
     39          1           0       -3.503124    3.989802    0.110719
     40          1           0       -1.813466    4.418049    0.428478
 ---------------------------------------------------------------------

 SCF Done:  E(RHF) =  -470.733105117     A.U. after   11 cycles
 E2 =    -0.1583438544D+01 EUMP2 =    -0.47231654366115D+03

 The electronic state is 1-A.
 Alpha  occ. eigenvalues --  -11.21633 -11.21609 -11.21604 -11.21583 -11.21428
 Alpha  occ. eigenvalues --  -11.21404 -11.21367 -11.21344 -11.21106 -11.21076
 Alpha  occ. eigenvalues --  -11.21070 -11.21018  -1.08460  -1.08422  -1.03565
 Alpha  occ. eigenvalues --   -1.03510  -0.96011  -0.95966  -0.87031  -0.86983
 Alpha  occ. eigenvalues --   -0.79663  -0.79546  -0.78327  -0.78188  -0.65173
 Alpha  occ. eigenvalues --   -0.64985  -0.61066  -0.60817  -0.59380  -0.59339
 Alpha  occ. eigenvalues --   -0.57622  -0.57576  -0.55322  -0.55240  -0.52710
 Alpha  occ. eigenvalues --   -0.52660  -0.52454  -0.52377  -0.50004  -0.49903
 Alpha  occ. eigenvalues --   -0.48041  -0.47834  -0.46820  -0.46509  -0.46011
 Alpha  occ. eigenvalues --   -0.45774  -0.45748  -0.45283  -0.43807  -0.43775
 Alpha virt. eigenvalues --    0.20854   0.23095   0.23497   0.24423   0.25422
 Alpha virt. eigenvalues --    0.26743   0.27069   0.27279   0.28336   0.29581
 Alpha virt. eigenvalues --    0.30717   0.31450   0.31678   0.31884   0.31999

 Mulliken charges:
               1
     1  C   -0.300248
     2  C   -0.298944
     3  C   -0.486977
     4  H    0.149324
     5  H    0.151020
     6  H    0.152113
     7  H    0.152433
     8  H    0.165437
     9  H    0.154981
    10  H    0.160846
    11  C   -0.298281
    12  C   -0.299811
    13  C   -0.475723
    14  H    0.149644
    15  H    0.149873
    16  H    0.151827
    17  H    0.152302
    18  H    0.155241
    19  H    0.155167
    20  H    0.160299
    21  C   -0.306985
    22  C   -0.299050
    23  C   -0.480786
    24  H    0.149095
    25  H    0.156881
    26  H    0.151885
    27  H    0.152118
    28  H    0.160679
    29  H    0.154509
    30  H    0.160216
    31  C   -0.297469
    32  C   -0.300714
    33  C   -0.475665
    34  H    0.149626
    35  H    0.149886
    36  H    0.151534
    37  H    0.152956
    38  H    0.155310
    39  H    0.155178
    40  H    0.160276
 Sum of Mulliken charges =  -0.00000

 Dipole moment (field-independent basis, Debye):
    X=              0.0160    Y=             -0.0038    Z=              0.0070  Tot=              0.0179
 Quadrupole moment (field-independent basis, Debye-Ang):
   XX=            -85.3499   YY=            -85.9527   ZZ=            -83.4814
   XY=             -0.4068   XZ=              1.1953   YZ=             -0.5647

 Normal termination of Gaussian 16 at Thu May  6 13:12:52 2021.
