 Gaussian 16, Revision A.03,
 Gaussian 16:  EM64L-G16RevA.03 25-Dec-2016

 -------------
 #p 6-31g* mp2
 -------------

 ------------------------------------------------------
 Input file generated by CHIRIPA (05-May-2021 14:55:25)
 ------------------------------------------------------
 Symbolic Z-matrix:
 Charge =  0 Multiplicity = 1

                         Standard orientation:
 ---------------------------------------------------------------------
 Center     Atomic      Atomic             Coordinates (Angstroms)
 Number     Number       Type             X           Y           Z
 ---------------------------------------------------------------------
      1          6           0        3.001852    1.648681    0.773128
      2          6           0        3.586932    0.911006   -0.261299
      3          6           0        3.078505   -0.342319   -0.615172
      4          6           0        1.978994   -0.829799    0.089618
      5          6           0        1.374093   -0.118795    1.124924
      6          6           0        1.899243    1.132337    1.461723
      7          1           0        3.403306    2.621442    1.041393
      8          1           0        4.443320    1.309512   -0.797803
      9          1           0        3.512067   -0.934544   -1.411860
     10          1           0        0.521332   -0.542326    1.641489
     11          1           0        1.442830    1.703009    2.265505
     12          7           0        1.431892   -2.155478   -0.275974
     13          8           0        0.462437   -2.562760    0.360354
     14          8           0        1.982889   -2.762159   -1.191930
     15          6           0       -2.103596    1.269853    0.029405
     16          6           0       -1.650118    2.217476   -1.081609
     17          6           0       -0.559615    3.186421   -0.623635
     18          1           0       -2.469879    1.860917    0.879949
     19          1           0       -1.236503    0.701771    0.393859
     20          1           0       -2.518064    2.782607   -1.444809
     21          1           0       -1.285051    1.624083   -1.929681
     22          1           0        0.323488    2.638052   -0.280091
     23          1           0       -0.916532    3.803158    0.207538
     24          1           0       -0.250293    3.854555   -1.433436
     25          6           0       -3.193461    0.295105   -0.413078
     26          6           0       -3.646937   -0.652518    0.697935
     27          6           0       -4.737442   -1.621464    0.239961
     28          1           0       -4.060555    0.863187   -0.777533
     29          1           0       -2.827177   -0.295959   -1.263622
     30          1           0       -4.012006   -0.059126    1.546008
     31          1           0       -2.778993   -1.217649    1.061135
     32          1           0       -4.380525   -2.238200   -0.591211
     33          1           0       -5.620543   -1.073093   -0.103583
     34          1           0       -5.046764   -2.289597    1.049762
 ---------------------------------------------------------------------

 SCF Done:  E(RHF) =  -669.534161787     A.U. after   15 cycles
 E2 =    -0.2095075379D+01 EUMP2 =    -0.67162923716578D+03

 The electronic state is 1-A.
 Alpha  occ. eigenvalues --  -20.60931 -20.60926 -15.85977 -11.31345 -11.27897
 Alpha  occ. eigenvalues --  -11.27880 -11.27621 -11.26914 -11.26882 -11.21627
 Alpha  occ. eigenvalues --  -11.21364 -11.21231 -11.21129 -11.21118 -11.20626
 Alpha  occ. eigenvalues --   -1.59999  -1.39553  -1.19528  -1.08914  -1.08294
 Alpha  occ. eigenvalues --   -1.04928  -1.03359  -0.95853  -0.95727  -0.86871
 Alpha  occ. eigenvalues --   -0.86302  -0.82572  -0.79466  -0.78152  -0.77591
 Alpha  occ. eigenvalues --   -0.72194  -0.71323  -0.70616  -0.65165  -0.65023
 Alpha  occ. eigenvalues --   -0.64829  -0.62258  -0.60772  -0.59226  -0.57460
 Alpha  occ. eigenvalues --   -0.55413  -0.55163  -0.53320  -0.53008  -0.52519
 Alpha  occ. eigenvalues --   -0.52229  -0.49771  -0.48952  -0.48950  -0.47760
 Alpha  occ. eigenvalues --   -0.46469  -0.45664  -0.45558  -0.44919  -0.43630
 Alpha  occ. eigenvalues --   -0.37451  -0.36394
 Alpha virt. eigenvalues --    0.04860   0.11009   0.16338   0.20840   0.23130
 Alpha virt. eigenvalues --    0.24299   0.25552   0.27000   0.27550   0.28416
 Alpha virt. eigenvalues --    0.29265   0.31011   0.31481   0.31673   0.32317

 Mulliken charges:
               1
     1  C   -0.170083
     2  C   -0.217285
     3  C   -0.171245
     4  C    0.158703
     5  C   -0.171024
     6  C   -0.220266
     7  H    0.227397
     8  H    0.224437
     9  H    0.276130
    10  H    0.277415
    11  H    0.226667
    12  N    0.488590
    13  O   -0.461536
    14  O   -0.459324
    15  C   -0.303897
    16  C   -0.297346
    17  C   -0.486023
    18  H    0.145371
    19  H    0.149155
    20  H    0.152071
    21  H    0.153655
    22  H    0.163479
    23  H    0.149652
    24  H    0.158180
    25  C   -0.297274
    26  C   -0.303338
    27  C   -0.475662
    28  H    0.148064
    29  H    0.154588
    30  H    0.147045
    31  H    0.160880
    32  H    0.160190
    33  H    0.152285
    34  H    0.160346
 Sum of Mulliken charges =  -0.00000

 Dipole moment (field-independent basis, Debye):
    X=              2.0852    Y=              4.4921    Z=              1.2732  Tot=              5.1135
 Quadrupole moment (field-independent basis, Debye-Ang):
   XX=            -85.1045   YY=           -103.7026   ZZ=            -92.2988
   XY=              6.8534   XZ=             -0.2592   YZ=             -0.0790

 Normal termination of Gaussian 16 at Wed May  5 20:51:31 2021.
