 Gaussian 16, Revision A.03,
 Gaussian 16:  EM64L-G16RevA.03 25-Dec-2016

 -------------
 #p 6-31g* mp2
 -------------

 ------------------------------------------------------
 Input file generated by CHIRIPA (05-May-2021 14:51:09)
 ------------------------------------------------------
 Symbolic Z-matrix:
 Charge =  0 Multiplicity = 1

                         Standard orientation:
 ---------------------------------------------------------------------
 Center     Atomic      Atomic             Coordinates (Angstroms)
 Number     Number       Type             X           Y           Z
 ---------------------------------------------------------------------
      1          6           0       -2.428171    1.104124    0.364159
      2          6           0       -2.235805    2.546724   -0.104764
      3          6           0       -1.319065    3.350870    0.817587
      4          1           0       -2.841805    1.108186    1.381919
      5          1           0       -1.447453    0.612595    0.427300
      6          1           0       -3.216719    3.034970   -0.168330
      7          1           0       -1.822761    2.539227   -1.121599
      8          1           0       -0.327758    2.889540    0.873125
      9          1           0       -1.729636    3.388099    1.831809
     10          1           0       -1.195392    4.379132    0.463692
     11          6           0       -3.342164    0.287489   -0.547681
     12          6           0       -3.534530   -1.155110   -0.078759
     13          6           0       -4.451270   -1.959256   -1.001109
     14          1           0       -4.322882    0.779019   -0.610823
     15          1           0       -2.928530    0.283428   -1.565441
     16          1           0       -3.947574   -1.147614    0.938077
     17          1           0       -2.553616   -1.643356   -0.015192
     18          1           0       -4.040699   -1.996485   -2.015332
     19          1           0       -5.442577   -1.497926   -1.056647
     20          1           0       -4.574943   -2.987518   -0.647214
     21          6           0        2.573239   -1.329323    0.382946
     22          6           0        1.048926   -1.263598    0.483634
     23          6           0        0.439573   -2.538346    1.068012
     24          1           0        2.856573   -2.190637   -0.237380
     25          1           0        2.992182   -1.512441    1.382120
     26          1           0        0.633057   -1.079280   -0.515213
     27          1           0        0.769182   -0.402228    1.103635
     28          1           0        0.826689   -2.723754    2.075169
     29          1           0        0.689790   -3.404654    0.447123
     30          1           0       -0.650924   -2.469723    1.131008
     31          6           0        3.197097   -0.062291   -0.199424
     32          6           0        4.721409   -0.128017   -0.300111
     33          6           0        5.330761    1.146733   -0.884490
     34          1           0        2.778153    0.120827   -1.198599
     35          1           0        2.913763    0.799023    0.420902
     36          1           0        5.001154   -0.989387   -0.920113
     37          1           0        5.137278   -0.312334    0.698736
     38          1           0        5.080545    2.013040   -0.263600
     39          1           0        4.943646    1.332141   -1.891647
     40          1           0        6.421258    1.078110   -0.947487
 ---------------------------------------------------------------------

 SCF Done:  E(RHF) =  -470.732868208     A.U. after   11 cycles
 E2 =    -0.1584001635D+01 EUMP2 =    -0.47231686984316D+03

 The electronic state is 1-A.
 Alpha  occ. eigenvalues --  -11.21687 -11.21640 -11.21577 -11.21559 -11.21465
 Alpha  occ. eigenvalues --  -11.21405 -11.21353 -11.21263 -11.21101 -11.21098
 Alpha  occ. eigenvalues --  -11.21060 -11.21053  -1.08500  -1.08384  -1.03589
 Alpha  occ. eigenvalues --   -1.03503  -0.96032  -0.95949  -0.87059  -0.86956
 Alpha  occ. eigenvalues --   -0.79705  -0.79534  -0.78383  -0.78138  -0.65121
 Alpha  occ. eigenvalues --   -0.65044  -0.61022  -0.60882  -0.59459  -0.59271
 Alpha  occ. eigenvalues --   -0.57655  -0.57561  -0.55318  -0.55233  -0.52776
 Alpha  occ. eigenvalues --   -0.52631  -0.52490  -0.52342  -0.49970  -0.49904
 Alpha  occ. eigenvalues --   -0.48140  -0.47749  -0.46728  -0.46565  -0.46030
 Alpha  occ. eigenvalues --   -0.45778  -0.45722  -0.45362  -0.43820  -0.43743
 Alpha virt. eigenvalues --    0.20746   0.22887   0.23530   0.24083   0.25921
 Alpha virt. eigenvalues --    0.26342   0.26861   0.27476   0.28262   0.29600
 Alpha virt. eigenvalues --    0.30266   0.31359   0.31659   0.31929   0.32543

 Mulliken charges:
               1
     1  C   -0.308312
     2  C   -0.298905
     3  C   -0.476131
     4  H    0.148649
     5  H    0.161188
     6  H    0.151672
     7  H    0.151720
     8  H    0.155002
     9  H    0.154928
    10  H    0.160226
    11  C   -0.297000
    12  C   -0.308274
    13  C   -0.475061
    14  H    0.149379
    15  H    0.148963
    16  H    0.151606
    17  H    0.159781
    18  H    0.154956
    19  H    0.155245
    20  H    0.160172
    21  C   -0.297580
    22  C   -0.303633
    23  C   -0.482534
    24  H    0.149908
    25  H    0.149997
    26  H    0.151606
    27  H    0.154558
    28  H    0.155782
    29  H    0.155296
    30  H    0.166765
    31  C   -0.298515
    32  C   -0.299687
    33  C   -0.475782
    34  H    0.149365
    35  H    0.149451
    36  H    0.152068
    37  H    0.152138
    38  H    0.155384
    39  H    0.155186
    40  H    0.160423
 Sum of Mulliken charges =  -0.00000

 Dipole moment (field-independent basis, Debye):
    X=              0.0397    Y=             -0.0244    Z=              0.0094  Tot=              0.0476
 Quadrupole moment (field-independent basis, Debye-Ang):
   XX=            -84.9530   YY=            -85.8212   ZZ=            -84.0627
   XY=             -1.1288   XZ=             -0.5033   YZ=              0.4538

 Normal termination of Gaussian 16 at Wed May  5 16:38:52 2021.
