 Gaussian 16, Revision A.03,
 Gaussian 16:  EM64L-G16RevA.03 25-Dec-2016

 -------------
 #p 6-31g* mp2
 -------------

 ------------------------------------------------------
 Input file generated by CHIRIPA (05-May-2021 14:57:24)
 ------------------------------------------------------
 Symbolic Z-matrix:
 Charge =  0 Multiplicity = 1

                         Standard orientation:
 ---------------------------------------------------------------------
 Center     Atomic      Atomic             Coordinates (Angstroms)
 Number     Number       Type             X           Y           Z
 ---------------------------------------------------------------------
      1          6           0        3.552115   -1.972340    1.194628
      2          6           0        4.572441   -1.039609    0.981398
      3          6           0        4.315500    0.148240    0.290352
      4          6           0        3.020916    0.372055   -0.175746
      5          6           0        1.983196   -0.537776    0.020809
      6          6           0        2.263021   -1.718894    0.714499
      7          1           0        3.760601   -2.892475    1.732477
      8          1           0        5.574514   -1.233785    1.353138
      9          1           0        5.086746    0.887510    0.111254
     10          1           0        0.994248   -0.316243   -0.361714
     11          1           0        1.468667   -2.441465    0.878627
     12          7           0        2.736791    1.626014   -0.908726
     13          8           0        1.587844    1.799582   -1.309267
     14          8           0        3.668420    2.411556   -1.068815
     15          6           0       -3.692051    1.482184    1.860952
     16          6           0       -4.482561    1.369551    0.712506
     17          6           0       -4.146191    0.460070   -0.294593
     18          6           0       -3.007387   -0.324669   -0.119656
     19          6           0       -2.199657   -0.235692    1.013016
     20          6           0       -2.555126    0.680616    2.007284
     21          1           0       -3.960770    2.191342    2.638308
     22          1           0       -5.366073    1.990775    0.596168
     23          1           0       -4.740419    0.352364   -1.193876
     24          1           0       -1.324834   -0.868489    1.100586
     25          1           0       -1.939345    0.765939    2.898114
     26          7           0       -2.641177   -1.291109   -1.179035
     27          8           0       -1.632906   -1.971041   -1.000937
     28          8           0       -3.369348   -1.350374   -2.167413
 ---------------------------------------------------------------------

 SCF Done:  E(RHF) =  -868.339086686     A.U. after   16 cycles
 E2 =    -0.2599888180D+01 EUMP2 =    -0.87093897486570D+03

 The electronic state is 1-A.
 Alpha  occ. eigenvalues --  -20.61226 -20.61153 -20.60575 -20.60565 -15.86216
 Alpha  occ. eigenvalues --  -15.85623 -11.31416 -11.30936 -11.28044 -11.27901
 Alpha  occ. eigenvalues --  -11.27629 -11.27540 -11.27426 -11.27260 -11.26957
 Alpha  occ. eigenvalues --  -11.26896 -11.26551 -11.26459  -1.60235  -1.59650
 Alpha  occ. eigenvalues --   -1.39806  -1.39203  -1.19554  -1.19114  -1.08973
 Alpha  occ. eigenvalues --   -1.08523  -1.04946  -1.04498  -0.95848  -0.95361
 Alpha  occ. eigenvalues --   -0.86358  -0.85901  -0.82698  -0.82186  -0.77796
 Alpha  occ. eigenvalues --   -0.77221  -0.72450  -0.71844  -0.71528  -0.70973
 Alpha  occ. eigenvalues --   -0.70689  -0.70211  -0.65222  -0.64967  -0.64757
 Alpha  occ. eigenvalues --   -0.64488  -0.62370  -0.61774  -0.55441  -0.55016
 Alpha  occ. eigenvalues --   -0.53251  -0.53059  -0.52841  -0.52570  -0.49222
 Alpha  occ. eigenvalues --   -0.49166  -0.48600  -0.48596  -0.45236  -0.44619
 Alpha  occ. eigenvalues --   -0.37492  -0.37112  -0.36527  -0.36103
 Alpha virt. eigenvalues --    0.04737   0.05263   0.11038   0.11555   0.16296
 Alpha virt. eigenvalues --    0.16707   0.20097   0.22062   0.25352   0.27543
 Alpha virt. eigenvalues --    0.28372   0.29137   0.30809   0.31431   0.32558

 Mulliken charges:
               1
     1  C   -0.171046
     2  C   -0.219085
     3  C   -0.171235
     4  C    0.158442
     5  C   -0.176350
     6  C   -0.224068
     7  H    0.225058
     8  H    0.222337
     9  H    0.274507
    10  H    0.282648
    11  H    0.229886
    12  N    0.487853
    13  O   -0.459943
    14  O   -0.461921
    15  C   -0.169306
    16  C   -0.217165
    17  C   -0.168965
    18  C    0.162177
    19  C   -0.171511
    20  C   -0.216540
    21  H    0.227270
    22  H    0.225290
    23  H    0.276942
    24  H    0.265894
    25  H    0.223932
    26  N    0.490687
    27  O   -0.472184
    28  O   -0.453605
 Sum of Mulliken charges =  -0.00000

 Dipole moment (field-independent basis, Debye):
    X=             -0.6035    Y=             -0.9310    Z=              6.2431  Tot=              6.3409
 Quadrupole moment (field-independent basis, Debye-Ang):
   XX=            -82.8214   YY=           -110.8266   ZZ=           -106.2487
   XY=            -23.3564   XZ=             -0.3797   YZ=             -0.3629

 Normal termination of Gaussian 16 at Thu May  6 12:59:29 2021.
