 Gaussian 16, Revision A.03,
 Gaussian 16:  EM64L-G16RevA.03 25-Dec-2016

 -------------
 #p 6-31g* mp2
 -------------

 ------------------------------------------------------
 Input file generated by CHIRIPA (05-May-2021 14:55:19)
 ------------------------------------------------------
 Symbolic Z-matrix:
 Charge =  0 Multiplicity = 1

                         Standard orientation:
 ---------------------------------------------------------------------
 Center     Atomic      Atomic             Coordinates (Angstroms)
 Number     Number       Type             X           Y           Z
 ---------------------------------------------------------------------
      1          6           0       -1.619776    1.383820    0.198295
      2          6           0       -1.884712    0.410632    1.167436
      3          6           0       -3.024180   -0.393863    1.072837
      4          6           0       -3.881098   -0.197240   -0.008976
      5          6           0       -3.644540    0.763915   -0.990563
      6          6           0       -2.498986    1.557050   -0.875718
      7          1           0       -0.732246    2.004359    0.279645
      8          1           0       -1.203669    0.273877    2.002614
      9          1           0       -3.253465   -1.154735    1.808989
     10          1           0       -4.342013    0.876821   -1.811661
     11          1           0       -2.295768    2.312059   -1.629846
     12          7           0       -5.090623   -1.042910   -0.119841
     13          8           0       -5.829887   -0.849913   -1.082586
     14          8           0       -5.276483   -1.882731    0.758108
     15          6           0        4.928029   -0.658647    0.001337
     16          6           0        6.392755   -0.867173   -0.384771
     17          6           0        6.808660   -2.338174   -0.353615
     18          1           0        4.758648   -1.067842    1.006730
     19          1           0        4.290116   -1.235571   -0.682491
     20          1           0        7.027645   -0.288927    0.298723
     21          1           0        6.558714   -0.457262   -1.389284
     22          1           0        6.199882   -2.925439   -1.048677
     23          1           0        6.671477   -2.756148    0.648921
     24          1           0        7.859345   -2.464313   -0.632918
     25          6           0        4.497261    0.806777   -0.025133
     26          6           0        3.032534    1.015303    0.360975
     27          6           0        2.616629    2.486305    0.329819
     28          1           0        5.135174    1.383700    0.658695
     29          1           0        4.666642    1.215971   -1.030526
     30          1           0        2.866575    0.605392    1.365488
     31          1           0        2.397644    0.437056   -0.322519
     32          1           0        2.753811    2.904278   -0.672717
     33          1           0        3.225407    3.073570    1.024880
     34          1           0        1.565944    2.612443    0.609121
 ---------------------------------------------------------------------

 SCF Done:  E(RHF) =  -669.535516524     A.U. after   15 cycles
 E2 =    -0.2090806186D+01 EUMP2 =    -0.67162632271033D+03

 The electronic state is 1-A.
 Alpha  occ. eigenvalues --  -20.60737 -20.60732 -15.85790 -11.31151 -11.27721
 Alpha  occ. eigenvalues --  -11.27717 -11.27440 -11.26733 -11.26722 -11.22562
 Alpha  occ. eigenvalues --  -11.22279 -11.22117 -11.22065 -11.21942 -11.21444
 Alpha  occ. eigenvalues --   -1.59813  -1.39366  -1.19322  -1.09126  -1.08717
 Alpha  occ. eigenvalues --   -1.04726  -1.04263  -0.96721  -0.95553  -0.87737
 Alpha  occ. eigenvalues --   -0.86121  -0.82388  -0.80333  -0.78893  -0.77435
 Alpha  occ. eigenvalues --   -0.72008  -0.71136  -0.70453  -0.65747  -0.64974
 Alpha  occ. eigenvalues --   -0.64732  -0.62074  -0.61645  -0.60177  -0.58338
 Alpha  occ. eigenvalues --   -0.55986  -0.55252  -0.53410  -0.53117  -0.53050
 Alpha  occ. eigenvalues --   -0.52816  -0.50638  -0.48771  -0.48764  -0.48641
 Alpha  occ. eigenvalues --   -0.47349  -0.46445  -0.46337  -0.44773  -0.44510
 Alpha  occ. eigenvalues --   -0.37298  -0.36332
 Alpha virt. eigenvalues --    0.05096   0.11321   0.16569   0.19443   0.22469
 Alpha virt. eigenvalues --    0.23800   0.25895   0.26001   0.26754   0.27422
 Alpha virt. eigenvalues --    0.28633   0.30276   0.30739   0.31439   0.32355

 Mulliken charges:
               1
     1  C   -0.176888
     2  C   -0.221359
     3  C   -0.170886
     4  C    0.158281
     5  C   -0.170733
     6  C   -0.221094
     7  H    0.236489
     8  H    0.223567
     9  H    0.275496
    10  H    0.275412
    11  H    0.223982
    12  N    0.487990
    13  O   -0.460542
    14  O   -0.460533
    15  C   -0.298951
    16  C   -0.300212
    17  C   -0.476126
    18  H    0.150059
    19  H    0.150832
    20  H    0.152518
    21  H    0.152674
    22  H    0.156113
    23  H    0.155684
    24  H    0.161707
    25  C   -0.298806
    26  C   -0.301309
    27  C   -0.479185
    28  H    0.151176
    29  H    0.151206
    30  H    0.151184
    31  H    0.153372
    32  H    0.158695
    33  H    0.160972
    34  H    0.149215
 Sum of Mulliken charges =  -0.00000

 Dipole moment (field-independent basis, Debye):
    X=              4.4977    Y=              2.9492    Z=              0.3618  Tot=              5.3906
 Quadrupole moment (field-independent basis, Debye-Ang):
   XX=           -127.4992   YY=            -96.4354   ZZ=            -90.4631
   XY=            -12.6571   XZ=             -0.0764   YZ=             -2.4204

 Normal termination of Gaussian 16 at Wed May  5 22:06:25 2021.
