 Gaussian 16, Revision A.03,
 Gaussian 16:  EM64L-G16RevA.03 25-Dec-2016

 -------------
 #p 6-31g* mp2
 -------------

 ------------------------------------------------------
 Input file generated by CHIRIPA (05-May-2021 14:57:25)
 ------------------------------------------------------
 Symbolic Z-matrix:
 Charge =  0 Multiplicity = 1

                         Standard orientation:
 ---------------------------------------------------------------------
 Center     Atomic      Atomic             Coordinates (Angstroms)
 Number     Number       Type             X           Y           Z
 ---------------------------------------------------------------------
      1          6           0       -2.010549   -1.783632    0.624084
      2          6           0       -3.286632   -2.248702    0.289654
      3          6           0       -4.308670   -1.349936   -0.030044
      4          6           0       -4.018358    0.013293   -0.005244
      5          6           0       -2.757158    0.507608    0.323872
      6          6           0       -1.750344   -0.409384    0.640097
      7          1           0       -1.222519   -2.488894    0.871084
      8          1           0       -3.491584   -3.315409    0.276399
      9          1           0       -5.305564   -1.682665   -0.292554
     10          1           0       -2.583125    1.576771    0.328463
     11          1           0       -0.760264   -0.045341    0.899442
     12          7           0       -5.092286    0.974424   -0.341856
     13          8           0       -4.810963    2.170520   -0.312729
     14          8           0       -6.195018    0.513463   -0.628446
     15          6           0        3.664744    2.643138    0.257334
     16          6           0        4.892703    2.064470   -0.079977
     17          6           0        5.002248    0.681485   -0.252893
     18          6           0        3.858437   -0.096387   -0.079968
     19          6           0        2.620965    0.450455    0.256062
     20          6           0        2.534786    1.835708    0.423984
     21          1           0        3.588723    3.718355    0.389720
     22          1           0        5.771909    2.689072   -0.210036
     23          1           0        5.940517    0.207293   -0.514065
     24          1           0        1.762076   -0.198094    0.378997
     25          1           0        1.579839    2.282363    0.685940
     26          7           0        3.962039   -1.561691   -0.260383
     27          8           0        2.939525   -2.225118   -0.102368
     28          8           0        5.063793   -2.019024   -0.556391
 ---------------------------------------------------------------------

 SCF Done:  E(RHF) =  -868.337530247     A.U. after   16 cycles
 E2 =    -0.2599401514D+01 EUMP2 =    -0.87093693176089D+03

 The electronic state is 1-A.
 Alpha  occ. eigenvalues --  -20.61515 -20.61481 -20.60939 -20.60925 -15.86554
 Alpha  occ. eigenvalues --  -15.85993 -11.31903 -11.31352 -11.28575 -11.28405
 Alpha  occ. eigenvalues --  -11.28148 -11.28024 -11.27904 -11.27606 -11.27520
 Alpha  occ. eigenvalues --  -11.27399 -11.27067 -11.26848  -1.60569  -1.60011
 Alpha  occ. eigenvalues --   -1.40127  -1.39565  -1.20061  -1.19534  -1.09443
 Alpha  occ. eigenvalues --   -1.08907  -1.05481  -1.04963  -0.96293  -0.95741
 Alpha  occ. eigenvalues --   -0.86869  -0.86352  -0.83142  -0.82595  -0.78211
 Alpha  occ. eigenvalues --   -0.77659  -0.72777  -0.72210  -0.71885  -0.71334
 Alpha  occ. eigenvalues --   -0.71170  -0.70580  -0.65724  -0.65503  -0.65187
 Alpha  occ. eigenvalues --   -0.64996  -0.62888  -0.62279  -0.55938  -0.55367
 Alpha  occ. eigenvalues --   -0.53778  -0.53599  -0.53255  -0.53047  -0.49541
 Alpha  occ. eigenvalues --   -0.49515  -0.48969  -0.48963  -0.45537  -0.44973
 Alpha  occ. eigenvalues --   -0.38002  -0.37466  -0.37072  -0.36569
 Alpha virt. eigenvalues --    0.04360   0.04917   0.10590   0.11058   0.15872
 Alpha virt. eigenvalues --    0.16403   0.17843   0.22165   0.24622   0.26727
 Alpha virt. eigenvalues --    0.28004   0.29338   0.30402   0.31187   0.32048

 Mulliken charges:
               1
     1  C   -0.170564
     2  C   -0.218865
     3  C   -0.169889
     4  C    0.158465
     5  C   -0.170888
     6  C   -0.220308
     7  H    0.235812
     8  H    0.226587
     9  H    0.276679
    10  H    0.271706
    11  H    0.214645
    12  N    0.488247
    13  O   -0.462178
    14  O   -0.459168
    15  C   -0.169906
    16  C   -0.218183
    17  C   -0.169526
    18  C    0.160994
    19  C   -0.175412
    20  C   -0.217963
    21  H    0.229057
    22  H    0.226558
    23  H    0.277684
    24  H    0.269847
    25  H    0.220076
    26  N    0.488596
    27  O   -0.465581
    28  O   -0.456523
 Sum of Mulliken charges =  -0.00000

 Dipole moment (field-independent basis, Debye):
    X=              3.5753    Y=              1.6991    Z=              1.7703  Tot=              4.3363
 Quadrupole moment (field-independent basis, Debye-Ang):
   XX=           -130.0755   YY=           -103.1742   ZZ=           -106.3603
   XY=             38.0248   XZ=             -3.0651   YZ=              0.0224

 Normal termination of Gaussian 16 at Wed May  5 22:46:14 2021.
