 Gaussian 16, Revision A.03,
 Gaussian 16:  EM64L-G16RevA.03 25-Dec-2016

 -------------
 #p 6-31g* mp2
 -------------

 ------------------------------------------------------
 Input file generated by CHIRIPA (05-May-2021 14:55:19)
 ------------------------------------------------------
 Symbolic Z-matrix:
 Charge =  0 Multiplicity = 1

                         Standard orientation:
 ---------------------------------------------------------------------
 Center     Atomic      Atomic             Coordinates (Angstroms)
 Number     Number       Type             X           Y           Z
 ---------------------------------------------------------------------
      1          6           0        1.208164    0.293869    0.463499
      2          6           0        1.774171   -0.922350    0.859691
      3          6           0        3.126859   -1.185993    0.624587
      4          6           0        3.887675   -0.206576   -0.011960
      5          6           0        3.352797    1.014834   -0.418596
      6          6           0        1.997891    1.256882   -0.173257
      7          1           0        0.156502    0.490286    0.650109
      8          1           0        1.163263   -1.672083    1.354401
      9          1           0        3.590674   -2.119025    0.920805
     10          1           0        3.987127    1.742769   -0.909671
     11          1           0        1.561010    2.202307   -0.482045
     12          7           0        5.320880   -0.474252   -0.266271
     13          8           0        5.969760    0.405024   -0.828824
     14          8           0        5.768208   -1.558264    0.101767
     15          6           0       -4.317740    0.777894    0.324649
     16          6           0       -2.915629    1.059132   -0.216619
     17          6           0       -2.215941    2.201962    0.519705
     18          1           0       -4.923651    1.691053    0.247461
     19          1           0       -4.248819    0.538032    1.394748
     20          1           0       -2.987025    1.297039   -1.285693
     21          1           0       -2.313042    0.145144   -0.138310
     22          1           0       -2.115369    1.969542    1.584818
     23          1           0       -2.793180    3.127982    0.430917
     24          1           0       -1.215178    2.386051    0.116661
     25          6           0       -5.030012   -0.361997   -0.401331
     26          6           0       -6.432125   -0.643234    0.139937
     27          6           0       -7.131811   -1.786065   -0.596385
     28          1           0       -5.098933   -0.122134   -1.471429
     29          1           0       -4.424102   -1.275156   -0.324143
     30          1           0       -7.034710    0.270753    0.061629
     31          1           0       -6.360729   -0.881141    1.209011
     32          1           0       -6.554572   -2.712084   -0.507598
     33          1           0       -7.232383   -1.553644   -1.661500
     34          1           0       -8.132575   -1.970155   -0.193343
 ---------------------------------------------------------------------

 SCF Done:  E(RHF) =  -669.535049155     A.U. after   15 cycles
 E2 =    -0.2091686869D+01 EUMP2 =    -0.67162673602310D+03

 The electronic state is 1-A.
 Alpha  occ. eigenvalues --  -20.60708 -20.60703 -15.85763 -11.31111 -11.27691
 Alpha  occ. eigenvalues --  -11.27686 -11.27345 -11.26690 -11.26678 -11.22858
 Alpha  occ. eigenvalues --  -11.22517 -11.22348 -11.22235 -11.22139 -11.21592
 Alpha  occ. eigenvalues --   -1.59785  -1.39339  -1.19283  -1.09357  -1.08675
 Alpha  occ. eigenvalues --   -1.04691  -1.04491  -0.96948  -0.95510  -0.87956
 Alpha  occ. eigenvalues --   -0.86087  -0.82353  -0.80561  -0.79102  -0.77407
 Alpha  occ. eigenvalues --   -0.71981  -0.71108  -0.70434  -0.65984  -0.64938
 Alpha  occ. eigenvalues --   -0.64722  -0.62054  -0.61890  -0.60369  -0.58539
 Alpha  occ. eigenvalues --   -0.56283  -0.55051  -0.53630  -0.53330  -0.53015
 Alpha  occ. eigenvalues --   -0.52777  -0.50865  -0.48872  -0.48737  -0.48735
 Alpha  occ. eigenvalues --   -0.47594  -0.46652  -0.46542  -0.44748  -0.44722
 Alpha  occ. eigenvalues --   -0.37248  -0.36301
 Alpha virt. eigenvalues --    0.05130   0.11353   0.16595   0.19300   0.22398
 Alpha virt. eigenvalues --    0.23989   0.24834   0.25855   0.26565   0.26936
 Alpha virt. eigenvalues --    0.29124   0.29881   0.30650   0.31483   0.31716

 Mulliken charges:
               1
     1  C   -0.178235
     2  C   -0.221329
     3  C   -0.170517
     4  C    0.157980
     5  C   -0.170588
     6  C   -0.223846
     7  H    0.242115
     8  H    0.222895
     9  H    0.275218
    10  H    0.275366
    11  H    0.223628
    12  N    0.488028
    13  O   -0.460667
    14  O   -0.460676
    15  C   -0.298612
    16  C   -0.303761
    17  C   -0.485013
    18  H    0.153031
    19  H    0.150135
    20  H    0.157585
    21  H    0.147065
    22  H    0.157038
    23  H    0.165518
    24  H    0.152385
    25  C   -0.298872
    26  C   -0.300362
    27  C   -0.476175
    28  H    0.151548
    29  H    0.149324
    30  H    0.153295
    31  H    0.152403
    32  H    0.155581
    33  H    0.156306
    34  H    0.162208
 Sum of Mulliken charges =  -0.00000

 Dipole moment (field-independent basis, Debye):
    X=             -5.3776    Y=              0.9777    Z=              0.8782  Tot=              5.5358
 Quadrupole moment (field-independent basis, Debye-Ang):
   XX=           -133.7725   YY=            -91.2684   ZZ=            -94.3149
   XY=              4.2742   XZ=              3.3933   YZ=             -3.2492

 Normal termination of Gaussian 16 at Thu May  6 14:03:15 2021.
