 Gaussian 16, Revision A.03,
 Gaussian 16:  EM64L-G16RevA.03 25-Dec-2016

 -------------
 #p 6-31g* mp2
 -------------

 ------------------------------------------------------
 Input file generated by CHIRIPA (05-May-2021 14:57:21)
 ------------------------------------------------------
 Symbolic Z-matrix:
 Charge =  0 Multiplicity = 1

                         Standard orientation:
 ---------------------------------------------------------------------
 Center     Atomic      Atomic             Coordinates (Angstroms)
 Number     Number       Type             X           Y           Z
 ---------------------------------------------------------------------
      1          6           0       -5.683921   -1.932274   -0.305400
      2          6           0       -4.365266   -1.976413   -0.769859
      3          6           0       -3.535195   -0.857048   -0.657822
      4          6           0       -4.058797    0.295153   -0.073389
      5          6           0       -5.368237    0.370269    0.398854
      6          6           0       -6.180323   -0.761138    0.276448
      7          1           0       -6.321754   -2.806501   -0.396461
      8          1           0       -3.977069   -2.884580   -1.222167
      9          1           0       -2.510482   -0.863744   -1.009016
     10          1           0       -5.726925    1.289832    0.845133
     11          1           0       -7.204003   -0.723979    0.638031
     12          7           0       -3.189558    1.486549    0.050708
     13          8           0       -3.674733    2.489603    0.569481
     14          8           0       -2.039533    1.394752   -0.373146
     15          6           0        1.731459    0.109870    0.561305
     16          6           0        2.445555   -0.989933    1.048152
     17          6           0        3.814761   -1.115877    0.795247
     18          6           0        4.440906   -0.118970    0.048649
     19          6           0        3.756881    0.988594   -0.450051
     20          6           0        2.388243    1.093889   -0.184927
     21          1           0        0.668048    0.199686    0.762514
     22          1           0        1.938099   -1.755662    1.627974
     23          1           0        4.391808   -1.956894    1.160111
     24          1           0        4.290247    1.735825   -1.025017
     25          1           0        1.836205    1.949102   -0.564280
     26          7           0        5.890123   -0.241372   -0.225559
     27          8           0        6.418533    0.650485   -0.885870
     28          8           0        6.470166   -1.226847    0.225022
 ---------------------------------------------------------------------

 SCF Done:  E(RHF) =  -868.339997814     A.U. after   16 cycles
 E2 =    -0.2598287982D+01 EUMP2 =    -0.87093828579670D+03

 The electronic state is 1-A.
 Alpha  occ. eigenvalues --  -20.61911 -20.61828 -20.60285 -20.60276 -15.86901
 Alpha  occ. eigenvalues --  -15.85332 -11.32025 -11.30555 -11.28587 -11.28536
 Alpha  occ. eigenvalues --  -11.28237 -11.27521 -11.27493 -11.27155 -11.27068
 Alpha  occ. eigenvalues --  -11.26667 -11.26118 -11.25931  -1.60929  -1.59362
 Alpha  occ. eigenvalues --   -1.40493  -1.38920  -1.20170  -1.18699  -1.09604
 Alpha  occ. eigenvalues --   -1.08089  -1.05536  -1.04084  -0.96482  -0.94953
 Alpha  occ. eigenvalues --   -0.86944  -0.85465  -0.83325  -0.81798  -0.78404
 Alpha  occ. eigenvalues --   -0.76892  -0.73135  -0.72234  -0.71551  -0.71268
 Alpha  occ. eigenvalues --   -0.70686  -0.69714  -0.65824  -0.65528  -0.64332
 Alpha  occ. eigenvalues --   -0.64054  -0.62887  -0.61433  -0.56030  -0.54469
 Alpha  occ. eigenvalues --   -0.53877  -0.53620  -0.52426  -0.52150  -0.49897
 Alpha  occ. eigenvalues --   -0.49851  -0.48316  -0.48294  -0.45943  -0.44358
 Alpha  occ. eigenvalues --   -0.38128  -0.37130  -0.36638  -0.35706
 Alpha virt. eigenvalues --    0.04080   0.05637   0.10526   0.11959   0.15604
 Alpha virt. eigenvalues --    0.17176   0.20601   0.22237   0.26502   0.27262
 Alpha virt. eigenvalues --    0.28059   0.29030   0.30454   0.31328   0.33019

 Mulliken charges:
               1
     1  C   -0.169891
     2  C   -0.218384
     3  C   -0.172420
     4  C    0.157894
     5  C   -0.170402
     6  C   -0.218340
     7  H    0.228501
     8  H    0.225664
     9  H    0.272961
    10  H    0.277130
    11  H    0.226205
    12  N    0.490013
    13  O   -0.454340
    14  O   -0.471887
    15  C   -0.176566
    16  C   -0.220322
    17  C   -0.172081
    18  C    0.157540
    19  C   -0.172375
    20  C   -0.220898
    21  H    0.239172
    22  H    0.218737
    23  H    0.272457
    24  H    0.274271
    25  H    0.233624
    26  N    0.488208
    27  O   -0.461476
    28  O   -0.462997
 Sum of Mulliken charges =  -0.00000

 Dipole moment (field-independent basis, Debye):
    X=             -8.7268    Y=             -3.6709    Z=              0.5137  Tot=              9.4814
 Quadrupole moment (field-independent basis, Debye-Ang):
   XX=           -123.0453   YY=           -102.8392   ZZ=           -103.8342
   XY=             17.1329   XZ=              4.0618   YZ=             -1.0288

 Normal termination of Gaussian 16 at Thu May  6 12:47:17 2021.
