 Gaussian 16, Revision A.03,
 Gaussian 16:  EM64L-G16RevA.03 25-Dec-2016

 -------------
 #p 6-31g* mp2
 -------------

 ------------------------------------------------------
 Input file generated by CHIRIPA (05-May-2021 14:57:23)
 ------------------------------------------------------
 Symbolic Z-matrix:
 Charge =  0 Multiplicity = 1

                         Standard orientation:
 ---------------------------------------------------------------------
 Center     Atomic      Atomic             Coordinates (Angstroms)
 Number     Number       Type             X           Y           Z
 ---------------------------------------------------------------------
      1          6           0        1.979673    0.660688    1.262746
      2          6           0        2.436476    1.441381    0.195802
      3          6           0        3.643140    1.136866   -0.441209
      4          6           0        4.370873    0.039584    0.016682
      5          6           0        3.942327   -0.757360    1.077115
      6          6           0        2.732728   -0.434260    1.699228
      7          1           0        1.041167    0.904461    1.751805
      8          1           0        1.853729    2.292320   -0.145304
      9          1           0        4.020234    1.724381   -1.269488
     10          1           0        4.545219   -1.599422    1.394718
     11          1           0        2.380427   -1.042324    2.527592
     12          7           0        5.649868   -0.292630   -0.649808
     13          8           0        6.272444   -1.264569   -0.227470
     14          8           0        6.005548    0.425211   -1.581920
     15          6           0       -1.639398   -0.133536   -0.023803
     16          6           0       -2.348668   -1.315058   -0.263518
     17          6           0       -3.745439   -1.305154   -0.322529
     18          6           0       -4.403770   -0.090547   -0.136458
     19          6           0       -3.725371    1.103272    0.104088
     20          6           0       -2.328798    1.069737    0.158913
     21          1           0       -0.554430   -0.150408    0.020413
     22          1           0       -1.815911   -2.250992   -0.405790
     23          1           0       -4.319472   -2.205165   -0.506599
     24          1           0       -4.284260    2.020902    0.241988
     25          1           0       -1.780584    1.988860    0.345238
     26          7           0       -5.882364   -0.067553   -0.196715
     27          8           0       -6.438875    1.015481   -0.029473
     28          8           0       -6.456777   -1.133000   -0.410045
 ---------------------------------------------------------------------

 SCF Done:  E(RHF) =  -868.336814855     A.U. after   16 cycles
 E2 =    -0.2600690722D+01 EUMP2 =    -0.87093750557658D+03

 The electronic state is 1-A.
 Alpha  occ. eigenvalues --  -20.61542 -20.61537 -20.61237 -20.61230 -15.86601
 Alpha  occ. eigenvalues --  -15.86296 -11.32195 -11.31777 -11.28761 -11.28739
 Alpha  occ. eigenvalues --  -11.28620 -11.28397 -11.28338 -11.28109 -11.27913
 Alpha  occ. eigenvalues --  -11.27847 -11.27498 -11.27364  -1.60612  -1.60310
 Alpha  occ. eigenvalues --   -1.40158  -1.39860  -1.20396  -1.19972  -1.09784
 Alpha  occ. eigenvalues --   -1.09350  -1.05808  -1.05396  -0.96577  -0.96153
 Alpha  occ. eigenvalues --   -0.87210  -0.86797  -0.83381  -0.82986  -0.78359
 Alpha  occ. eigenvalues --   -0.78016  -0.72814  -0.72511  -0.71937  -0.71716
 Alpha  occ. eigenvalues --   -0.71635  -0.70931  -0.66047  -0.65822  -0.65624
 Alpha  occ. eigenvalues --   -0.65412  -0.63128  -0.62740  -0.56520  -0.55824
 Alpha  occ. eigenvalues --   -0.54078  -0.53895  -0.53713  -0.53496  -0.49592
 Alpha  occ. eigenvalues --   -0.49555  -0.49281  -0.49258  -0.45512  -0.45239
 Alpha  occ. eigenvalues --   -0.38433  -0.37971  -0.37403  -0.37001
 Alpha virt. eigenvalues --    0.04084   0.04529   0.10196   0.10610   0.15368
 Alpha virt. eigenvalues --    0.15981   0.18861   0.21843   0.25201   0.26635
 Alpha virt. eigenvalues --    0.27456   0.29314   0.29888   0.30550   0.31489

 Mulliken charges:
               1
     1  C   -0.182183
     2  C   -0.220206
     3  C   -0.169443
     4  C    0.160104
     5  C   -0.170317
     6  C   -0.220023
     7  H    0.226074
     8  H    0.223247
     9  H    0.279100
    10  H    0.278977
    11  H    0.227227
    12  N    0.487802
    13  O   -0.457614
    14  O   -0.457579
    15  C   -0.179133
    16  C   -0.220290
    17  C   -0.169735
    18  C    0.158671
    19  C   -0.169538
    20  C   -0.222201
    21  H    0.230189
    22  H    0.226105
    23  H    0.277686
    24  H    0.276815
    25  H    0.216315
    26  N    0.487975
    27  O   -0.459434
    28  O   -0.458590
 Sum of Mulliken charges =  -0.00000

 Dipole moment (field-independent basis, Debye):
    X=              0.9059    Y=              0.9731    Z=              2.5131  Tot=              2.8431
 Quadrupole moment (field-independent basis, Debye-Ang):
   XX=           -189.2922   YY=            -97.0292   ZZ=           -103.9213
   XY=              4.4402   XZ=              9.0949   YZ=             -1.7847

 Normal termination of Gaussian 16 at Wed May  5 22:38:25 2021.
