 Gaussian 16, Revision A.03,
 Gaussian 16:  EM64L-G16RevA.03 25-Dec-2016

 -------------
 #p 6-31g* mp2
 -------------

 ------------------------------------------------------
 Input file generated by CHIRIPA (05-May-2021 14:57:25)
 ------------------------------------------------------
 Symbolic Z-matrix:
 Charge =  0 Multiplicity = 1

                         Standard orientation:
 ---------------------------------------------------------------------
 Center     Atomic      Atomic             Coordinates (Angstroms)
 Number     Number       Type             X           Y           Z
 ---------------------------------------------------------------------
      1          6           0       -1.764149    2.352052   -0.023964
      2          6           0       -1.750670    1.654500   -1.236301
      3          6           0       -2.471860    0.465392   -1.379320
      4          6           0       -3.198953    0.000517   -0.284552
      5          6           0       -3.232237    0.672741    0.936225
      6          6           0       -2.503586    1.859815    1.056525
      7          1           0       -1.201013    3.274990    0.078312
      8          1           0       -1.177304    2.034415   -2.077110
      9          1           0       -2.478945   -0.094717   -2.306491
     10          1           0       -3.813179    0.269120    1.756600
     11          1           0       -2.515890    2.399438    1.999234
     12          7           0       -3.966394   -1.257262   -0.423933
     13          8           0       -4.599043   -1.645792    0.555575
     14          8           0       -3.920734   -1.830762   -1.510050
     15          6           0        0.926766   -0.223108    1.588851
     16          6           0        1.354661    0.952621    0.963480
     17          6           0        2.541905    0.972703    0.225511
     18          6           0        3.279908   -0.206335    0.133264
     19          6           0        2.880035   -1.393484    0.744876
     20          6           0        1.689474   -1.390350    1.477749
     21          1           0        0.003198   -0.229691    2.160143
     22          1           0        0.764358    1.860605    1.048057
     23          1           0        2.896506    1.869023   -0.268744
     24          1           0        3.489823   -2.282930    0.642586
     25          1           0        1.359611   -2.304892    1.962360
     26          7           0        4.538545   -0.197364   -0.645293
     27          8           0        5.170706   -1.249334   -0.711385
     28          8           0        4.869071    0.861468   -1.174693
 ---------------------------------------------------------------------

 SCF Done:  E(RHF) =  -868.336241056     A.U. after   16 cycles
 E2 =    -0.2602625682D+01 EUMP2 =    -0.87093886673865D+03

 The electronic state is 1-A.
 Alpha  occ. eigenvalues --  -20.61551 -20.61533 -20.61017 -20.61002 -15.86603
 Alpha  occ. eigenvalues --  -15.86066 -11.32147 -11.31437 -11.28780 -11.28661
 Alpha  occ. eigenvalues --  -11.28539 -11.28038 -11.27957 -11.27855 -11.27711
 Alpha  occ. eigenvalues --  -11.27688 -11.27024 -11.26960  -1.60618  -1.60088
 Alpha  occ. eigenvalues --   -1.40165  -1.39642  -1.20351  -1.19600  -1.09739
 Alpha  occ. eigenvalues --   -1.08980  -1.05756  -1.05016  -0.96533  -0.95822
 Alpha  occ. eigenvalues --   -0.87151  -0.86411  -0.83343  -0.82663  -0.78335
 Alpha  occ. eigenvalues --   -0.77730  -0.72814  -0.72283  -0.71948  -0.71504
 Alpha  occ. eigenvalues --   -0.71413  -0.70694  -0.65995  -0.65745  -0.65250
 Alpha  occ. eigenvalues --   -0.65053  -0.63073  -0.62398  -0.56321  -0.55480
 Alpha  occ. eigenvalues --   -0.54249  -0.53829  -0.53262  -0.52998  -0.49589
 Alpha  occ. eigenvalues --   -0.49560  -0.49045  -0.49036  -0.45531  -0.45047
 Alpha  occ. eigenvalues --   -0.38461  -0.37512  -0.37377  -0.36488
 Alpha virt. eigenvalues --    0.04115   0.04826   0.10152   0.11101   0.15482
 Alpha virt. eigenvalues --    0.16341   0.19581   0.21811   0.25760   0.26326
 Alpha virt. eigenvalues --    0.28097   0.28434   0.29760   0.31568   0.31781

 Mulliken charges:
               1
     1  C   -0.180006
     2  C   -0.212629
     3  C   -0.168479
     4  C    0.159744
     5  C   -0.175233
     6  C   -0.224467
     7  H    0.225225
     8  H    0.228809
     9  H    0.280233
    10  H    0.277308
    11  H    0.224907
    12  N    0.487641
    13  O   -0.459858
    14  O   -0.456316
    15  C   -0.171331
    16  C   -0.211851
    17  C   -0.175232
    18  C    0.158913
    19  C   -0.170811
    20  C   -0.218380
    21  H    0.225554
    22  H    0.213874
    23  H    0.271763
    24  H    0.276933
    25  H    0.226464
    26  N    0.488046
    27  O   -0.458726
    28  O   -0.462095
 Sum of Mulliken charges =  -0.00000

 Dipole moment (field-independent basis, Debye):
    X=             -1.9448    Y=              4.2231    Z=              3.0590  Tot=              5.5655
 Quadrupole moment (field-independent basis, Debye-Ang):
   XX=           -151.8503   YY=           -100.8184   ZZ=           -100.2831
   XY=            -14.5092   XZ=              4.9296   YZ=             -2.8107

 Normal termination of Gaussian 16 at Fri May  7 04:59:47 2021.
