 Gaussian 16, Revision A.03,
 Gaussian 16:  EM64L-G16RevA.03 25-Dec-2016

 -------------
 #p 6-31g* mp2
 -------------

 ------------------------------------------------------
 Input file generated by CHIRIPA (05-May-2021 14:57:23)
 ------------------------------------------------------
 Symbolic Z-matrix:
 Charge =  0 Multiplicity = 1

                         Standard orientation:
 ---------------------------------------------------------------------
 Center     Atomic      Atomic             Coordinates (Angstroms)
 Number     Number       Type             X           Y           Z
 ---------------------------------------------------------------------
      1          6           0        2.268185    1.146317    1.076108
      2          6           0        3.414523    1.932950    0.922363
      3          6           0        4.577625    1.391864    0.366513
      4          6           0        4.559144    0.054525   -0.026518
      5          6           0        3.432856   -0.754871    0.113634
      6          6           0        2.280987   -0.192722    0.671965
      7          1           0        1.369022    1.574827    1.508869
      8          1           0        3.407470    2.973163    1.235335
      9          1           0        5.479056    1.978212    0.235992
     10          1           0        3.470329   -1.788668   -0.207735
     11          1           0        1.392190   -0.806004    0.790160
     12          7           0        5.784522   -0.529447   -0.616285
     13          8           0        5.742540   -1.710295   -0.954623
     14          8           0        6.763753    0.204740   -0.729038
     15          6           0       -2.074565   -1.089383    0.453310
     16          6           0       -3.223706   -1.796983    0.821136
     17          6           0       -4.493586   -1.286505    0.535885
     18          6           0       -4.577863   -0.060029   -0.121341
     19          6           0       -3.451655    0.668696   -0.500690
     20          6           0       -2.192001    0.139034   -0.205269
     21          1           0       -1.092064   -1.493385    0.678851
     22          1           0       -3.135531   -2.751225    1.332695
     23          1           0       -5.399721   -1.813372    0.809283
     24          1           0       -3.571446    1.617422   -1.009598
     25          1           0       -1.301293    0.690760   -0.492118
     26          7           0       -5.916815    0.490546   -0.428708
     27          8           0       -5.964138    1.573190   -1.008602
     28          8           0       -6.893609   -0.170983   -0.083906
 ---------------------------------------------------------------------

 SCF Done:  E(RHF) =  -868.336475643     A.U. after   16 cycles
 E2 =    -0.2599841925D+01 EUMP2 =    -0.87093631756770D+03

 The electronic state is 1-A.
 Alpha  occ. eigenvalues --  -20.61386 -20.61377 -20.61305 -20.61298 -15.86446
 Alpha  occ. eigenvalues --  -15.86362 -11.31970 -11.31875 -11.28620 -11.28531
 Alpha  occ. eigenvalues --  -11.28466 -11.28431 -11.28396 -11.28358 -11.27774
 Alpha  occ. eigenvalues --  -11.27580 -11.27564 -11.27513  -1.60457  -1.60376
 Alpha  occ. eigenvalues --   -1.40006  -1.39925  -1.20178  -1.20073  -1.09555
 Alpha  occ. eigenvalues --   -1.09467  -1.05615  -1.05490  -0.96352  -0.96274
 Alpha  occ. eigenvalues --   -0.87024  -0.86891  -0.83193  -0.83087  -0.78204
 Alpha  occ. eigenvalues --   -0.78088  -0.72662  -0.72579  -0.71782  -0.71700
 Alpha  occ. eigenvalues --   -0.71315  -0.71249  -0.65846  -0.65771  -0.65685
 Alpha  occ. eigenvalues --   -0.65440  -0.62970  -0.62817  -0.56225  -0.56009
 Alpha  occ. eigenvalues --   -0.53926  -0.53820  -0.53707  -0.53587  -0.49434
 Alpha  occ. eigenvalues --   -0.49405  -0.49350  -0.49323  -0.45376  -0.45297
 Alpha  occ. eigenvalues --   -0.38181  -0.38101  -0.37213  -0.37083
 Alpha virt. eigenvalues --    0.04353   0.04436   0.10375   0.10543   0.15788
 Alpha virt. eigenvalues --    0.15874   0.17279   0.22093   0.24270   0.25780
 Alpha virt. eigenvalues --    0.27720   0.28721   0.29746   0.31372   0.32224

 Mulliken charges:
               1
     1  C   -0.174714
     2  C   -0.218011
     3  C   -0.169407
     4  C    0.159402
     5  C   -0.170675
     6  C   -0.223062
     7  H    0.226004
     8  H    0.226737
     9  H    0.278585
    10  H    0.277133
    11  H    0.217700
    12  N    0.488007
    13  O   -0.459156
    14  O   -0.457917
    15  C   -0.174467
    16  C   -0.218133
    17  C   -0.169884
    18  C    0.159374
    19  C   -0.169915
    20  C   -0.222097
    21  H    0.220936
    22  H    0.226066
    23  H    0.278082
    24  H    0.277415
    25  H    0.221374
    26  N    0.487880
    27  O   -0.458964
    28  O   -0.458294
 Sum of Mulliken charges =  -0.00000

 Dipole moment (field-independent basis, Debye):
    X=              0.4286    Y=              0.1931    Z=              3.1283  Tot=              3.1635
 Quadrupole moment (field-independent basis, Debye-Ang):
   XX=           -184.0990   YY=            -97.4132   ZZ=           -105.7745
   XY=             22.5220   XZ=              3.3021   YZ=             -1.1702

 Normal termination of Gaussian 16 at Thu May  6 22:43:46 2021.
