 Gaussian 16, Revision A.03,
 Gaussian 16:  EM64L-G16RevA.03 25-Dec-2016

 -------------
 #p 6-31g* mp2
 -------------

 ------------------------------------------------------
 Input file generated by CHIRIPA (05-May-2021 14:51:07)
 ------------------------------------------------------
 Symbolic Z-matrix:
 Charge =  0 Multiplicity = 1

                         Standard orientation:
 ---------------------------------------------------------------------
 Center     Atomic      Atomic             Coordinates (Angstroms)
 Number     Number       Type             X           Y           Z
 ---------------------------------------------------------------------
      1          6           0        3.839003    0.384387    0.333554
      2          6           0        4.008283    1.197824   -0.950054
      3          6           0        5.288877    2.033190   -0.955977
      4          1           0        3.837557    1.066430    1.194810
      5          1           0        4.708801   -0.275295    0.458719
      6          1           0        3.137767    1.854775   -1.073480
      7          1           0        4.009133    0.513782   -1.808368
      8          1           0        6.169086    1.389655   -0.857512
      9          1           0        5.292768    2.738267   -0.118448
     10          1           0        5.389840    2.606654   -1.882694
     11          6           0        2.563408   -0.455940    0.354457
     12          6           0        2.394129   -1.269377    1.638065
     13          6           0        1.113534   -2.104743    1.643988
     14          1           0        1.693611    0.203743    0.229293
     15          1           0        2.564854   -1.137983   -0.506798
     16          1           0        2.393278   -0.585335    2.496379
     17          1           0        3.264644   -1.926328    1.761491
     18          1           0        1.109643   -2.809820    0.806460
     19          1           0        0.233325   -1.461208    1.545523
     20          1           0        1.012571   -2.678207    2.570706
     21          6           0       -3.189067    0.771458   -0.138927
     22          6           0       -4.519731    1.264169    0.430769
     23          6           0       -4.479672    2.737801    0.836475
     24          1           0       -2.398065    0.926351    0.607578
     25          1           0       -2.921326    1.385397   -1.010012
     26          1           0       -4.785568    0.648595    1.299686
     27          1           0       -5.307692    1.107909   -0.317107
     28          1           0       -4.238880    3.368289   -0.025560
     29          1           0       -3.713790    2.906366    1.600419
     30          1           0       -5.441130    3.069089    1.241082
     31          6           0       -3.213345   -0.699905   -0.549085
     32          6           0       -1.882680   -1.192616   -1.118781
     33          6           0       -1.922739   -2.666248   -1.524487
     34          1           0       -3.481085   -1.313844    0.322000
     35          1           0       -4.004346   -0.854798   -1.295589
     36          1           0       -1.094720   -1.036355   -0.370905
     37          1           0       -1.616844   -0.577043   -1.987698
     38          1           0       -2.688621   -2.834813   -2.288431
     39          1           0       -2.163531   -3.296735   -0.662451
     40          1           0       -0.961280   -2.997536   -1.929094
 ---------------------------------------------------------------------

 SCF Done:  E(RHF) =  -470.733158823     A.U. after   11 cycles
 E2 =    -0.1583060977D+01 EUMP2 =    -0.47231621979990D+03

 The electronic state is 1-A.
 Alpha  occ. eigenvalues --  -11.21637 -11.21605 -11.21599 -11.21488 -11.21422
 Alpha  occ. eigenvalues --  -11.21391 -11.21362 -11.21317 -11.21114 -11.21076
 Alpha  occ. eigenvalues --  -11.21074 -11.21008  -1.08455  -1.08397  -1.03568
 Alpha  occ. eigenvalues --   -1.03479  -0.96013  -0.95940  -0.87024  -0.86964
 Alpha  occ. eigenvalues --   -0.79667  -0.79516  -0.78306  -0.78168  -0.65121
 Alpha  occ. eigenvalues --   -0.65005  -0.61022  -0.60848  -0.59411  -0.59279
 Alpha  occ. eigenvalues --   -0.57656  -0.57511  -0.55300  -0.55237  -0.52698
 Alpha  occ. eigenvalues --   -0.52646  -0.52428  -0.52371  -0.50025  -0.49831
 Alpha  occ. eigenvalues --   -0.48091  -0.47780  -0.46771  -0.46482  -0.45960
 Alpha  occ. eigenvalues --   -0.45751  -0.45711  -0.45396  -0.43806  -0.43751
 Alpha virt. eigenvalues --    0.20892   0.23120   0.23626   0.24779   0.25489
 Alpha virt. eigenvalues --    0.26738   0.27036   0.27764   0.28046   0.29247
 Alpha virt. eigenvalues --    0.30754   0.31542   0.31649   0.31936   0.32241

 Mulliken charges:
               1
     1  C   -0.298332
     2  C   -0.299689
     3  C   -0.475728
     4  H    0.149623
     5  H    0.149594
     6  H    0.152212
     7  H    0.151975
     8  H    0.155156
     9  H    0.155185
    10  H    0.160297
    11  C   -0.299327
    12  C   -0.299857
    13  C   -0.479636
    14  H    0.150697
    15  H    0.149806
    16  H    0.151798
    17  H    0.152138
    18  H    0.156856
    19  H    0.157934
    20  H    0.160453
    21  C   -0.298040
    22  C   -0.299602
    23  C   -0.475689
    24  H    0.148100
    25  H    0.149597
    26  H    0.152003
    27  H    0.152107
    28  H    0.155147
    29  H    0.154945
    30  H    0.160296
    31  C   -0.298206
    32  C   -0.307438
    33  C   -0.475108
    34  H    0.149428
    35  H    0.149525
    36  H    0.160629
    37  H    0.151380
    38  H    0.154678
    39  H    0.155561
    40  H    0.159532
 Sum of Mulliken charges =  -0.00000

 Dipole moment (field-independent basis, Debye):
    X=              0.0282    Y=             -0.0107    Z=              0.0102  Tot=              0.0318
 Quadrupole moment (field-independent basis, Debye-Ang):
   XX=            -85.2735   YY=            -85.6430   ZZ=            -83.8873
   XY=             -0.9472   XZ=              0.2259   YZ=             -0.2058

 Normal termination of Gaussian 16 at Thu May  6 02:03:14 2021.
