 Gaussian 16, Revision A.03,
 Gaussian 16:  EM64L-G16RevA.03 25-Dec-2016

 -------------
 #p 6-31g* mp2
 -------------

 ------------------------------------------------------
 Input file generated by CHIRIPA (05-May-2021 14:51:08)
 ------------------------------------------------------
 Symbolic Z-matrix:
 Charge =  0 Multiplicity = 1

                         Standard orientation:
 ---------------------------------------------------------------------
 Center     Atomic      Atomic             Coordinates (Angstroms)
 Number     Number       Type             X           Y           Z
 ---------------------------------------------------------------------
      1          6           0        3.891443   -0.526543   -0.484092
      2          6           0        3.917041   -1.701611    0.493940
      3          6           0        4.897417   -2.797768    0.075492
      4          1           0        3.625822   -0.895793   -1.484114
      5          1           0        4.902516   -0.104008   -0.565282
      6          1           0        2.905940   -2.120931    0.574316
      7          1           0        4.182445   -1.329493    1.491790
      8          1           0        5.915819   -2.400719    0.013762
      9          1           0        4.632061   -3.196654   -0.908925
     10          1           0        4.899622   -3.628013    0.788618
     11          6           0        2.916111    0.577382   -0.079363
     12          6           0        2.890513    1.752449   -1.057395
     13          6           0        1.910137    2.848606   -0.638947
     14          1           0        1.905039    0.154846    0.001827
     15          1           0        3.181733    0.946631    0.920659
     16          1           0        2.625109    1.380331   -2.055245
     17          1           0        3.901615    2.171770   -1.137771
     18          1           0        2.175494    3.247493    0.345470
     19          1           0        0.891735    2.451557   -0.577217
     20          1           0        1.907933    3.678851   -1.352073
     21          6           0       -3.896747   -0.101207   -0.296778
     22          6           0       -4.997895   -1.126606   -0.024720
     23          6           0       -5.976289   -1.266955   -1.191271
     24          1           0       -4.356701    0.873279   -0.510703
     25          1           0       -3.348649   -0.393840   -1.203061
     26          1           0       -5.542864   -0.832871    0.881560
     27          1           0       -4.535260   -2.098720    0.188770
     28          1           0       -5.451273   -1.583003   -2.098505
     29          1           0       -6.464602   -0.309961   -1.401780
     30          1           0       -6.755116   -2.005003   -0.975464
     31          6           0       -2.910807    0.050369    0.860233
     32          6           0       -1.809660    1.075768    0.588175
     33          6           0       -0.831266    1.216116    1.754727
     34          1           0       -3.458906    0.343002    1.766517
     35          1           0       -2.450853   -0.924117    1.074158
     36          1           0       -2.272295    2.047882    0.374684
     37          1           0       -1.264690    0.782032   -0.318105
     38          1           0       -0.342952    0.259123    1.965234
     39          1           0       -1.356282    1.532165    2.661960
     40          1           0       -0.052439    1.954165    1.538920
 ---------------------------------------------------------------------

 SCF Done:  E(RHF) =  -470.732670820     A.U. after   11 cycles
 E2 =    -0.1583608818D+01 EUMP2 =    -0.47231627963808D+03

 The electronic state is 1-A.
 Alpha  occ. eigenvalues --  -11.21624 -11.21612 -11.21608 -11.21600 -11.21419
 Alpha  occ. eigenvalues --  -11.21396 -11.21360 -11.21333 -11.21081 -11.21078
 Alpha  occ. eigenvalues --  -11.21044 -11.20950  -1.08458  -1.08413  -1.03585
 Alpha  occ. eigenvalues --   -1.03483  -0.96029  -0.95927  -0.87037  -0.86952
 Alpha  occ. eigenvalues --   -0.79623  -0.79575  -0.78262  -0.78236  -0.65141
 Alpha  occ. eigenvalues --   -0.65000  -0.61048  -0.60841  -0.59557  -0.59194
 Alpha  occ. eigenvalues --   -0.57831  -0.57356  -0.55258  -0.55254  -0.52797
 Alpha  occ. eigenvalues --   -0.52672  -0.52513  -0.52153  -0.49962  -0.49863
 Alpha  occ. eigenvalues --   -0.47996  -0.47788  -0.46680  -0.46578  -0.45832
 Alpha  occ. eigenvalues --   -0.45760  -0.45731  -0.45634  -0.43793  -0.43748
 Alpha virt. eigenvalues --    0.20828   0.23196   0.23439   0.24911   0.26068
 Alpha virt. eigenvalues --    0.26722   0.26754   0.27302   0.27786   0.29580
 Alpha virt. eigenvalues --    0.30246   0.31455   0.31532   0.31785   0.32430

 Mulliken charges:
               1
     1  C   -0.298293
     2  C   -0.299501
     3  C   -0.475687
     4  H    0.149359
     5  H    0.149592
     6  H    0.151359
     7  H    0.152180
     8  H    0.155272
     9  H    0.155088
    10  H    0.160242
    11  C   -0.301325
    12  C   -0.299177
    13  C   -0.483191
    14  H    0.153178
    15  H    0.149901
    16  H    0.151526
    17  H    0.151856
    18  H    0.154696
    19  H    0.163985
    20  H    0.160328
    21  C   -0.298312
    22  C   -0.299661
    23  C   -0.475702
    24  H    0.149781
    25  H    0.149232
    26  H    0.152034
    27  H    0.151892
    28  H    0.155115
    29  H    0.155238
    30  H    0.160300
    31  C   -0.298199
    32  C   -0.302186
    33  C   -0.481635
    34  H    0.149957
    35  H    0.149516
    36  H    0.152469
    37  H    0.151212
    38  H    0.155130
    39  H    0.154574
    40  H    0.167859
 Sum of Mulliken charges =  -0.00000

 Dipole moment (field-independent basis, Debye):
    X=              0.0034    Y=              0.0164    Z=              0.0054  Tot=              0.0176
 Quadrupole moment (field-independent basis, Debye-Ang):
   XX=            -84.9775   YY=            -84.8429   ZZ=            -84.9794
   XY=              0.3061   XZ=             -0.2845   YZ=              0.2670

 Normal termination of Gaussian 16 at Thu May  6 02:04:29 2021.
