 Gaussian 16, Revision A.03,
 Gaussian 16:  EM64L-G16RevA.03 25-Dec-2016

 -------------
 #p 6-31g* mp2
 -------------

 ------------------------------------------------------
 Input file generated by CHIRIPA (05-May-2021 14:51:13)
 ------------------------------------------------------
 Symbolic Z-matrix:
 Charge =  0 Multiplicity = 1

                         Standard orientation:
 ---------------------------------------------------------------------
 Center     Atomic      Atomic             Coordinates (Angstroms)
 Number     Number       Type             X           Y           Z
 ---------------------------------------------------------------------
      1          6           0       -3.542321    0.519597    0.585693
      2          6           0       -2.072812    0.703647    0.205359
      3          6           0       -1.382014    1.793715    1.025326
      4          1           0       -4.071567    1.472816    0.450726
      5          1           0       -3.609173    0.273573    1.654523
      6          1           0       -2.008662    0.947891   -0.862744
      7          1           0       -1.547043   -0.250170    0.341065
      8          1           0       -1.416421    1.552923    2.092769
      9          1           0       -1.880663    2.757791    0.882120
     10          1           0       -0.332440    1.908507    0.737094
     11          6           0       -4.246540   -0.566682   -0.225356
     12          6           0       -5.716049   -0.750732    0.154978
     13          6           0       -6.406846   -1.840800   -0.664988
     14          1           0       -4.179687   -0.320658   -1.294186
     15          1           0       -3.717293   -1.519902   -0.090388
     16          1           0       -6.241817    0.203085    0.019272
     17          1           0       -5.780199   -0.994976    1.223082
     18          1           0       -5.908198   -2.804877   -0.521782
     19          1           0       -6.372439   -1.600008   -1.732432
     20          1           0       -7.456420   -1.955592   -0.376757
     21          6           0        3.430195    0.416107   -0.642565
     22          6           0        2.886800    1.697937   -0.010410
     23          6           0        1.959631    2.472295   -0.947705
     24          1           0        3.968620    0.669913   -1.565943
     25          1           0        2.587697   -0.224443   -0.938009
     26          1           0        3.730098    2.335269    0.285010
     27          1           0        2.349770    1.441070    0.911671
     28          1           0        1.099694    1.857788   -1.233167
     29          1           0        2.487865    2.757067   -1.863388
     30          1           0        1.582673    3.384970   -0.475701
     31          6           0        4.358665   -0.369022    0.282228
     32          6           0        4.902060   -1.650852   -0.349927
     33          6           0        5.829229   -2.425210    0.587368
     34          1           0        5.201164    0.271528    0.577672
     35          1           0        3.820240   -0.622827    1.205605
     36          1           0        5.439090   -1.393985   -1.272009
     37          1           0        4.058763   -2.288183   -0.645347
     38          1           0        5.300996   -2.709982    1.503051
     39          1           0        6.689167   -1.810703    0.872830
     40          1           0        6.206187   -3.337885    0.115364
 ---------------------------------------------------------------------

 SCF Done:  E(RHF) =  -470.732901817     A.U. after   11 cycles
 E2 =    -0.1582914454D+01 EUMP2 =    -0.47231581627076D+03

 The electronic state is 1-A.
 Alpha  occ. eigenvalues --  -11.21630 -11.21609 -11.21606 -11.21602 -11.21417
 Alpha  occ. eigenvalues --  -11.21405 -11.21357 -11.21345 -11.21079 -11.21077
 Alpha  occ. eigenvalues --  -11.21073 -11.20968  -1.08453  -1.08421  -1.03585
 Alpha  occ. eigenvalues --   -1.03489  -0.96064  -0.95904  -0.87076  -0.86922
 Alpha  occ. eigenvalues --   -0.79614  -0.79582  -0.78260  -0.78238  -0.65097
 Alpha  occ. eigenvalues --   -0.65057  -0.61078  -0.60914  -0.59469  -0.59200
 Alpha  occ. eigenvalues --   -0.57639  -0.57559  -0.55309  -0.55222  -0.52788
 Alpha  occ. eigenvalues --   -0.52540  -0.52417  -0.52341  -0.49939  -0.49876
 Alpha  occ. eigenvalues --   -0.47935  -0.47877  -0.46645  -0.46620  -0.45798
 Alpha  occ. eigenvalues --   -0.45785  -0.45721  -0.45708  -0.43826  -0.43729
 Alpha virt. eigenvalues --    0.21175   0.23084   0.23525   0.25261   0.26473
 Alpha virt. eigenvalues --    0.26580   0.27020   0.27465   0.27744   0.29055
 Alpha virt. eigenvalues --    0.30585   0.31197   0.31362   0.31722   0.32229

 Mulliken charges:
               1
     1  C   -0.298278
     2  C   -0.299754
     3  C   -0.485923
     4  H    0.149844
     5  H    0.149574
     6  H    0.151835
     7  H    0.150913
     8  H    0.154131
     9  H    0.154826
    10  H    0.173580
    11  C   -0.298265
    12  C   -0.299649
    13  C   -0.475702
    14  H    0.149533
    15  H    0.149435
    16  H    0.152000
    17  H    0.151909
    18  H    0.155120
    19  H    0.155204
    20  H    0.160266
    21  C   -0.298133
    22  C   -0.303231
    23  C   -0.481120
    24  H    0.149794
    25  H    0.149779
    26  H    0.152556
    27  H    0.153901
    28  H    0.157513
    29  H    0.156816
    30  H    0.161400
    31  C   -0.298368
    32  C   -0.299681
    33  C   -0.475714
    34  H    0.149585
    35  H    0.149718
    36  H    0.151977
    37  H    0.151951
    38  H    0.155164
    39  H    0.155214
    40  H    0.160278
 Sum of Mulliken charges =  -0.00000

 Dipole moment (field-independent basis, Debye):
    X=              0.0275    Y=              0.0146    Z=             -0.0120  Tot=              0.0334
 Quadrupole moment (field-independent basis, Debye-Ang):
   XX=            -84.9603   YY=            -85.0225   ZZ=            -84.7685
   XY=              0.2342   XZ=             -0.7904   YZ=             -0.7275

 Normal termination of Gaussian 16 at Thu May  6 02:23:06 2021.
