 Gaussian 16, Revision A.03,
 Gaussian 16:  EM64L-G16RevA.03 25-Dec-2016

 -------------
 #p 6-31g* mp2
 -------------

 ------------------------------------------------------
 Input file generated by CHIRIPA (05-May-2021 14:57:21)
 ------------------------------------------------------
 Symbolic Z-matrix:
 Charge =  0 Multiplicity = 1

                         Standard orientation:
 ---------------------------------------------------------------------
 Center     Atomic      Atomic             Coordinates (Angstroms)
 Number     Number       Type             X           Y           Z
 ---------------------------------------------------------------------
      1          6           0       -1.834040    0.337505    2.430149
      2          6           0       -1.838084    1.331196    1.445729
      3          6           0       -2.502555    1.126367    0.232852
      4          6           0       -3.155677   -0.089511    0.036987
      5          6           0       -3.169713   -1.098903    0.998352
      6          6           0       -2.498696   -0.872240    2.203718
      7          1           0       -1.315321    0.505101    3.369424
      8          1           0       -1.322744    2.271678    1.618828
      9          1           0       -2.521626    1.878572   -0.546405
     10          1           0       -3.692289   -2.026112    0.796819
     11          1           0       -2.497226   -1.645743    2.966434
     12          7           0       -3.862587   -0.317911   -1.243056
     13          8           0       -4.430508   -1.397805   -1.391146
     14          8           0       -3.835358    0.587288   -2.074025
     15          6           0        1.938242    2.317364   -0.394274
     16          6           0        1.175156    1.156441   -0.556995
     17          6           0        1.774575   -0.104113   -0.477937
     18          6           0        3.145603   -0.167152   -0.233808
     19          6           0        3.932805    0.971211   -0.067274
     20          6           0        3.312208    2.221214   -0.150363
     21          1           0        1.464374    3.292494   -0.457253
     22          1           0        0.107920    1.228083   -0.746522
     23          1           0        1.207571   -1.019001   -0.600018
     24          1           0        4.994620    0.867871    0.120571
     25          1           0        3.907321    3.121109   -0.023583
     26          7           0        3.791390   -1.496058   -0.147980
     27          8           0        5.001005   -1.524644    0.068013
     28          8           0        3.075716   -2.483906   -0.298325
 ---------------------------------------------------------------------

 SCF Done:  E(RHF) =  -868.336210163     A.U. after   16 cycles
 E2 =    -0.2602170558D+01 EUMP2 =    -0.87093838072128D+03

 The electronic state is 1-A.
 Alpha  occ. eigenvalues --  -20.61443 -20.61419 -20.60993 -20.60988 -15.86492
 Alpha  occ. eigenvalues --  -15.86044 -11.32013 -11.31451 -11.28604 -11.28461
 Alpha  occ. eigenvalues --  -11.28212 -11.28003 -11.27962 -11.27791 -11.27636
 Alpha  occ. eigenvalues --  -11.27491 -11.27070 -11.26940  -1.60509  -1.60068
 Alpha  occ. eigenvalues --   -1.40058  -1.39619  -1.20171  -1.19618  -1.09504
 Alpha  occ. eigenvalues --   -1.09026  -1.05611  -1.04997  -0.96327  -0.95850
 Alpha  occ. eigenvalues --   -0.86950  -0.86430  -0.83167  -0.82663  -0.78222
 Alpha  occ. eigenvalues --   -0.77693  -0.72697  -0.72262  -0.71844  -0.71392
 Alpha  occ. eigenvalues --   -0.71210  -0.70757  -0.65813  -0.65554  -0.65265
 Alpha  occ. eigenvalues --   -0.65046  -0.62941  -0.62339  -0.55994  -0.55585
 Alpha  occ. eigenvalues --   -0.54074  -0.53666  -0.53315  -0.52920  -0.49471
 Alpha  occ. eigenvalues --   -0.49450  -0.49024  -0.49014  -0.45429  -0.45015
 Alpha  occ. eigenvalues --   -0.38168  -0.37705  -0.37229  -0.36390
 Alpha virt. eigenvalues --    0.04289   0.04805   0.10134   0.11206   0.15761
 Alpha virt. eigenvalues --    0.16311   0.20005   0.21753   0.25786   0.27059
 Alpha virt. eigenvalues --    0.27903   0.28731   0.29883   0.31108   0.31979

 Mulliken charges:
               1
     1  C   -0.170332
     2  C   -0.213387
     3  C   -0.189069
     4  C    0.160161
     5  C   -0.171165
     6  C   -0.216844
     7  H    0.229983
     8  H    0.222430
     9  H    0.273238
    10  H    0.279608
    11  H    0.229053
    12  N    0.488053
    13  O   -0.455688
    14  O   -0.461234
    15  C   -0.177638
    16  C   -0.218104
    17  C   -0.174667
    18  C    0.158634
    19  C   -0.172085
    20  C   -0.217965
    21  H    0.222101
    22  H    0.229661
    23  H    0.277640
    24  H    0.275932
    25  H    0.223486
    26  N    0.487856
    27  O   -0.460146
    28  O   -0.459514
 Sum of Mulliken charges =  -0.00000

 Dipole moment (field-independent basis, Debye):
    X=              0.0450    Y=              5.2459    Z=              4.3677  Tot=              6.8263
 Quadrupole moment (field-independent basis, Debye-Ang):
   XX=           -131.0152   YY=           -102.1804   ZZ=           -104.6389
   XY=             16.4485   XZ=            -14.5920   YZ=             -2.7077

 Normal termination of Gaussian 16 at Thu May  6 04:53:25 2021.
