 Gaussian 16, Revision A.03,
 Gaussian 16:  EM64L-G16RevA.03 25-Dec-2016

 -------------
 #p 6-31g* mp2
 -------------

 ------------------------------------------------------
 Input file generated by CHIRIPA (05-May-2021 14:53:14)
 ------------------------------------------------------
 Symbolic Z-matrix:
 Charge =  0 Multiplicity = 1

                         Standard orientation:
 ---------------------------------------------------------------------
 Center     Atomic      Atomic             Coordinates (Angstroms)
 Number     Number       Type             X           Y           Z
 ---------------------------------------------------------------------
      1          6           0        5.429922   -0.143110   -0.355384
      2          6           0        6.308144   -1.091678    0.461274
      3          6           0        7.416217   -1.736198   -0.372130
      4          1           0        4.985347   -0.696032   -1.194178
      5          1           0        6.060846    0.640645   -0.797038
      6          1           0        5.675554   -1.872616    0.902389
      7          1           0        6.750527   -0.536479    1.298333
      8          1           0        8.071134   -0.970469   -0.800315
      9          1           0        6.990053   -2.314198   -1.198509
     10          1           0        8.031929   -2.410400    0.231368
     11          6           0        4.317617    0.508991    0.463927
     12          6           0        3.439395    1.457559   -0.352731
     13          6           0        2.331322    2.102079    0.480673
     14          1           0        3.686693   -0.274764    0.905581
     15          1           0        4.762192    1.061913    1.302722
     16          1           0        2.997012    0.902360   -1.189790
     17          1           0        4.071985    2.238497   -0.793846
     18          1           0        2.757486    2.680078    1.307052
     19          1           0        1.676405    1.336350    0.908859
     20          1           0        1.715610    2.776281   -0.122825
     21          6           0       -1.433330    0.699120   -0.182310
     22          6           0       -1.683431   -0.670089   -0.043608
     23          6           0       -2.994949   -1.147904    0.034905
     24          6           0       -4.037171   -0.224328   -0.028874
     25          6           0       -3.820290    1.145788   -0.166847
     26          6           0       -2.500675    1.601098   -0.243380
     27          1           0       -0.411366    1.061557   -0.242531
     28          1           0       -0.856478   -1.372881    0.004090
     29          1           0       -3.217072   -2.202659    0.142476
     30          1           0       -4.665300    1.822086   -0.211536
     31          1           0       -2.309430    2.664992   -0.351077
     32          7           0       -5.429902   -0.718257    0.053196
     33          8           0       -6.330658    0.115914   -0.005406
     34          8           0       -5.594396   -1.930216    0.174570
 ---------------------------------------------------------------------

 SCF Done:  E(RHF) =  -669.535396058     A.U. after   15 cycles
 E2 =    -0.2091007073D+01 EUMP2 =    -0.67162640313053D+03

 The electronic state is 1-A.
 Alpha  occ. eigenvalues --  -20.60714 -20.60708 -15.85768 -11.31118 -11.27695
 Alpha  occ. eigenvalues --  -11.27688 -11.27351 -11.26697 -11.26680 -11.22688
 Alpha  occ. eigenvalues --  -11.22436 -11.22272 -11.22194 -11.22080 -11.21560
 Alpha  occ. eigenvalues --   -1.59790  -1.39344  -1.19288  -1.09271  -1.08679
 Alpha  occ. eigenvalues --   -1.04694  -1.04404  -0.96873  -0.95516  -0.87892
 Alpha  occ. eigenvalues --   -0.86089  -0.82357  -0.80473  -0.79031  -0.77410
 Alpha  occ. eigenvalues --   -0.71985  -0.71113  -0.70409  -0.65905  -0.64938
 Alpha  occ. eigenvalues --   -0.64704  -0.62047  -0.61812  -0.60274  -0.58445
 Alpha  occ. eigenvalues --   -0.56305  -0.55073  -0.53541  -0.53280  -0.53017
 Alpha  occ. eigenvalues --   -0.52785  -0.50779  -0.48780  -0.48742  -0.48739
 Alpha  occ. eigenvalues --   -0.47492  -0.46581  -0.46482  -0.44753  -0.44639
 Alpha  occ. eigenvalues --   -0.37254  -0.36306
 Alpha virt. eigenvalues --    0.05120   0.11347   0.16581   0.19836   0.22500
 Alpha virt. eigenvalues --    0.23806   0.25733   0.26442   0.26597   0.27263
 Alpha virt. eigenvalues --    0.29697   0.30211   0.30798   0.31264   0.31373

 Mulliken charges:
               1
     1  C   -0.298906
     2  C   -0.300170
     3  C   -0.476144
     4  H    0.149709
     5  H    0.151375
     6  H    0.151932
     7  H    0.153214
     8  H    0.156153
     9  H    0.155617
    10  H    0.162081
    11  C   -0.298653
    12  C   -0.301243
    13  C   -0.482892
    14  H    0.147985
    15  H    0.152533
    16  H    0.150453
    17  H    0.156971
    18  H    0.164011
    19  H    0.150693
    20  H    0.156950
    21  C   -0.177903
    22  C   -0.221666
    23  C   -0.170588
    24  C    0.158060
    25  C   -0.170659
    26  C   -0.221310
    27  H    0.239361
    28  H    0.222427
    29  H    0.275223
    30  H    0.275309
    31  H    0.223363
    32  N    0.488056
    33  O   -0.460623
    34  O   -0.460717
 Sum of Mulliken charges =  -0.00000

 Dipole moment (field-independent basis, Debye):
    X=              5.2059    Y=              1.7829    Z=             -0.2684  Tot=              5.5092
 Quadrupole moment (field-independent basis, Debye-Ang):
   XX=           -133.6929   YY=            -90.7385   ZZ=            -95.7652
   XY=             -8.9330   XZ=              1.8121   YZ=             -0.4468

 Normal termination of Gaussian 16 at Thu May  6 04:14:00 2021.
