 Gaussian 16, Revision A.03,
 Gaussian 16:  EM64L-G16RevA.03 25-Dec-2016

 -------------
 #p 6-31g* mp2
 -------------

 ------------------------------------------------------
 Input file generated by CHIRIPA (05-May-2021 14:53:13)
 ------------------------------------------------------
 Symbolic Z-matrix:
 Charge =  0 Multiplicity = 1

                         Standard orientation:
 ---------------------------------------------------------------------
 Center     Atomic      Atomic             Coordinates (Angstroms)
 Number     Number       Type             X           Y           Z
 ---------------------------------------------------------------------
      1          6           0        3.040011    0.894292   -0.512547
      2          6           0        1.705818    1.592359   -0.246811
      3          6           0        1.577279    2.923613   -0.987779
      4          1           0        3.861030    1.561350   -0.216058
      5          1           0        3.148881    0.725687   -1.592878
      6          1           0        1.598874    1.758353    0.832830
      7          1           0        0.887875    0.923486   -0.543789
      8          1           0        1.658026    2.772046   -2.069032
      9          1           0        2.373064    3.611657   -0.684592
     10          1           0        0.616072    3.405541   -0.783604
     11          6           0        3.183453   -0.437871    0.221275
     12          6           0        4.517647   -1.135938   -0.044460
     13          6           0        4.646185   -2.467193    0.696507
     14          1           0        3.074583   -0.269266    1.301606
     15          1           0        2.362434   -1.104929   -0.075214
     16          1           0        5.335589   -0.467065    0.252517
     17          1           0        4.624591   -1.301932   -1.124102
     18          1           0        3.850400   -3.155236    0.393320
     19          1           0        4.565438   -2.315625    1.777760
     20          1           0        5.607392   -2.949120    0.492333
     21          6           0       -1.862910    2.021050    1.211985
     22          6           0       -1.912345    1.927218   -0.182746
     23          6           0       -2.226065    0.713714   -0.802047
     24          6           0       -2.485965   -0.390913    0.007607
     25          6           0       -2.444584   -0.329221    1.399646
     26          6           0       -2.128719    0.894517    1.997345
     27          1           0       -1.618372    2.967704    1.684681
     28          1           0       -1.706370    2.800456   -0.795180
     29          1           0       -2.271281    0.613018   -1.879653
     30          1           0       -2.654715   -1.217020    1.983662
     31          1           0       -2.091056    0.964447    3.080735
     32          7           0       -2.819223   -1.681013   -0.636584
     33          8           0       -3.044137   -2.639574    0.099087
     34          8           0       -2.849204   -1.709204   -1.864975
 ---------------------------------------------------------------------

 SCF Done:  E(RHF) =  -669.534154087     A.U. after   15 cycles
 E2 =    -0.2093839891D+01 EUMP2 =    -0.67162799397806D+03

 The electronic state is 1-A.
 Alpha  occ. eigenvalues --  -20.60816 -20.60811 -15.85869 -11.31250 -11.27787
 Alpha  occ. eigenvalues --  -11.27781 -11.27521 -11.26819 -11.26782 -11.21880
 Alpha  occ. eigenvalues --  -11.21707 -11.21664 -11.21598 -11.21488 -11.21070
 Alpha  occ. eigenvalues --   -1.59892  -1.39445  -1.19412  -1.08817  -1.08616
 Alpha  occ. eigenvalues --   -1.04823  -1.03764  -0.96249  -0.95635  -0.87270
 Alpha  occ. eigenvalues --   -0.86207  -0.82468  -0.79830  -0.78418  -0.77520
 Alpha  occ. eigenvalues --   -0.72087  -0.71216  -0.70508  -0.65265  -0.65059
 Alpha  occ. eigenvalues --   -0.64860  -0.62205  -0.61169  -0.59657  -0.57872
 Alpha  occ. eigenvalues --   -0.55533  -0.55301  -0.53222  -0.53087  -0.52778
 Alpha  occ. eigenvalues --   -0.52533  -0.50165  -0.48848  -0.48841  -0.48120
 Alpha  occ. eigenvalues --   -0.46844  -0.45954  -0.45872  -0.44847  -0.44022
 Alpha  occ. eigenvalues --   -0.37353  -0.36340
 Alpha virt. eigenvalues --    0.04991   0.11143   0.16467   0.20450   0.22857
 Alpha virt. eigenvalues --    0.24212   0.26339   0.26447   0.27238   0.28013
 Alpha virt. eigenvalues --    0.28629   0.30256   0.31163   0.31674   0.31824

 Mulliken charges:
               1
     1  C   -0.298889
     2  C   -0.300434
     3  C   -0.476494
     4  H    0.148496
     5  H    0.150667
     6  H    0.148019
     7  H    0.158731
     8  H    0.157111
     9  H    0.157147
    10  H    0.146541
    11  C   -0.298480
    12  C   -0.299834
    13  C   -0.476163
    14  H    0.147719
    15  H    0.152684
    16  H    0.151020
    17  H    0.153155
    18  H    0.157926
    19  H    0.154102
    20  H    0.160696
    21  C   -0.169003
    22  C   -0.213780
    23  C   -0.174947
    24  C    0.159398
    25  C   -0.171016
    26  C   -0.218103
    27  H    0.225779
    28  H    0.225473
    29  H    0.275791
    30  H    0.275738
    31  H    0.223634
    32  N    0.487930
    33  O   -0.460104
    34  O   -0.460508
 Sum of Mulliken charges =  -0.00000

 Dipole moment (field-independent basis, Debye):
    X=              1.1529    Y=              4.4550    Z=              2.2819  Tot=              5.1365
 Quadrupole moment (field-independent basis, Debye-Ang):
   XX=           -101.2932   YY=            -98.9640   ZZ=            -90.3438
   XY=            -11.4077   XZ=             -6.0373   YZ=             -2.1040

 Normal termination of Gaussian 16 at Thu May  6 12:03:57 2021.
