 Gaussian 16, Revision A.03,
 Gaussian 16:  EM64L-G16RevA.03 25-Dec-2016

 -------------
 #p 6-31g* mp2
 -------------

 ------------------------------------------------------
 Input file generated by CHIRIPA (05-May-2021 14:57:22)
 ------------------------------------------------------
 Symbolic Z-matrix:
 Charge =  0 Multiplicity = 1

                         Standard orientation:
 ---------------------------------------------------------------------
 Center     Atomic      Atomic             Coordinates (Angstroms)
 Number     Number       Type             X           Y           Z
 ---------------------------------------------------------------------
      1          6           0       -3.066488    2.672210    0.097831
      2          6           0       -4.382119    2.207317    0.195357
      3          6           0       -4.662004    0.841464    0.092120
      4          6           0       -3.597283   -0.035480   -0.109442
      5          6           0       -2.275893    0.396896   -0.210777
      6          6           0       -2.019420    1.767111   -0.104568
      7          1           0       -2.858160    3.734931    0.179182
      8          1           0       -5.197275    2.907932    0.352534
      9          1           0       -5.671173    0.454376    0.163945
     10          1           0       -1.484260   -0.325709   -0.367548
     11          1           0       -0.996704    2.125303   -0.180693
     12          7           0       -3.881192   -1.483757   -0.220308
     13          8           0       -2.925481   -2.235917   -0.397808
     14          8           0       -5.054056   -1.839332   -0.127604
     15          6           0        5.130056    1.717897   -0.333370
     16          6           0        3.823024    1.968381    0.097264
     17          6           0        2.939202    0.911687    0.335596
     18          6           0        3.397785   -0.388939    0.132214
     19          6           0        4.694019   -0.670791   -0.296304
     20          6           0        5.560623    0.401431   -0.528435
     21          1           0        5.809943    2.544794   -0.516103
     22          1           0        3.485903    2.989748    0.249590
     23          1           0        1.922052    1.077114    0.669448
     24          1           0        5.001232   -1.699663   -0.439348
     25          1           0        6.575127    0.203915   -0.862822
     26          7           0        2.471236   -1.515834    0.381242
     27          8           0        2.899602   -2.652634    0.194630
     28          8           0        1.334185   -1.240955    0.758327
 ---------------------------------------------------------------------

 SCF Done:  E(RHF) =  -868.337247719     A.U. after   16 cycles
 E2 =    -0.2599668816D+01 EUMP2 =    -0.87093691653526D+03

 The electronic state is 1-A.
 Alpha  occ. eigenvalues --  -20.61179 -20.61121 -20.60068 -20.60014 -15.86202
 Alpha  occ. eigenvalues --  -15.85102 -11.31641 -11.30608 -11.28293 -11.28159
 Alpha  occ. eigenvalues --  -11.27937 -11.27283 -11.27279 -11.27188 -11.27124
 Alpha  occ. eigenvalues --  -11.27116 -11.26354 -11.26330  -1.60206  -1.59123
 Alpha  occ. eigenvalues --   -1.39766  -1.38666  -1.19810  -1.18841  -1.09182
 Alpha  occ. eigenvalues --   -1.08231  -1.05232  -1.04268  -0.96009  -0.95020
 Alpha  occ. eigenvalues --   -0.86623  -0.85670  -0.82849  -0.81850  -0.77899
 Alpha  occ. eigenvalues --   -0.76843  -0.72413  -0.71529  -0.71316  -0.70918
 Alpha  occ. eigenvalues --   -0.70453  -0.69958  -0.65466  -0.65235  -0.64501
 Alpha  occ. eigenvalues --   -0.64309  -0.62594  -0.61586  -0.55708  -0.54822
 Alpha  occ. eigenvalues --   -0.53543  -0.53330  -0.52601  -0.52372  -0.49169
 Alpha  occ. eigenvalues --   -0.49152  -0.48108  -0.48050  -0.45150  -0.44039
 Alpha  occ. eigenvalues --   -0.37774  -0.36876  -0.36837  -0.35875
 Alpha virt. eigenvalues --    0.04626   0.05688   0.10810   0.11766   0.16094
 Alpha virt. eigenvalues --    0.17095   0.19671   0.21981   0.25061   0.27265
 Alpha virt. eigenvalues --    0.28618   0.29092   0.30690   0.31156   0.32952

 Mulliken charges:
               1
     1  C   -0.170811
     2  C   -0.219556
     3  C   -0.170419
     4  C    0.156796
     5  C   -0.172208
     6  C   -0.220619
     7  H    0.221177
     8  H    0.221058
     9  H    0.274615
    10  H    0.293266
    11  H    0.213856
    12  N    0.487098
    13  O   -0.451992
    14  O   -0.464596
    15  C   -0.170610
    16  C   -0.217861
    17  C   -0.173430
    18  C    0.159842
    19  C   -0.169983
    20  C   -0.218010
    21  H    0.226790
    22  H    0.221331
    23  H    0.269275
    24  H    0.278043
    25  H    0.225525
    26  N    0.490012
    27  O   -0.453203
    28  O   -0.465387
 Sum of Mulliken charges =  -0.00000

 Dipole moment (field-independent basis, Debye):
    X=              4.5913    Y=              8.7455    Z=             -0.5185  Tot=              9.8910
 Quadrupole moment (field-independent basis, Debye-Ang):
   XX=            -82.4456   YY=           -107.1134   ZZ=           -106.4734
   XY=             -9.7018   XZ=             -6.0345   YZ=              1.3884

 Normal termination of Gaussian 16 at Wed May  5 19:21:07 2021.
