 Gaussian 16, Revision A.03,
 Gaussian 16:  EM64L-G16RevA.03 25-Dec-2016

 -------------
 #p 6-31g* mp2
 -------------

 ------------------------------------------------------
 Input file generated by CHIRIPA (05-May-2021 14:53:14)
 ------------------------------------------------------
 Symbolic Z-matrix:
 Charge =  0 Multiplicity = 1

                         Standard orientation:
 ---------------------------------------------------------------------
 Center     Atomic      Atomic             Coordinates (Angstroms)
 Number     Number       Type             X           Y           Z
 ---------------------------------------------------------------------
      1          6           0        3.901810    0.790853   -0.224330
      2          6           0        2.644487    1.455346   -0.786089
      3          6           0        2.743276    2.980921   -0.811678
      4          1           0        4.083474    1.165057    0.792486
      5          1           0        4.768725    1.093000   -0.828119
      6          1           0        1.779998    1.150937   -0.182260
      7          1           0        2.465688    1.079373   -1.801614
      8          1           0        3.587652    3.301966   -1.430194
      9          1           0        2.898066    3.373936    0.198361
     10          1           0        1.833799    3.435380   -1.216866
     11          6           0        3.818264   -0.734179   -0.192310
     12          6           0        5.075587   -1.398672    0.369449
     13          6           0        4.976798   -2.924247    0.395038
     14          1           0        2.951350   -1.036326    0.411479
     15          1           0        3.636601   -1.108383   -1.209126
     16          1           0        5.254387   -1.022699    1.384974
     17          1           0        5.940076   -1.094263   -0.234380
     18          1           0        4.822008   -3.317263   -0.615001
     19          1           0        4.132423   -3.245292    1.013554
     20          1           0        5.886276   -3.378707    0.800226
     21          6           0       -1.499934    1.275251    1.707190
     22          6           0       -2.542027    0.504839    2.233524
     23          6           0       -3.388024   -0.218092    1.387234
     24          6           0       -3.162188   -0.147565    0.013439
     25          6           0       -2.132559    0.610974   -0.541332
     26          6           0       -1.298880    1.325771    0.323880
     27          1           0       -0.847527    1.833682    2.371958
     28          1           0       -2.700528    0.463738    3.307411
     29          1           0       -4.202396   -0.822498    1.767906
     30          1           0       -1.999429    0.632266   -1.616154
     31          1           0       -0.490375    1.923246   -0.087688
     32          7           0       -4.051288   -0.908595   -0.892506
     33          8           0       -3.831327   -0.829845   -2.099176
     34          8           0       -4.951288   -1.569429   -0.378762
 ---------------------------------------------------------------------

 SCF Done:  E(RHF) =  -669.535426578     A.U. after   15 cycles
 E2 =    -0.2091439179D+01 EUMP2 =    -0.67162686575619D+03

 The electronic state is 1-A.
 Alpha  occ. eigenvalues --  -20.60757 -20.60752 -15.85810 -11.31182 -11.27756
 Alpha  occ. eigenvalues --  -11.27743 -11.27500 -11.26771 -11.26724 -11.22465
 Alpha  occ. eigenvalues --  -11.22041 -11.22024 -11.21993 -11.21849 -11.21362
 Alpha  occ. eigenvalues --   -1.59832  -1.39386  -1.19356  -1.09041  -1.08750
 Alpha  occ. eigenvalues --   -1.04760  -1.04159  -0.96595  -0.95584  -0.87605
 Alpha  occ. eigenvalues --   -0.86159  -0.82416  -0.80242  -0.78820  -0.77457
 Alpha  occ. eigenvalues --   -0.72029  -0.71155  -0.70465  -0.65713  -0.65006
 Alpha  occ. eigenvalues --   -0.64760  -0.62170  -0.61502  -0.59984  -0.58199
 Alpha  occ. eigenvalues --   -0.55871  -0.55257  -0.53311  -0.53101  -0.53005
 Alpha  occ. eigenvalues --   -0.52835  -0.50522  -0.48797  -0.48783  -0.48531
 Alpha  occ. eigenvalues --   -0.47259  -0.46355  -0.46260  -0.44790  -0.44395
 Alpha  occ. eigenvalues --   -0.37335  -0.36346
 Alpha virt. eigenvalues --    0.05074   0.11175   0.16533   0.19932   0.22599
 Alpha virt. eigenvalues --    0.23637   0.25929   0.26134   0.26985   0.28233
 Alpha virt. eigenvalues --    0.28835   0.30021   0.30875   0.31514   0.32134

 Mulliken charges:
               1
     1  C   -0.297765
     2  C   -0.306343
     3  C   -0.478469
     4  H    0.148850
     5  H    0.152174
     6  H    0.147498
     7  H    0.155710
     8  H    0.161568
     9  H    0.154802
    10  H    0.156005
    11  C   -0.299208
    12  C   -0.300101
    13  C   -0.476077
    14  H    0.150080
    15  H    0.151960
    16  H    0.151339
    17  H    0.152853
    18  H    0.156801
    19  H    0.155667
    20  H    0.161308
    21  C   -0.173041
    22  C   -0.218425
    23  C   -0.170905
    24  C    0.158626
    25  C   -0.172451
    26  C   -0.221760
    27  H    0.225652
    28  H    0.223308
    29  H    0.275604
    30  H    0.275957
    31  H    0.231501
    32  N    0.488107
    33  O   -0.460317
    34  O   -0.460509
 Sum of Mulliken charges =  -0.00000

 Dipole moment (field-independent basis, Debye):
    X=              3.2754    Y=              2.6273    Z=              3.1621  Tot=              5.2564
 Quadrupole moment (field-independent basis, Debye-Ang):
   XX=           -113.1065   YY=            -96.8881   ZZ=            -90.8339
   XY=             -7.9493   XZ=            -13.0241   YZ=             -1.8508

 Normal termination of Gaussian 16 at Thu May  6 17:05:06 2021.
