 Gaussian 16, Revision A.03,
 Gaussian 16:  EM64L-G16RevA.03 25-Dec-2016

 -------------
 #p 6-31g* mp2
 -------------

 ------------------------------------------------------
 Input file generated by CHIRIPA (05-May-2021 14:57:23)
 ------------------------------------------------------
 Symbolic Z-matrix:
 Charge =  0 Multiplicity = 1

                         Standard orientation:
 ---------------------------------------------------------------------
 Center     Atomic      Atomic             Coordinates (Angstroms)
 Number     Number       Type             X           Y           Z
 ---------------------------------------------------------------------
      1          6           0        1.929842    2.624936    0.300442
      2          6           0        2.921926    2.472471   -0.673747
      3          6           0        3.535745    1.232446   -0.874028
      4          6           0        3.131251    0.161377   -0.078739
      5          6           0        2.145808    0.281577    0.899905
      6          6           0        1.545627    1.530931    1.082780
      7          1           0        1.458309    3.591841    0.449264
      8          1           0        3.222318    3.320341   -1.282785
      9          1           0        4.306426    1.086437   -1.621122
     10          1           0        1.867501   -0.582055    1.491600
     11          1           0        0.775438    1.646405    1.840091
     12          7           0        3.773855   -1.156321   -0.281553
     13          8           0        3.399648   -2.084371    0.432119
     14          8           0        4.639568   -1.236130   -1.150351
     15          6           0       -1.031120   -1.620989    0.964738
     16          6           0       -1.589034   -0.560748    1.686640
     17          6           0       -2.694050    0.134759    1.186881
     18          6           0       -3.218136   -0.258435   -0.043574
     19          6           0       -2.684678   -1.310500   -0.786454
     20          6           0       -1.579755   -1.991827   -0.267334
     21          1           0       -0.172753   -2.155768    1.360484
     22          1           0       -1.165040   -0.270557    2.643753
     23          1           0       -3.145738    0.959336    1.724903
     24          1           0       -3.129294   -1.576662   -1.737712
     25          1           0       -1.148543   -2.814827   -0.830157
     26          7           0       -4.387918    0.470362   -0.582896
     27          8           0       -4.831100    0.104442   -1.669325
     28          8           0       -4.839459    1.393713    0.091026
 ---------------------------------------------------------------------

 SCF Done:  E(RHF) =  -868.337201581     A.U. after   16 cycles
 E2 =    -0.2601593936D+01 EUMP2 =    -0.87093879551651D+03

 The electronic state is 1-A.
 Alpha  occ. eigenvalues --  -20.61490 -20.61445 -20.61124 -20.61109 -15.86516
 Alpha  occ. eigenvalues --  -15.86176 -11.31771 -11.31578 -11.28409 -11.28267
 Alpha  occ. eigenvalues --  -11.28234 -11.28108 -11.27983 -11.27876 -11.27331
 Alpha  occ. eigenvalues --  -11.27289 -11.27246 -11.27059  -1.60541  -1.60195
 Alpha  occ. eigenvalues --   -1.40102  -1.39748  -1.19925  -1.19760  -1.09324
 Alpha  occ. eigenvalues --   -1.09148  -1.05334  -1.05167  -0.96197  -0.95965
 Alpha  occ. eigenvalues --   -0.86728  -0.86576  -0.83033  -0.82810  -0.78136
 Alpha  occ. eigenvalues --   -0.77840  -0.72741  -0.72392  -0.71861  -0.71521
 Alpha  occ. eigenvalues --   -0.71156  -0.70740  -0.65591  -0.65429  -0.65346
 Alpha  occ. eigenvalues --   -0.65174  -0.62756  -0.62460  -0.55848  -0.55608
 Alpha  occ. eigenvalues --   -0.53802  -0.53458  -0.53311  -0.53210  -0.49510
 Alpha  occ. eigenvalues --   -0.49472  -0.49154  -0.49145  -0.45532  -0.45146
 Alpha  occ. eigenvalues --   -0.37954  -0.37857  -0.36917  -0.36513
 Alpha virt. eigenvalues --    0.04302   0.04781   0.10590   0.10903   0.15980
 Alpha virt. eigenvalues --    0.16123   0.18780   0.22227   0.25372   0.25563
 Alpha virt. eigenvalues --    0.27970   0.29209   0.30289   0.31407   0.32705

 Mulliken charges:
               1
     1  C   -0.170474
     2  C   -0.217897
     3  C   -0.170459
     4  C    0.157598
     5  C   -0.167995
     6  C   -0.212895
     7  H    0.228944
     8  H    0.226292
     9  H    0.276973
    10  H    0.264398
    11  H    0.218445
    12  N    0.488547
    13  O   -0.467828
    14  O   -0.456473
    15  C   -0.174503
    16  C   -0.222787
    17  C   -0.172121
    18  C    0.158837
    19  C   -0.169735
    20  C   -0.218895
    21  H    0.234740
    22  H    0.216755
    23  H    0.273966
    24  H    0.277731
    25  H    0.230884
    26  N    0.488003
    27  O   -0.458465
    28  O   -0.461584
 Sum of Mulliken charges =  -0.00000

 Dipole moment (field-independent basis, Debye):
    X=              1.8661    Y=              2.0899    Z=              2.3489  Tot=              3.6562
 Quadrupole moment (field-independent basis, Debye-Ang):
   XX=           -144.9765   YY=            -99.8746   ZZ=           -100.0804
   XY=             23.3110   XZ=             -6.3757   YZ=              0.5518

 Normal termination of Gaussian 16 at Wed May  5 22:40:38 2021.
