 Gaussian 16, Revision A.03,
 Gaussian 16:  EM64L-G16RevA.03 25-Dec-2016

 -------------
 #p 6-31g* mp2
 -------------

 ------------------------------------------------------
 Input file generated by CHIRIPA (05-May-2021 14:57:26)
 ------------------------------------------------------
 Symbolic Z-matrix:
 Charge =  0 Multiplicity = 1

                         Standard orientation:
 ---------------------------------------------------------------------
 Center     Atomic      Atomic             Coordinates (Angstroms)
 Number     Number       Type             X           Y           Z
 ---------------------------------------------------------------------
      1          6           0        0.163451   -2.008723   -0.681248
      2          6           0        1.024628   -2.324187    0.374867
      3          6           0        2.158609   -1.545129    0.623267
      4          6           0        2.402107   -0.452860   -0.207965
      5          6           0        1.563090   -0.112938   -1.268056
      6          6           0        0.434952   -0.906049   -1.497899
      7          1           0       -0.715183   -2.619373   -0.867003
      8          1           0        0.816274   -3.179951    1.010715
      9          1           0        2.842063   -1.766747    1.433942
     10          1           0        1.797104    0.746320   -1.884766
     11          1           0       -0.232093   -0.658686   -2.318818
     12          7           0        3.599509    0.379333    0.045182
     13          8           0        3.791813    1.336397   -0.701602
     14          8           0        4.323057    0.058784    0.985588
     15          6           0       -3.403008   -1.626243    0.114321
     16          6           0       -2.663879   -1.298673    1.255770
     17          6           0       -1.995918   -0.073523    1.341713
     18          6           0       -2.088919    0.804275    0.262774
     19          6           0       -2.817356    0.506782   -0.887951
     20          6           0       -3.477257   -0.724062   -0.952017
     21          1           0       -3.918765   -2.580180    0.056056
     22          1           0       -2.604456   -1.997371    2.085430
     23          1           0       -1.416671    0.205547    2.213498
     24          1           0       -2.858049    1.223810   -1.698896
     25          1           0       -4.050537   -0.975787   -1.839727
     26          7           0       -1.386046    2.104300    0.342178
     27          8           0       -1.483633    2.860307   -0.621963
     28          8           0       -0.750854    2.342635    1.367051
 ---------------------------------------------------------------------

 SCF Done:  E(RHF) =  -868.334344719     A.U. after   16 cycles
 E2 =    -0.2607295091D+01 EUMP2 =    -0.87094163981069D+03

 The electronic state is 1-A.
 Alpha  occ. eigenvalues --  -20.61272 -20.61245 -20.60410 -20.60381 -15.86317
 Alpha  occ. eigenvalues --  -15.85464 -11.31897 -11.30983 -11.28574 -11.28465
 Alpha  occ. eigenvalues --  -11.28371 -11.27684 -11.27648 -11.27597 -11.27561
 Alpha  occ. eigenvalues --  -11.27363 -11.26699 -11.26593  -1.60328  -1.59467
 Alpha  occ. eigenvalues --   -1.39878  -1.39018  -1.20177  -1.19200  -1.09522
 Alpha  occ. eigenvalues --   -1.08570  -1.05607  -1.04651  -0.96300  -0.95372
 Alpha  occ. eigenvalues --   -0.86984  -0.86038  -0.83124  -0.82215  -0.78115
 Alpha  occ. eigenvalues --   -0.77224  -0.72535  -0.71685  -0.71668  -0.71276
 Alpha  occ. eigenvalues --   -0.70782  -0.70339  -0.65805  -0.65601  -0.64858
 Alpha  occ. eigenvalues --   -0.64691  -0.62928  -0.61996  -0.56111  -0.55334
 Alpha  occ. eigenvalues --   -0.54409  -0.53682  -0.52760  -0.52328  -0.49310
 Alpha  occ. eigenvalues --   -0.49275  -0.48459  -0.48422  -0.45234  -0.44393
 Alpha  occ. eigenvalues --   -0.38322  -0.37784  -0.36660  -0.35964
 Alpha virt. eigenvalues --    0.04315   0.05398   0.10339   0.11339   0.15812
 Alpha virt. eigenvalues --    0.16775   0.20325   0.21710   0.25958   0.27223
 Alpha virt. eigenvalues --    0.27671   0.28662   0.30142   0.31002   0.32105

 Mulliken charges:
               1
     1  C   -0.162236
     2  C   -0.223617
     3  C   -0.171185
     4  C    0.161341
     5  C   -0.172311
     6  C   -0.223658
     7  H    0.221040
     8  H    0.217178
     9  H    0.274939
    10  H    0.281007
    11  H    0.220378
    12  N    0.489157
    13  O   -0.456441
    14  O   -0.462152
    15  C   -0.180904
    16  C   -0.219301
    17  C   -0.163047
    18  C    0.168030
    19  C   -0.178009
    20  C   -0.222528
    21  H    0.226150
    22  H    0.223690
    23  H    0.279223
    24  H    0.276406
    25  H    0.224812
    26  N    0.487509
    27  O   -0.460795
    28  O   -0.454676
 Sum of Mulliken charges =  -0.00000

 Dipole moment (field-independent basis, Debye):
    X=             -6.6665    Y=             -7.1963    Z=             -1.0524  Tot=              9.8659
 Quadrupole moment (field-independent basis, Debye-Ang):
   XX=           -115.3684   YY=           -109.0099   ZZ=            -97.8586
   XY=              1.3377   XZ=              1.2192   YZ=             -4.2831

 Normal termination of Gaussian 16 at Wed May  5 17:59:58 2021.
