 Gaussian 16, Revision A.03,
 Gaussian 16:  EM64L-G16RevA.03 25-Dec-2016

 -------------
 #p 6-31g* mp2
 -------------

 ------------------------------------------------------
 Input file generated by CHIRIPA (05-May-2021 14:55:23)
 ------------------------------------------------------
 Symbolic Z-matrix:
 Charge =  0 Multiplicity = 1

                         Standard orientation:
 ---------------------------------------------------------------------
 Center     Atomic      Atomic             Coordinates (Angstroms)
 Number     Number       Type             X           Y           Z
 ---------------------------------------------------------------------
      1          6           0       -4.423296    1.146946    1.019143
      2          6           0       -3.077725    1.528234    0.995101
      3          6           0       -2.113684    0.694563    0.420500
      4          6           0       -2.532220   -0.518845   -0.123337
      5          6           0       -3.865197   -0.926749   -0.114721
      6          6           0       -4.812053   -0.077171    0.465132
      7          1           0       -5.165511    1.800740    1.467547
      8          1           0       -2.772925    2.478324    1.424601
      9          1           0       -1.065239    0.965021    0.388355
     10          1           0       -4.138622   -1.879899   -0.550799
     11          1           0       -5.856334   -0.375875    0.482384
     12          7           0       -1.520730   -1.409835   -0.734421
     13          8           0       -1.915138   -2.473740   -1.206847
     14          8           0       -0.352668   -1.027418   -0.729393
     15          6           0        3.082391    0.863760   -0.513850
     16          6           0        2.700215    2.282822   -0.091727
     17          6           0        1.956163    3.045586   -1.188254
     18          1           0        3.706299    0.912133   -1.416814
     19          1           0        2.172593    0.313769   -0.791649
     20          1           0        3.610323    2.829541    0.186516
     21          1           0        2.077304    2.231076    0.810448
     22          1           0        1.032453    2.524938   -1.460808
     23          1           0        2.574183    3.126803   -2.088286
     24          1           0        1.692571    4.057541   -0.865258
     25          6           0        3.826858    0.088557    0.571765
     26          6           0        4.209034   -1.330505    0.149642
     27          6           0        4.953087   -2.093269    1.246169
     28          1           0        4.736656    0.638547    0.849564
     29          1           0        3.202951    0.040184    1.474729
     30          1           0        4.831946   -1.278758   -0.752533
     31          1           0        3.298926   -1.877223   -0.128601
     32          1           0        4.335067   -2.174486    2.146201
     33          1           0        5.876797   -1.572620    1.518724
     34          1           0        5.216678   -3.105224    0.923172
 ---------------------------------------------------------------------

 SCF Done:  E(RHF) =  -669.536312998     A.U. after   15 cycles
 E2 =    -0.2091499978D+01 EUMP2 =    -0.67162781297595D+03

 The electronic state is 1-A.
 Alpha  occ. eigenvalues --  -20.60990 -20.60972 -15.86029 -11.31317 -11.27878
 Alpha  occ. eigenvalues --  -11.27873 -11.27607 -11.26878 -11.26868 -11.21232
 Alpha  occ. eigenvalues --  -11.20851 -11.20695 -11.20614 -11.20456 -11.20358
 Alpha  occ. eigenvalues --   -1.60048  -1.39606  -1.19482  -1.08891  -1.07713
 Alpha  occ. eigenvalues --   -1.04874  -1.02933  -0.95740  -0.95378  -0.86409
 Alpha  occ. eigenvalues --   -0.86276  -0.82577  -0.78989  -0.77663  -0.77449
 Alpha  occ. eigenvalues --   -0.72258  -0.71361  -0.70592  -0.65145  -0.64880
 Alpha  occ. eigenvalues --   -0.64323  -0.62224  -0.60336  -0.58769  -0.56979
 Alpha  occ. eigenvalues --   -0.55380  -0.54662  -0.53207  -0.52964  -0.52132
 Alpha  occ. eigenvalues --   -0.51809  -0.49349  -0.49008  -0.48992  -0.47308
 Alpha  occ. eigenvalues --   -0.46001  -0.45072  -0.45028  -0.44844  -0.43135
 Alpha  occ. eigenvalues --   -0.37460  -0.36474
 Alpha virt. eigenvalues --    0.04891   0.11169   0.16404   0.19987   0.22829
 Alpha virt. eigenvalues --    0.24508   0.26690   0.27484   0.28057   0.28615
 Alpha virt. eigenvalues --    0.29139   0.30725   0.31501   0.32086   0.32486

 Mulliken charges:
               1
     1  C   -0.170468
     2  C   -0.218870
     3  C   -0.172844
     4  C    0.157574
     5  C   -0.170610
     6  C   -0.218592
     7  H    0.226158
     8  H    0.224455
     9  H    0.278040
    10  H    0.275847
    11  H    0.223916
    12  N    0.496760
    13  O   -0.458556
    14  O   -0.470347
    15  C   -0.312178
    16  C   -0.297967
    17  C   -0.477263
    18  H    0.147037
    19  H    0.178922
    20  H    0.150320
    21  H    0.143168
    22  H    0.155326
    23  H    0.157690
    24  H    0.154714
    25  C   -0.295727
    26  C   -0.302924
    27  C   -0.475233
    28  H    0.144512
    29  H    0.146679
    30  H    0.149654
    31  H    0.165893
    32  H    0.153679
    33  H    0.151632
    34  H    0.159601
 Sum of Mulliken charges =  -0.00000

 Dipole moment (field-independent basis, Debye):
    X=             -3.7788    Y=              2.9592    Z=              2.0441  Tot=              5.2167
 Quadrupole moment (field-independent basis, Debye-Ang):
   XX=            -74.4882   YY=            -97.0012   ZZ=            -96.2944
   XY=             -3.1074   XZ=             -5.3850   YZ=             -0.1641

 Normal termination of Gaussian 16 at Thu May  6 10:58:57 2021.
