 Gaussian 16, Revision A.03,
 Gaussian 16:  EM64L-G16RevA.03 25-Dec-2016

 -------------
 #p 6-31g* mp2
 -------------

 ------------------------------------------------------
 Input file generated by CHIRIPA (05-May-2021 14:55:23)
 ------------------------------------------------------
 Symbolic Z-matrix:
 Charge =  0 Multiplicity = 1

                         Standard orientation:
 ---------------------------------------------------------------------
 Center     Atomic      Atomic             Coordinates (Angstroms)
 Number     Number       Type             X           Y           Z
 ---------------------------------------------------------------------
      1          6           0       -5.188857    0.131298   -1.340066
      2          6           0       -4.026286    0.871163   -1.579963
      3          6           0       -2.885906    0.676054   -0.795098
      4          6           0       -2.943412   -0.271381    0.225858
      5          6           0       -4.086718   -1.024098    0.489601
      6          6           0       -5.215316   -0.812307   -0.307869
      7          1           0       -6.070155    0.289343   -1.954664
      8          1           0       -4.002857    1.604654   -2.380891
      9          1           0       -1.972653    1.235092   -0.958999
     10          1           0       -4.079719   -1.748167    1.295265
     11          1           0       -6.116797   -1.388336   -0.119275
     12          7           0       -1.742379   -0.486764    1.063432
     13          8           0       -1.818669   -1.327460    1.956767
     14          8           0       -0.747462    0.189192    0.810727
     15          6           0        4.520305   -0.047946   -0.572459
     16          6           0        4.833491   -1.483072   -0.147824
     17          6           0        5.834017   -2.169784   -1.077968
     18          1           0        4.125801   -0.053506   -1.597778
     19          1           0        5.453867    0.530935   -0.599885
     20          1           0        3.899431   -2.058716   -0.119868
     21          1           0        5.227115   -1.474113    0.876673
     22          1           0        6.780709   -1.620285   -1.098587
     23          1           0        5.445481   -2.208209   -2.100791
     24          1           0        6.043537   -3.194600   -0.755921
     25          6           0        3.521569    0.651808    0.347651
     26          6           0        3.208383    2.086934   -0.076984
     27          6           0        2.207857    2.773646    0.853160
     28          1           0        2.588006    0.072928    0.375078
     29          1           0        3.916074    0.657368    1.372971
     30          1           0        2.814759    2.077975   -1.101481
     31          1           0        4.142443    2.662578   -0.104940
     32          1           0        2.596393    2.812071    1.875983
     33          1           0        1.261165    2.224147    0.873780
     34          1           0        1.998337    3.798461    0.531114
 ---------------------------------------------------------------------

 SCF Done:  E(RHF) =  -669.536352162     A.U. after   15 cycles
 E2 =    -0.2091018507D+01 EUMP2 =    -0.67162737066965D+03

 The electronic state is 1-A.
 Alpha  occ. eigenvalues --  -20.61013 -20.60998 -15.86047 -11.31334 -11.27894
 Alpha  occ. eigenvalues --  -11.27890 -11.27626 -11.26895 -11.26885 -11.20814
 Alpha  occ. eigenvalues --  -11.20599 -11.20520 -11.20460 -11.20191 -11.19821
 Alpha  occ. eigenvalues --   -1.60067  -1.39625  -1.19500  -1.08909  -1.07469
 Alpha  occ. eigenvalues --   -1.04892  -1.02603  -0.95757  -0.95042  -0.86294
 Alpha  occ. eigenvalues --   -0.86059  -0.82595  -0.78686  -0.77652  -0.77245
 Alpha  occ. eigenvalues --   -0.72275  -0.71378  -0.70609  -0.65159  -0.64894
 Alpha  occ. eigenvalues --   -0.64096  -0.62240  -0.59997  -0.58435  -0.56652
 Alpha  occ. eigenvalues --   -0.55397  -0.54314  -0.53225  -0.52983  -0.51781
 Alpha  occ. eigenvalues --   -0.51452  -0.49074  -0.49029  -0.48902  -0.46987
 Alpha  occ. eigenvalues --   -0.45716  -0.45032  -0.44820  -0.44656  -0.42853
 Alpha  occ. eigenvalues --   -0.37477  -0.36492
 Alpha virt. eigenvalues --    0.04867   0.11164   0.16361   0.21211   0.23756
 Alpha virt. eigenvalues --    0.25094   0.27133   0.27453   0.27992   0.28593
 Alpha virt. eigenvalues --    0.29060   0.30773   0.31900   0.32506   0.32640

 Mulliken charges:
               1
     1  C   -0.170518
     2  C   -0.218539
     3  C   -0.170483
     4  C    0.157408
     5  C   -0.170617
     6  C   -0.218574
     7  H    0.226168
     8  H    0.224071
     9  H    0.275678
    10  H    0.275953
    11  H    0.223964
    12  N    0.496121
    13  O   -0.458119
    14  O   -0.468772
    15  C   -0.297442
    16  C   -0.299362
    17  C   -0.475101
    18  H    0.146178
    19  H    0.145908
    20  H    0.154714
    21  H    0.151745
    22  H    0.153408
    23  H    0.153120
    24  H    0.158600
    25  C   -0.303259
    26  C   -0.296603
    27  C   -0.486570
    28  H    0.167084
    29  H    0.148087
    30  H    0.145912
    31  H    0.146415
    32  H    0.152939
    33  H    0.179986
    34  H    0.150502
 Sum of Mulliken charges =  -0.00000

 Dipole moment (field-independent basis, Debye):
    X=             -4.5903    Y=              0.6274    Z=             -2.8548  Tot=              5.4419
 Quadrupole moment (field-independent basis, Debye-Ang):
   XX=            -70.0841   YY=            -94.1943   ZZ=            -95.3201
   XY=              1.2649   XZ=              7.6675   YZ=             -1.4577

 Normal termination of Gaussian 16 at Thu May  6 09:28:51 2021.
