 Gaussian 16, Revision A.03,
 Gaussian 16:  EM64L-G16RevA.03 25-Dec-2016

 -------------
 #p 6-31g* mp2
 -------------

 ------------------------------------------------------
 Input file generated by CHIRIPA (05-May-2021 14:51:10)
 ------------------------------------------------------
 Symbolic Z-matrix:
 Charge =  0 Multiplicity = 1

                         Standard orientation:
 ---------------------------------------------------------------------
 Center     Atomic      Atomic             Coordinates (Angstroms)
 Number     Number       Type             X           Y           Z
 ---------------------------------------------------------------------
      1          6           0        2.796241    1.006375    0.417958
      2          6           0        2.659699    2.263706   -0.441379
      3          6           0        1.803119    3.342776    0.221700
      4          1           0        1.796048    0.604056    0.629377
      5          1           0        3.234754    1.279376    1.387788
      6          1           0        2.222854    1.988198   -1.409819
      7          1           0        3.660344    2.662971   -0.650936
      8          1           0        2.238806    3.646130    1.179173
      9          1           0        0.793148    2.967523    0.415979
     10          1           0        1.718754    4.232702   -0.409785
     11          6           0        3.649750   -0.081518   -0.231457
     12          6           0        3.786292   -1.338850    0.627879
     13          6           0        4.642872   -2.417919   -0.035200
     14          1           0        3.211237   -0.354519   -1.201288
     15          1           0        4.649943    0.320801   -0.442876
     16          1           0        2.785647   -1.738114    0.837437
     17          1           0        4.223137   -1.063341    1.596320
     18          1           0        5.652843   -2.042666   -0.229478
     19          1           0        4.207185   -2.721273   -0.992672
     20          1           0        4.727237   -3.307845    0.596286
     21          6           0       -3.830155   -0.028186   -0.255183
     22          6           0       -5.101552   -0.468354    0.471306
     23          6           0       -6.307575    0.410067    0.137122
     24          1           0       -3.608894    1.015704    0.006125
     25          1           0       -4.010077   -0.047702   -1.338993
     26          1           0       -4.918851   -0.449341    1.553376
     27          1           0       -5.319705   -1.511377    0.208387
     28          1           0       -6.518011    0.383084   -0.936931
     29          1           0       -6.114878    1.451154    0.415699
     30          1           0       -7.205549    0.077662    0.667225
     31          6           0       -2.615836   -0.896671    0.068683
     32          6           0       -1.344439   -0.456503   -0.657807
     33          6           0       -0.138417   -1.334923   -0.323622
     34          1           0       -2.435913   -0.877155    1.152491
     35          1           0       -2.837096   -1.940561   -0.192626
     36          1           0       -1.126285    0.586521   -0.394889
     37          1           0       -1.527140   -0.475515   -1.739876
     38          1           0       -0.331112   -2.376012   -0.602200
     39          1           0        0.072020   -1.307941    0.750431
     40          1           0        0.759558   -1.002519   -0.853725
 ---------------------------------------------------------------------

 SCF Done:  E(RHF) =  -470.732047509     A.U. after   11 cycles
 E2 =    -0.1584608122D+01 EUMP2 =    -0.47231665563051D+03

 The electronic state is 1-A.
 Alpha  occ. eigenvalues --  -11.21714 -11.21637 -11.21564 -11.21495 -11.21469
 Alpha  occ. eigenvalues --  -11.21404 -11.21338 -11.21232 -11.21158 -11.21096
 Alpha  occ. eigenvalues --  -11.21070 -11.21006  -1.08514  -1.08364  -1.03608
 Alpha  occ. eigenvalues --   -1.03476  -0.96095  -0.95903  -0.87087  -0.86948
 Alpha  occ. eigenvalues --   -0.79684  -0.79539  -0.78312  -0.78181  -0.65285
 Alpha  occ. eigenvalues --   -0.64975  -0.61030  -0.60854  -0.59403  -0.59293
 Alpha  occ. eigenvalues --   -0.57673  -0.57540  -0.55458  -0.55141  -0.52754
 Alpha  occ. eigenvalues --   -0.52595  -0.52491  -0.52328  -0.50054  -0.49845
 Alpha  occ. eigenvalues --   -0.47991  -0.47863  -0.46751  -0.46551  -0.45894
 Alpha  occ. eigenvalues --   -0.45776  -0.45710  -0.45491  -0.43828  -0.43706
 Alpha virt. eigenvalues --    0.20153   0.22750   0.23493   0.24669   0.25735
 Alpha virt. eigenvalues --    0.26398   0.26736   0.27284   0.28161   0.29922
 Alpha virt. eigenvalues --    0.30151   0.31336   0.31817   0.31889   0.32427

 Mulliken charges:
               1
     1  C   -0.306387
     2  C   -0.299193
     3  C   -0.476604
     4  H    0.159904
     5  H    0.149046
     6  H    0.151330
     7  H    0.151899
     8  H    0.155229
     9  H    0.155033
    10  H    0.160287
    11  C   -0.300176
    12  C   -0.304386
    13  C   -0.475397
    14  H    0.148350
    15  H    0.150356
    16  H    0.158607
    17  H    0.151340
    18  H    0.154762
    19  H    0.154949
    20  H    0.159977
    21  C   -0.298345
    22  C   -0.299709
    23  C   -0.475761
    24  H    0.149790
    25  H    0.149673
    26  H    0.152057
    27  H    0.152007
    28  H    0.155234
    29  H    0.155328
    30  H    0.160394
    31  C   -0.298643
    32  C   -0.302950
    33  C   -0.483200
    34  H    0.149880
    35  H    0.150062
    36  H    0.153225
    37  H    0.152591
    38  H    0.156545
    39  H    0.155836
    40  H    0.167057
 Sum of Mulliken charges =  -0.00000

 Dipole moment (field-independent basis, Debye):
    X=             -0.0553    Y=             -0.0295    Z=              0.0079  Tot=              0.0632
 Quadrupole moment (field-independent basis, Debye-Ang):
   XX=            -85.4793   YY=            -85.3667   ZZ=            -84.1303
   XY=              1.5016   XZ=              0.6427   YZ=              0.4350

 Normal termination of Gaussian 16 at Thu May  6 00:36:23 2021.
