 Gaussian 16, Revision A.03,
 Gaussian 16:  EM64L-G16RevA.03 25-Dec-2016

 -------------
 #p 6-31g* mp2
 -------------

 ------------------------------------------------------
 Input file generated by CHIRIPA (05-May-2021 14:55:19)
 ------------------------------------------------------
 Symbolic Z-matrix:
 Charge =  0 Multiplicity = 1

                         Standard orientation:
 ---------------------------------------------------------------------
 Center     Atomic      Atomic             Coordinates (Angstroms)
 Number     Number       Type             X           Y           Z
 ---------------------------------------------------------------------
      1          6           0        1.850685    0.598063   -0.054907
      2          6           0        2.244894   -0.742291    0.012714
      3          6           0        3.600502   -1.083381    0.035764
      4          6           0        4.539391   -0.053988   -0.010391
      5          6           0        4.178139    1.290707   -0.078071
      6          6           0        2.816863    1.608503   -0.100004
      7          1           0        0.795415    0.853982   -0.072379
      8          1           0        1.496743   -1.529108    0.047850
      9          1           0        3.933487   -2.112860    0.087841
     10          1           0        4.947067    2.052956   -0.111905
     11          1           0        2.513630    2.650296   -0.152548
     12          7           0        5.977513   -0.402755    0.013420
     13          8           0        6.785143    0.522790   -0.028249
     14          8           0        6.269851   -1.595059    0.073300
     15          6           0       -4.820434   -0.058474   -0.311973
     16          6           0       -3.676122    0.408879    0.588091
     17          6           0       -2.308854    0.294784   -0.086706
     18          1           0       -4.642431   -1.101069   -0.609053
     19          1           0       -4.816204    0.535095   -1.236664
     20          1           0       -3.683363   -0.184462    1.511406
     21          1           0       -3.856969    1.450422    0.883219
     22          1           0       -2.277244    0.900715   -0.997995
     23          1           0       -2.102651   -0.743457   -0.366238
     24          1           0       -1.505316    0.634126    0.574381
     25          6           0       -6.193634    0.049534    0.348620
     26          6           0       -7.337947   -0.417820   -0.551444
     27          6           0       -8.705216   -0.303724    0.123353
     28          1           0       -6.197866   -0.544035    1.273311
     29          1           0       -6.371638    1.092128    0.645700
     30          1           0       -7.157101   -1.459362   -0.846572
     31          1           0       -7.330707    0.175521   -1.474759
     32          1           0       -8.911418    0.734516    0.402886
     33          1           0       -8.736825   -0.909656    1.034643
     34          1           0       -9.508753   -0.643067   -0.537734
 ---------------------------------------------------------------------

 SCF Done:  E(RHF) =  -669.535638168     A.U. after   15 cycles
 E2 =    -0.2090694368D+01 EUMP2 =    -0.67162633253574D+03

 The electronic state is 1-A.
 Alpha  occ. eigenvalues --  -20.60700 -20.60695 -15.85754 -11.31100 -11.27672
 Alpha  occ. eigenvalues --  -11.27668 -11.27348 -11.26672 -11.26660 -11.22580
 Alpha  occ. eigenvalues --  -11.22430 -11.22152 -11.22106 -11.21977 -11.21490
 Alpha  occ. eigenvalues --   -1.59776  -1.39330  -1.19269  -1.09164  -1.08661
 Alpha  occ. eigenvalues --   -1.04673  -1.04315  -0.96797  -0.95500  -0.87826
 Alpha  occ. eigenvalues --   -0.86066  -0.82339  -0.80391  -0.78925  -0.77392
 Alpha  occ. eigenvalues --   -0.71971  -0.71100  -0.70380  -0.65787  -0.64918
 Alpha  occ. eigenvalues --   -0.64678  -0.62024  -0.61702  -0.60235  -0.58376
 Alpha  occ. eigenvalues --   -0.56070  -0.55233  -0.53428  -0.53208  -0.52998
 Alpha  occ. eigenvalues --   -0.52762  -0.50722  -0.48733  -0.48728  -0.48692
 Alpha  occ. eigenvalues --   -0.47392  -0.46482  -0.46371  -0.44740  -0.44555
 Alpha  occ. eigenvalues --   -0.37239  -0.36283
 Alpha virt. eigenvalues --    0.05140   0.11372   0.16618   0.20224   0.22318
 Alpha virt. eigenvalues --    0.23763   0.25881   0.25947   0.26713   0.27357
 Alpha virt. eigenvalues --    0.28610   0.29980   0.30843   0.31332   0.32400

 Mulliken charges:
               1
     1  C   -0.177993
     2  C   -0.221488
     3  C   -0.170942
     4  C    0.158152
     5  C   -0.170711
     6  C   -0.220495
     7  H    0.237947
     8  H    0.223350
     9  H    0.275214
    10  H    0.275174
    11  H    0.223434
    12  N    0.488044
    13  O   -0.460705
    14  O   -0.460725
    15  C   -0.299450
    16  C   -0.298914
    17  C   -0.482637
    18  H    0.150595
    19  H    0.150670
    20  H    0.154712
    21  H    0.154444
    22  H    0.157956
    23  H    0.156253
    24  H    0.153596
    25  C   -0.298945
    26  C   -0.300142
    27  C   -0.476089
    28  H    0.150608
    29  H    0.150608
    30  H    0.152591
    31  H    0.152555
    32  H    0.155754
    33  H    0.155844
    34  H    0.161734
 Sum of Mulliken charges =  -0.00000

 Dipole moment (field-independent basis, Debye):
    X=             -5.3745    Y=              1.2237    Z=             -0.0885  Tot=              5.5128
 Quadrupole moment (field-independent basis, Debye-Ang):
   XX=           -141.2805   YY=            -89.2804   ZZ=            -95.6500
   XY=              7.1441   XZ=             -0.0162   YZ=             -0.6471

 Normal termination of Gaussian 16 at Wed May  5 15:51:26 2021.
