 Gaussian 16, Revision A.03,
 Gaussian 16:  EM64L-G16RevA.03 25-Dec-2016

 -------------
 #p 6-31g* mp2
 -------------

 ------------------------------------------------------
 Input file generated by CHIRIPA (05-May-2021 14:51:12)
 ------------------------------------------------------
 Symbolic Z-matrix:
 Charge =  0 Multiplicity = 1

                         Standard orientation:
 ---------------------------------------------------------------------
 Center     Atomic      Atomic             Coordinates (Angstroms)
 Number     Number       Type             X           Y           Z
 ---------------------------------------------------------------------
      1          6           0        1.768607    0.992038   -0.200130
      2          6           0        2.260080    2.265963    0.488023
      3          6           0        1.139587    3.278306    0.727710
      4          1           0        1.301163    1.257447   -1.158253
      5          1           0        0.982496    0.531666    0.414266
      6          1           0        3.045999    2.723053   -0.126808
      7          1           0        2.726580    1.997472    1.444530
      8          1           0        0.357833    2.845160    1.360044
      9          1           0        0.679067    3.574864   -0.220222
     10          1           0        1.513055    4.181322    1.220604
     11          6           0        2.877245   -0.029687   -0.446560
     12          6           0        2.385772   -1.303612   -1.134713
     13          6           0        3.506265   -2.315955   -1.374400
     14          1           0        3.663356    0.430685   -1.060956
     15          1           0        3.344689   -0.295096    0.511563
     16          1           0        1.919273   -1.035121   -2.091220
     17          1           0        1.599854   -1.760701   -0.519882
     18          1           0        3.966786   -2.612512   -0.426468
     19          1           0        4.288020   -1.882809   -2.006734
     20          1           0        3.132798   -3.218971   -1.867294
     21          6           0       -2.129086   -0.419212    1.059564
     22          6           0       -1.176186   -1.518474    1.530296
     23          6           0       -0.797587   -1.380941    3.005268
     24          1           0       -1.661478    0.560234    1.229778
     25          1           0       -3.038262   -0.442911    1.676195
     26          1           0       -0.269664   -1.493601    0.912060
     27          1           0       -1.646038   -2.495424    1.358766
     28          1           0       -1.689810   -1.427780    3.637996
     29          1           0       -0.305616   -0.420264    3.188753
     30          1           0       -0.115842   -2.176936    3.320666
     31          6           0       -2.516766   -0.543140   -0.412874
     32          6           0       -3.469666    0.556123   -0.883606
     33          6           0       -3.848266    0.418590   -2.358579
     34          1           0       -1.607591   -0.519440   -1.029505
     35          1           0       -2.984374   -1.522586   -0.583088
     36          1           0       -2.999814    1.533073   -0.712076
     37          1           0       -4.376188    0.531249   -0.265370
     38          1           0       -4.340236   -0.542087   -2.542063
     39          1           0       -2.956043    0.465429   -2.991306
     40          1           0       -4.530010    1.214584   -2.673976
 ---------------------------------------------------------------------

 SCF Done:  E(RHF) =  -470.732750679     A.U. after   11 cycles
 E2 =    -0.1585092119D+01 EUMP2 =    -0.47231784279843D+03

 The electronic state is 1-A.
 Alpha  occ. eigenvalues --  -11.21670 -11.21650 -11.21605 -11.21567 -11.21465
 Alpha  occ. eigenvalues --  -11.21405 -11.21394 -11.21320 -11.21156 -11.21132
 Alpha  occ. eigenvalues --  -11.21107 -11.21050  -1.08533  -1.08398  -1.03594
 Alpha  occ. eigenvalues --   -1.03539  -0.96042  -0.95984  -0.87058  -0.87003
 Alpha  occ. eigenvalues --   -0.79694  -0.79579  -0.78389  -0.78177  -0.65441
 Alpha  occ. eigenvalues --   -0.64801  -0.61002  -0.60939  -0.59433  -0.59330
 Alpha  occ. eigenvalues --   -0.57658  -0.57587  -0.55342  -0.55261  -0.52741
 Alpha  occ. eigenvalues --   -0.52677  -0.52466  -0.52411  -0.49989  -0.49951
 Alpha  occ. eigenvalues --   -0.48064  -0.47919  -0.46920  -0.46566  -0.46181
 Alpha  occ. eigenvalues --   -0.45788  -0.45683  -0.45126  -0.43843  -0.43779
 Alpha virt. eigenvalues --    0.19450   0.22606   0.23523   0.24089   0.25396
 Alpha virt. eigenvalues --    0.26194   0.26923   0.27977   0.28615   0.30099
 Alpha virt. eigenvalues --    0.30483   0.31421   0.31690   0.31928   0.32349

 Mulliken charges:
               1
     1  C   -0.307722
     2  C   -0.299369
     3  C   -0.477505
     4  H    0.149292
     5  H    0.159245
     6  H    0.152377
     7  H    0.152188
     8  H    0.155746
     9  H    0.155293
    10  H    0.160958
    11  C   -0.297733
    12  C   -0.308058
    13  C   -0.475169
    14  H    0.149903
    15  H    0.149757
    16  H    0.151818
    17  H    0.159383
    18  H    0.155313
    19  H    0.155333
    20  H    0.160585
    21  C   -0.300681
    22  C   -0.311778
    23  C   -0.475772
    24  H    0.151483
    25  H    0.149934
    26  H    0.161511
    27  H    0.152826
    28  H    0.155943
    29  H    0.154249
    30  H    0.160147
    31  C   -0.299708
    32  C   -0.299907
    33  C   -0.475646
    34  H    0.151898
    35  H    0.149350
    36  H    0.152588
    37  H    0.151703
    38  H    0.155073
    39  H    0.155005
    40  H    0.160148
 Sum of Mulliken charges =  -0.00000

 Dipole moment (field-independent basis, Debye):
    X=              0.0231    Y=             -0.0038    Z=             -0.0072  Tot=              0.0245
 Quadrupole moment (field-independent basis, Debye-Ang):
   XX=            -84.7219   YY=            -84.9195   ZZ=            -85.0795
   XY=              1.1442   XZ=             -0.5946   YZ=             -0.6944

 Normal termination of Gaussian 16 at Wed May  5 18:18:24 2021.
