 Gaussian 16, Revision A.03,
 Gaussian 16:  EM64L-G16RevA.03 25-Dec-2016

 -------------
 #p 6-31g* mp2
 -------------

 ------------------------------------------------------
 Input file generated by CHIRIPA (05-May-2021 14:51:11)
 ------------------------------------------------------
 Symbolic Z-matrix:
 Charge =  0 Multiplicity = 1

                         Standard orientation:
 ---------------------------------------------------------------------
 Center     Atomic      Atomic             Coordinates (Angstroms)
 Number     Number       Type             X           Y           Z
 ---------------------------------------------------------------------
      1          6           0        3.975251    1.005685    0.145989
      2          6           0        2.758505    1.843650   -0.248129
      3          6           0        2.953496    3.334950    0.027180
      4          1           0        4.187565    1.158329    1.213025
      5          1           0        4.855182    1.368835   -0.402863
      6          1           0        1.880852    1.478132    0.300266
      7          1           0        2.548947    1.688844   -1.314308
      8          1           0        3.812024    3.720882   -0.531916
      9          1           0        3.140133    3.508972    1.091832
     10          1           0        2.071719    3.915232   -0.261960
     11          6           0        3.795554   -0.487288   -0.123211
     12          6           0        5.012300   -1.325253    0.270907
     13          6           0        4.817310   -2.816553   -0.004403
     14          1           0        2.915623   -0.850438    0.425641
     15          1           0        3.583240   -0.639932   -1.190248
     16          1           0        5.221858   -1.170448    1.337085
     17          1           0        5.889953   -0.959735   -0.277489
     18          1           0        4.630673   -2.990575   -1.069055
     19          1           0        3.958782   -3.202485    0.554693
     20          1           0        5.699087   -3.396835    0.284738
     21          6           0       -3.257773   -0.675654   -0.138186
     22          6           0       -1.959778    0.107017    0.063360
     23          6           0       -0.712902   -0.739663   -0.193995
     24          1           0       -3.260385   -1.547428    0.530356
     25          1           0       -3.285430   -1.068380   -1.164049
     26          1           0       -1.935216    0.499317    1.088110
     27          1           0       -1.960341    0.977135   -0.605602
     28          1           0       -0.710332   -1.119451   -1.220813
     29          1           0       -0.685065   -1.599983    0.482521
     30          1           0        0.203599   -0.160485   -0.044198
     31          6           0       -4.513032    0.157257    0.115409
     32          6           0       -5.811027   -0.625414   -0.086138
     33          6           0       -7.057903    0.221266    0.171218
     34          1           0       -4.485376    0.549983    1.141272
     35          1           0       -4.510421    1.029031   -0.553133
     36          1           0       -5.810464   -1.495532    0.582824
     37          1           0       -5.835590   -1.017715   -1.110887
     38          1           0       -7.085741    1.081586   -0.505300
     39          1           0       -7.060473    0.601054    1.198036
     40          1           0       -7.974404   -0.357912    0.021420
 ---------------------------------------------------------------------

 SCF Done:  E(RHF) =  -470.733171010     A.U. after   11 cycles
 E2 =    -0.1582788073D+01 EUMP2 =    -0.47231595908221D+03

 The electronic state is 1-A.
 Alpha  occ. eigenvalues --  -11.21621 -11.21593 -11.21582 -11.21578 -11.21396
 Alpha  occ. eigenvalues --  -11.21390 -11.21330 -11.21329 -11.21084 -11.21065
 Alpha  occ. eigenvalues --  -11.21043 -11.20990  -1.08434  -1.08407  -1.03537
 Alpha  occ. eigenvalues --   -1.03500  -0.95973  -0.95956  -0.86999  -0.86965
 Alpha  occ. eigenvalues --   -0.79620  -0.79554  -0.78252  -0.78216  -0.65070
 Alpha  occ. eigenvalues --   -0.65042  -0.60940  -0.60904  -0.59455  -0.59227
 Alpha  occ. eigenvalues --   -0.57599  -0.57555  -0.55262  -0.55236  -0.52784
 Alpha  occ. eigenvalues --   -0.52575  -0.52432  -0.52344  -0.49917  -0.49893
 Alpha  occ. eigenvalues --   -0.48017  -0.47796  -0.46621  -0.46606  -0.45779
 Alpha  occ. eigenvalues --   -0.45762  -0.45707  -0.45684  -0.43798  -0.43669
 Alpha virt. eigenvalues --    0.21731   0.23059   0.23698   0.24528   0.25894
 Alpha virt. eigenvalues --    0.26656   0.26923   0.27481   0.27939   0.29050
 Alpha virt. eigenvalues --    0.30665   0.31438   0.31616   0.31891   0.32019

 Mulliken charges:
               1
     1  C   -0.298105
     2  C   -0.305280
     3  C   -0.475121
     4  H    0.149385
     5  H    0.149584
     6  H    0.156742
     7  H    0.152287
     8  H    0.155288
     9  H    0.155161
    10  H    0.160367
    11  C   -0.300824
    12  C   -0.299651
    13  C   -0.475639
    14  H    0.152587
    15  H    0.149874
    16  H    0.151761
    17  H    0.151842
    18  H    0.155255
    19  H    0.155472
    20  H    0.160052
    21  C   -0.298252
    22  C   -0.299216
    23  C   -0.484911
    24  H    0.149542
    25  H    0.149555
    26  H    0.151218
    27  H    0.151951
    28  H    0.155259
    29  H    0.154155
    30  H    0.169800
    31  C   -0.298204
    32  C   -0.299626
    33  C   -0.475691
    34  H    0.149412
    35  H    0.149605
    36  H    0.151906
    37  H    0.151926
    38  H    0.155163
    39  H    0.155145
    40  H    0.160223
 Sum of Mulliken charges =  -0.00000

 Dipole moment (field-independent basis, Debye):
    X=              0.0247    Y=              0.0083    Z=             -0.0071  Tot=              0.0270
 Quadrupole moment (field-independent basis, Debye-Ang):
   XX=            -85.6993   YY=            -86.1704   ZZ=            -82.9337
   XY=              0.5270   XZ=             -0.2036   YZ=             -0.6285

 Normal termination of Gaussian 16 at Wed May  5 21:29:25 2021.
