 Gaussian 16, Revision A.03,
 Gaussian 16:  EM64L-G16RevA.03 25-Dec-2016

 -------------
 #p 6-31g* mp2
 -------------

 ------------------------------------------------------
 Input file generated by CHIRIPA (05-May-2021 14:55:23)
 ------------------------------------------------------
 Symbolic Z-matrix:
 Charge =  0 Multiplicity = 1

                         Standard orientation:
 ---------------------------------------------------------------------
 Center     Atomic      Atomic             Coordinates (Angstroms)
 Number     Number       Type             X           Y           Z
 ---------------------------------------------------------------------
      1          6           0       -2.362431    2.192542    0.400585
      2          6           0       -2.079158    1.693975   -0.875231
      3          6           0       -2.095844    0.317524   -1.119472
      4          6           0       -2.401206   -0.535564   -0.060092
      5          6           0       -2.687818   -0.069460    1.222050
      6          6           0       -2.665323    1.310788    1.443316
      7          1           0       -2.347213    3.263276    0.581394
      8          1           0       -1.843597    2.376405   -1.686924
      9          1           0       -1.880408   -0.095477   -2.097447
     10          1           0       -2.919146   -0.774519    2.011226
     11          1           0       -2.885722    1.695148    2.435151
     12          7           0       -2.421946   -1.994761   -0.306498
     13          8           0       -2.693918   -2.725413    0.643668
     14          8           0       -2.165837   -2.380196   -1.445130
     15          6           0        2.571133    0.893953    0.287359
     16          6           0        2.359967    2.071450   -0.664952
     17          6           0        1.360921    3.095786   -0.126033
     18          1           0        1.605796    0.403761    0.473858
     19          1           0        2.921262    1.273922    1.257115
     20          1           0        2.011665    1.689258   -1.633058
     21          1           0        3.325950    2.558779   -0.849357
     22          1           0        1.705918    3.504776    0.829113
     23          1           0        0.384166    2.630314    0.040959
     24          1           0        1.225039    3.928978   -0.822587
     25          6           0        3.567205   -0.138571   -0.237485
     26          6           0        3.778370   -1.316069    0.714826
     27          6           0        4.777417   -2.340405    0.175906
     28          1           0        3.217076   -0.518540   -1.207242
     29          1           0        4.532542    0.351621   -0.423985
     30          1           0        2.812388   -1.803398    0.899230
     31          1           0        4.126673   -0.933877    1.682932
     32          1           0        5.754172   -1.874933    0.008915
     33          1           0        4.432419   -2.749395   -0.779239
     34          1           0        4.913299   -3.173596    0.872461
 ---------------------------------------------------------------------

 SCF Done:  E(RHF) =  -669.534595842     A.U. after   15 cycles
 E2 =    -0.2093142768D+01 EUMP2 =    -0.67162773861075D+03

 The electronic state is 1-A.
 Alpha  occ. eigenvalues --  -20.60858 -20.60853 -15.85913 -11.31307 -11.27866
 Alpha  occ. eigenvalues --  -11.27861 -11.27581 -11.26875 -11.26859 -11.21889
 Alpha  occ. eigenvalues --  -11.21515 -11.21502 -11.21401 -11.21371 -11.20915
 Alpha  occ. eigenvalues --   -1.59934  -1.39487  -1.19484  -1.08880  -1.08512
 Alpha  occ. eigenvalues --   -1.04883  -1.03629  -0.96102  -0.95692  -0.87128
 Alpha  occ. eigenvalues --   -0.86269  -0.82522  -0.79715  -0.78308  -0.77568
 Alpha  occ. eigenvalues --   -0.72129  -0.71260  -0.70572  -0.65182  -0.65112
 Alpha  occ. eigenvalues --   -0.64861  -0.62223  -0.61045  -0.59481  -0.57706
 Alpha  occ. eigenvalues --   -0.55464  -0.55363  -0.53300  -0.52962  -0.52793
 Alpha  occ. eigenvalues --   -0.52437  -0.50013  -0.48890  -0.48883  -0.48016
 Alpha  occ. eigenvalues --   -0.46732  -0.45852  -0.45756  -0.44887  -0.43885
 Alpha  occ. eigenvalues --   -0.37364  -0.36455
 Alpha virt. eigenvalues --    0.04937   0.11121   0.16385   0.21072   0.22841
 Alpha virt. eigenvalues --    0.24288   0.26536   0.27042   0.27337   0.27882
 Alpha virt. eigenvalues --    0.28732   0.30760   0.31386   0.31758   0.32103

 Mulliken charges:
               1
     1  C   -0.172101
     2  C   -0.218642
     3  C   -0.171541
     4  C    0.158186
     5  C   -0.171062
     6  C   -0.217746
     7  H    0.228540
     8  H    0.226367
     9  H    0.275980
    10  H    0.276151
    11  H    0.224391
    12  N    0.487977
    13  O   -0.459995
    14  O   -0.460247
    15  C   -0.298996
    16  C   -0.297150
    17  C   -0.488082
    18  H    0.151548
    19  H    0.148696
    20  H    0.149369
    21  H    0.152741
    22  H    0.154352
    23  H    0.164013
    24  H    0.153909
    25  C   -0.298691
    26  C   -0.300275
    27  C   -0.475961
    28  H    0.151056
    29  H    0.148934
    30  H    0.155212
    31  H    0.150589
    32  H    0.153814
    33  H    0.157296
    34  H    0.161370
 Sum of Mulliken charges =  -0.00000

 Dipole moment (field-independent basis, Debye):
    X=             -0.0199    Y=              5.0382    Z=              0.8986  Tot=              5.1178
 Quadrupole moment (field-independent basis, Debye-Ang):
   XX=            -95.4259   YY=           -101.5385   ZZ=            -90.1817
   XY=            -11.7649   XZ=             -2.9696   YZ=             -1.5325

 Normal termination of Gaussian 16 at Thu May  6 14:17:40 2021.
