 Gaussian 16, Revision A.03,
 Gaussian 16:  EM64L-G16RevA.03 25-Dec-2016

 -------------
 #p 6-31g* mp2
 -------------

 ------------------------------------------------------
 Input file generated by CHIRIPA (05-May-2021 14:55:20)
 ------------------------------------------------------
 Symbolic Z-matrix:
 Charge =  0 Multiplicity = 1

                         Standard orientation:
 ---------------------------------------------------------------------
 Center     Atomic      Atomic             Coordinates (Angstroms)
 Number     Number       Type             X           Y           Z
 ---------------------------------------------------------------------
      1          6           0       -2.821209    2.350856   -0.177824
      2          6           0       -2.059659    1.225351   -0.509186
      3          6           0       -2.613797   -0.055667   -0.428742
      4          6           0       -3.938470   -0.175065   -0.011278
      5          6           0       -4.722884    0.926961    0.325651
      6          6           0       -4.148051    2.198338    0.237805
      7          1           0       -2.382703    3.342237   -0.243190
      8          1           0       -1.028965    1.340787   -0.832280
      9          1           0       -2.046875   -0.944062   -0.679285
     10          1           0       -5.747693    0.780157    0.644450
     11          1           0       -4.741855    3.070631    0.495773
     12          7           0       -4.536065   -1.526118    0.077803
     13          8           0       -5.705330   -1.604519    0.448356
     14          8           0       -3.823880   -2.481091   -0.224615
     15          6           0        4.282818    0.349004    0.157771
     16          6           0        3.000817   -0.371558   -0.260856
     17          6           0        1.744252    0.461282   -0.005482
     18          1           0        4.220834    0.604142    1.224545
     19          1           0        4.355223    1.300269   -0.387431
     20          1           0        2.931549   -1.321825    0.283948
     21          1           0        3.065941   -0.625181   -1.326712
     22          1           0        1.786951    1.403433   -0.561476
     23          1           0        1.651795    0.702830    1.058335
     24          1           0        0.839460   -0.072821   -0.311989
     25          6           0        5.547528   -0.470871   -0.091314
     26          6           0        6.829529    0.249691    0.327313
     27          6           0        8.086094   -0.583149    0.071939
     28          1           0        5.475123   -1.422137    0.453888
     29          1           0        5.609512   -0.726009   -1.158088
     30          1           0        6.764405    0.503314    1.393169
     31          1           0        6.898798    1.199958   -0.217491
     32          1           0        8.178551   -0.824698   -0.991878
     33          1           0        8.043395   -1.525300    0.627933
     34          1           0        8.990885   -0.049046    0.378445
 ---------------------------------------------------------------------

 SCF Done:  E(RHF) =  -669.535278721     A.U. after   15 cycles
 E2 =    -0.2091180750D+01 EUMP2 =    -0.67162645947148D+03

 The electronic state is 1-A.
 Alpha  occ. eigenvalues --  -20.60711 -20.60706 -15.85763 -11.31114 -11.27675
 Alpha  occ. eigenvalues --  -11.27664 -11.27396 -11.26695 -11.26605 -11.22267
 Alpha  occ. eigenvalues --  -11.22096 -11.21927 -11.21911 -11.21757 -11.21323
 Alpha  occ. eigenvalues --   -1.59787  -1.39341  -1.19275  -1.08925  -1.08672
 Alpha  occ. eigenvalues --   -1.04678  -1.04072  -0.96556  -0.95514  -0.87593
 Alpha  occ. eigenvalues --   -0.86067  -0.82349  -0.80147  -0.78701  -0.77396
 Alpha  occ. eigenvalues --   -0.71982  -0.71109  -0.70389  -0.65549  -0.64929
 Alpha  occ. eigenvalues --   -0.64691  -0.62094  -0.61457  -0.59908  -0.58135
 Alpha  occ. eigenvalues --   -0.55835  -0.55181  -0.53419  -0.52997  -0.52967
 Alpha  occ. eigenvalues --   -0.52604  -0.50476  -0.48739  -0.48736  -0.48456
 Alpha  occ. eigenvalues --   -0.47146  -0.46255  -0.46152  -0.44750  -0.44313
 Alpha  occ. eigenvalues --   -0.37255  -0.36267
 Alpha virt. eigenvalues --    0.05124   0.11366   0.16590   0.20467   0.22524
 Alpha virt. eigenvalues --    0.23784   0.25905   0.26126   0.26656   0.27714
 Alpha virt. eigenvalues --    0.28730   0.30123   0.31046   0.31189   0.32091

 Mulliken charges:
               1
     1  C   -0.172330
     2  C   -0.222026
     3  C   -0.173908
     4  C    0.158690
     5  C   -0.171466
     6  C   -0.218378
     7  H    0.225420
     8  H    0.232705
     9  H    0.274773
    10  H    0.275239
    11  H    0.222992
    12  N    0.488206
    13  O   -0.460690
    14  O   -0.460745
    15  C   -0.299308
    16  C   -0.299797
    17  C   -0.480384
    18  H    0.150778
    19  H    0.148973
    20  H    0.156727
    21  H    0.153680
    22  H    0.151203
    23  H    0.161041
    24  H    0.154621
    25  C   -0.298922
    26  C   -0.299979
    27  C   -0.476017
    28  H    0.151365
    29  H    0.150490
    30  H    0.152427
    31  H    0.151717
    32  H    0.155665
    33  H    0.156173
    34  H    0.161067
 Sum of Mulliken charges =  -0.00000

 Dipole moment (field-independent basis, Debye):
    X=              2.3318    Y=              4.7425    Z=             -0.2715  Tot=              5.2917
 Quadrupole moment (field-independent basis, Debye-Ang):
   XX=           -108.1889   YY=            -96.2462   ZZ=            -94.2197
   XY=            -20.9282   XZ=             -0.2123   YZ=              0.2890

 Normal termination of Gaussian 16 at Thu May  6 02:56:04 2021.
