 Gaussian 16, Revision A.03,
 Gaussian 16:  EM64L-G16RevA.03 25-Dec-2016

 -------------
 #p 6-31g* mp2
 -------------

 ------------------------------------------------------
 Input file generated by CHIRIPA (05-May-2021 14:55:24)
 ------------------------------------------------------
 Symbolic Z-matrix:
 Charge =  0 Multiplicity = 1

                         Standard orientation:
 ---------------------------------------------------------------------
 Center     Atomic      Atomic             Coordinates (Angstroms)
 Number     Number       Type             X           Y           Z
 ---------------------------------------------------------------------
      1          6           0        3.433653    1.483028    0.571887
      2          6           0        2.276643    1.218727    1.312154
      3          6           0        1.534668    0.056927    1.079258
      4          6           0        1.980575   -0.822729    0.094037
      5          6           0        3.129128   -0.587422   -0.660117
      6          6           0        3.855458    0.580700   -0.410155
      7          1           0        4.003960    2.387998    0.759434
      8          1           0        1.946691    1.917697    2.075448
      9          1           0        0.635240   -0.172412    1.637694
     10          1           0        3.433041   -1.303052   -1.414391
     11          1           0        4.753618    0.783368   -0.986592
     12          7           0        1.203360   -2.056022   -0.161553
     13          8           0        1.617312   -2.815075   -1.035120
     14          8           0        0.194944   -2.240271    0.516522
     15          6           0       -2.144486    1.156639   -0.553161
     16          6           0       -1.946143    2.602573   -0.097177
     17          6           0       -0.833174    3.316996   -0.864441
     18          1           0       -1.201122    0.607287   -0.429784
     19          1           0       -2.373821    1.146569   -1.627729
     20          1           0       -1.718614    2.610007    0.976503
     21          1           0       -2.890142    3.148497   -0.221474
     22          1           0       -1.056847    3.339181   -1.935926
     23          1           0        0.121338    2.797631   -0.731141
     24          1           0       -0.708443    4.349156   -0.522463
     25          6           0       -3.253709    0.429198    0.204588
     26          6           0       -3.452052   -1.016735   -0.251395
     27          6           0       -4.565021   -1.731158    0.515869
     28          1           0       -3.024373    0.439268    1.279157
     29          1           0       -4.197073    0.978551    0.081212
     30          1           0       -2.508053   -1.562660   -0.127099
     31          1           0       -3.679582   -1.024169   -1.325076
     32          1           0       -5.519532   -1.211794    0.382569
     33          1           0       -4.341348   -1.753344    1.587353
     34          1           0       -4.689752   -2.763318    0.173890
 ---------------------------------------------------------------------

 SCF Done:  E(RHF) =  -669.536503439     A.U. after   15 cycles
 E2 =    -0.2093663657D+01 EUMP2 =    -0.67163016709570D+03

 The electronic state is 1-A.
 Alpha  occ. eigenvalues --  -20.61055 -20.61048 -15.86069 -11.31382 -11.27954
 Alpha  occ. eigenvalues --  -11.27929 -11.27674 -11.26955 -11.26929 -11.21609
 Alpha  occ. eigenvalues --  -11.21143 -11.21098 -11.20892 -11.20591 -11.20273
 Alpha  occ. eigenvalues --   -1.60100  -1.39659  -1.19553  -1.08953  -1.08041
 Alpha  occ. eigenvalues --   -1.04946  -1.03100  -0.95797  -0.95596  -0.86625
 Alpha  occ. eigenvalues --   -0.86337  -0.82631  -0.79215  -0.77827  -0.77639
 Alpha  occ. eigenvalues --   -0.72296  -0.71408  -0.70651  -0.65209  -0.64953
 Alpha  occ. eigenvalues --   -0.64673  -0.62283  -0.60497  -0.59008  -0.57172
 Alpha  occ. eigenvalues --   -0.55442  -0.54903  -0.53274  -0.53025  -0.52305
 Alpha  occ. eigenvalues --   -0.52007  -0.49569  -0.49063  -0.49049  -0.47511
 Alpha  occ. eigenvalues --   -0.46252  -0.45604  -0.45317  -0.44624  -0.43367
 Alpha  occ. eigenvalues --   -0.37508  -0.36507
 Alpha virt. eigenvalues --    0.04791   0.11004   0.16242   0.20594   0.23046
 Alpha virt. eigenvalues --    0.24630   0.26309   0.27421   0.27840   0.28020
 Alpha virt. eigenvalues --    0.28919   0.30958   0.31724   0.32014   0.32502

 Mulliken charges:
               1
     1  C   -0.170832
     2  C   -0.218208
     3  C   -0.171231
     4  C    0.158817
     5  C   -0.170329
     6  C   -0.218165
     7  H    0.226992
     8  H    0.225342
     9  H    0.276538
    10  H    0.276263
    11  H    0.224446
    12  N    0.489900
    13  O   -0.457481
    14  O   -0.461356
    15  C   -0.301966
    16  C   -0.297505
    17  C   -0.479542
    18  H    0.150209
    19  H    0.150516
    20  H    0.143822
    21  H    0.153013
    22  H    0.156623
    23  H    0.155662
    24  H    0.156231
    25  C   -0.295904
    26  C   -0.312497
    27  C   -0.474554
    28  H    0.144511
    29  H    0.146760
    30  H    0.179967
    31  H    0.148226
    32  H    0.149855
    33  H    0.153729
    34  H    0.162151
 Sum of Mulliken charges =  -0.00000

 Dipole moment (field-independent basis, Debye):
    X=              2.9966    Y=              4.1167    Z=              0.8667  Tot=              5.1651
 Quadrupole moment (field-independent basis, Debye-Ang):
   XX=            -82.6183   YY=           -102.7499   ZZ=            -92.2094
   XY=              5.1246   XZ=              0.3397   YZ=              0.9234

 Normal termination of Gaussian 16 at Wed May  5 17:37:43 2021.
