 Gaussian 16, Revision A.03,
 Gaussian 16:  EM64L-G16RevA.03 25-Dec-2016

 -------------
 #p 6-31g* mp2
 -------------

 ------------------------------------------------------
 Input file generated by CHIRIPA (05-May-2021 14:51:11)
 ------------------------------------------------------
 Symbolic Z-matrix:
 Charge =  0 Multiplicity = 1

                         Standard orientation:
 ---------------------------------------------------------------------
 Center     Atomic      Atomic             Coordinates (Angstroms)
 Number     Number       Type             X           Y           Z
 ---------------------------------------------------------------------
      1          6           0        2.735840    1.217605   -0.189051
      2          6           0        1.675500    1.813510    0.737535
      3          6           0        1.794821    3.331786    0.873164
      4          1           0        3.733424    1.475866    0.191831
      5          1           0        2.649691    1.683138   -1.180642
      6          1           0        1.762724    1.345994    1.726695
      7          1           0        0.680325    1.553639    0.354509
      8          1           0        1.686034    3.815486   -0.102951
      9          1           0        2.774584    3.606662    1.277031
     10          1           0        1.027232    3.736844    1.539944
     11          6           0        2.629569   -0.299365   -0.334777
     12          6           0        3.689909   -0.895270   -1.261363
     13          6           0        3.570588   -2.413546   -1.396992
     14          1           0        2.715718   -0.764898    0.656814
     15          1           0        1.631985   -0.557626   -0.715659
     16          1           0        4.685084   -0.635399   -0.878337
     17          1           0        3.602684   -0.427754   -2.250523
     18          1           0        2.590825   -2.688422   -1.800859
     19          1           0        3.679375   -2.897246   -0.420877
     20          1           0        4.338177   -2.818604   -2.063772
     21          6           0       -2.479472   -1.044514    0.708503
     22          6           0       -1.277571   -0.736668    1.602175
     23          6           0       -0.883011   -1.917493    2.489739
     24          1           0       -3.332290   -1.332753    1.338237
     25          1           0       -2.246707   -1.915194    0.079907
     26          1           0       -1.512021    0.134021    2.227914
     27          1           0       -0.427570   -0.448943    0.970249
     28          1           0       -0.622786   -2.788233    1.879252
     29          1           0       -1.713399   -2.201957    3.144063
     30          1           0       -0.021742   -1.675609    3.120269
     31          6           0       -2.885937    0.126274   -0.184675
     32          6           0       -4.087838   -0.181572   -1.078347
     33          6           0       -4.482397    0.999254   -1.965911
     34          1           0       -3.118702    0.996954    0.443921
     35          1           0       -2.033119    0.414514   -0.814409
     36          1           0       -4.937838   -0.469297   -0.446422
     37          1           0       -3.853388   -1.052261   -1.704086
     38          1           0       -3.652011    1.283718   -2.620234
     39          1           0       -4.742622    1.869994   -1.355424
     40          1           0       -5.343667    0.757369   -2.596441
 ---------------------------------------------------------------------

 SCF Done:  E(RHF) =  -470.732699252     A.U. after   11 cycles
 E2 =    -0.1583985293D+01 EUMP2 =    -0.47231668454506D+03

 The electronic state is 1-A.
 Alpha  occ. eigenvalues --  -11.21646 -11.21617 -11.21559 -11.21456 -11.21451
 Alpha  occ. eigenvalues --  -11.21409 -11.21379 -11.21323 -11.21109 -11.21088
 Alpha  occ. eigenvalues --  -11.21054 -11.21010  -1.08484  -1.08393  -1.03559
 Alpha  occ. eigenvalues --   -1.03485  -0.96001  -0.95957  -0.87021  -0.86969
 Alpha  occ. eigenvalues --   -0.79718  -0.79499  -0.78446  -0.78046  -0.65180
 Alpha  occ. eigenvalues --   -0.64968  -0.60968  -0.60879  -0.59438  -0.59261
 Alpha  occ. eigenvalues --   -0.57612  -0.57565  -0.55290  -0.55248  -0.52709
 Alpha  occ. eigenvalues --   -0.52637  -0.52434  -0.52374  -0.49945  -0.49906
 Alpha  occ. eigenvalues --   -0.48160  -0.47751  -0.46808  -0.46620  -0.46168
 Alpha  occ. eigenvalues --   -0.45759  -0.45709  -0.45027  -0.43806  -0.43749
 Alpha virt. eigenvalues --    0.20905   0.23400   0.23947   0.23961   0.24731
 Alpha virt. eigenvalues --    0.26347   0.26892   0.27851   0.28379   0.29749
 Alpha virt. eigenvalues --    0.31086   0.31442   0.31563   0.31822   0.31993

 Mulliken charges:
               1
     1  C   -0.298274
     2  C   -0.303961
     3  C   -0.475239
     4  H    0.149698
     5  H    0.149177
     6  H    0.152385
     7  H    0.157067
     8  H    0.154941
     9  H    0.154835
    10  H    0.160350
    11  C   -0.300808
    12  C   -0.299526
    13  C   -0.475701
    14  H    0.150452
    15  H    0.150133
    16  H    0.152325
    17  H    0.151948
    18  H    0.154769
    19  H    0.155520
    20  H    0.160462
    21  C   -0.298012
    22  C   -0.308824
    23  C   -0.475091
    24  H    0.149381
    25  H    0.148870
    26  H    0.150982
    27  H    0.164522
    28  H    0.154998
    29  H    0.154591
    30  H    0.159406
    31  C   -0.299240
    32  C   -0.299563
    33  C   -0.475681
    34  H    0.149750
    35  H    0.148691
    36  H    0.152297
    37  H    0.151864
    38  H    0.154882
    39  H    0.155285
    40  H    0.160340
 Sum of Mulliken charges =  -0.00000

 Dipole moment (field-independent basis, Debye):
    X=              0.0275    Y=              0.0102    Z=             -0.0033  Tot=              0.0295
 Quadrupole moment (field-independent basis, Debye-Ang):
   XX=            -84.1485   YY=            -86.5049   ZZ=            -84.2036
   XY=              0.0029   XZ=             -0.2102   YZ=              0.5136

 Normal termination of Gaussian 16 at Wed May  5 16:45:22 2021.
