 Gaussian 16, Revision A.03,
 Gaussian 16:  EM64L-G16RevA.03 25-Dec-2016

 -------------
 #p 6-31g* mp2
 -------------

 ------------------------------------------------------
 Input file generated by CHIRIPA (05-May-2021 14:53:12)
 ------------------------------------------------------
 Symbolic Z-matrix:
 Charge =  0 Multiplicity = 1

                         Standard orientation:
 ---------------------------------------------------------------------
 Center     Atomic      Atomic             Coordinates (Angstroms)
 Number     Number       Type             X           Y           Z
 ---------------------------------------------------------------------
      1          6           0       -2.478552   -1.280172   -0.249452
      2          6           0       -1.077716   -1.245283    0.362452
      3          6           0       -0.154918   -2.320783   -0.211601
      4          1           0       -2.920353   -2.271978   -0.081885
      5          1           0       -2.398859   -1.153356   -1.338011
      6          1           0       -1.160130   -1.370742    1.449689
      7          1           0       -0.639273   -0.253383    0.193577
      8          1           0       -0.043054   -2.195059   -1.293396
      9          1           0       -0.566870   -3.318767   -0.030148
     10          1           0        0.841219   -2.277734    0.239749
     11          6           0       -3.412703   -0.210941    0.314316
     12          6           0       -4.813539   -0.245831   -0.297587
     13          6           0       -5.736336    0.829670    0.276466
     14          1           0       -3.492395   -0.337757    1.402876
     15          1           0       -2.970902    0.780865    0.146750
     16          1           0       -5.251982   -1.237730   -0.128712
     17          1           0       -4.731125   -0.120371   -1.384824
     18          1           0       -5.324385    1.827654    0.095012
     19          1           0       -5.848201    0.703946    1.358261
     20          1           0       -6.732474    0.786621   -0.174885
     21          6           0        3.703141   -1.503694    0.195161
     22          6           0        3.361258   -0.766495    1.333657
     23          6           0        2.584969    0.390985    1.223370
     24          6           0        2.165743    0.784148   -0.046655
     25          6           0        2.489937    0.071011   -1.199749
     26          6           0        3.267158   -1.083329   -1.065685
     27          1           0        4.306544   -2.401633    0.290070
     28          1           0        3.698446   -1.090583    2.314125
     29          1           0        2.305793    0.980541    2.088184
     30          1           0        2.139040    0.419082   -2.163665
     31          1           0        3.531149   -1.653873   -1.951594
     32          7           0        1.343428    2.007858   -0.175996
     33          8           0        0.986560    2.333126   -1.306254
     34          8           0        1.071335    2.618565    0.855334
 ---------------------------------------------------------------------

 SCF Done:  E(RHF) =  -669.534025457     A.U. after   15 cycles
 E2 =    -0.2095352820D+01 EUMP2 =    -0.67162937827659D+03

 The electronic state is 1-A.
 Alpha  occ. eigenvalues --  -20.60872 -20.60865 -15.85916 -11.31257 -11.27834
 Alpha  occ. eigenvalues --  -11.27806 -11.27551 -11.26868 -11.26813 -11.21419
 Alpha  occ. eigenvalues --  -11.21195 -11.21083 -11.20905 -11.20900 -11.20635
 Alpha  occ. eigenvalues --   -1.59950  -1.39501  -1.19455  -1.08853  -1.08092
 Alpha  occ. eigenvalues --   -1.04842  -1.03235  -0.95698  -0.95660  -0.86701
 Alpha  occ. eigenvalues --   -0.86239  -0.82508  -0.79319  -0.77896  -0.77557
 Alpha  occ. eigenvalues --   -0.72136  -0.71299  -0.70547  -0.65093  -0.64843
 Alpha  occ. eigenvalues --   -0.64723  -0.62185  -0.60662  -0.59166  -0.57373
 Alpha  occ. eigenvalues --   -0.55341  -0.55037  -0.53372  -0.52929  -0.52220
 Alpha  occ. eigenvalues --   -0.51770  -0.49625  -0.48898  -0.48893  -0.47636
 Alpha  occ. eigenvalues --   -0.46371  -0.45442  -0.45350  -0.44901  -0.43482
 Alpha  occ. eigenvalues --   -0.37348  -0.36408
 Alpha virt. eigenvalues --    0.04951   0.11180   0.16426   0.21317   0.23141
 Alpha virt. eigenvalues --    0.24544   0.26786   0.27159   0.27754   0.28249
 Alpha virt. eigenvalues --    0.28337   0.30833   0.31551   0.32108   0.32248

 Mulliken charges:
               1
     1  C   -0.297551
     2  C   -0.299209
     3  C   -0.479935
     4  H    0.147165
     5  H    0.150008
     6  H    0.150270
     7  H    0.151323
     8  H    0.149848
     9  H    0.151401
    10  H    0.165117
    11  C   -0.300431
    12  C   -0.299447
    13  C   -0.476024
    14  H    0.147979
    15  H    0.158818
    16  H    0.149311
    17  H    0.152290
    18  H    0.158857
    19  H    0.154160
    20  H    0.158646
    21  C   -0.173939
    22  C   -0.218054
    23  C   -0.171107
    24  C    0.157402
    25  C   -0.169850
    26  C   -0.214186
    27  H    0.226273
    28  H    0.224177
    29  H    0.276175
    30  H    0.275458
    31  H    0.224019
    32  N    0.491340
    33  O   -0.460711
    34  O   -0.459593
 Sum of Mulliken charges =  -0.00000

 Dipole moment (field-independent basis, Debye):
    X=              3.0235    Y=             -4.1852    Z=              0.4585  Tot=              5.1834
 Quadrupole moment (field-independent basis, Debye-Ang):
   XX=            -83.4019   YY=           -102.5624   ZZ=            -89.4548
   XY=             -6.8428   XZ=              1.1567   YZ=              0.6087

 Normal termination of Gaussian 16 at Thu May  6 08:49:01 2021.
