 Gaussian 16, Revision A.03,
 Gaussian 16:  EM64L-G16RevA.03 25-Dec-2016

 -------------
 #p 6-31g* mp2
 -------------

 ------------------------------------------------------
 Input file generated by CHIRIPA (05-May-2021 14:53:15)
 ------------------------------------------------------
 Symbolic Z-matrix:
 Charge =  0 Multiplicity = 1

                         Standard orientation:
 ---------------------------------------------------------------------
 Center     Atomic      Atomic             Coordinates (Angstroms)
 Number     Number       Type             X           Y           Z
 ---------------------------------------------------------------------
      1          6           0       -3.355893    0.623517    0.448720
      2          6           0       -3.172697    2.094570    0.073983
      3          6           0       -3.245525    3.026352    1.284054
      4          1           0       -4.324164    0.497850    0.952310
      5          1           0       -2.584925    0.339460    1.178319
      6          1           0       -3.942932    2.375395   -0.655738
      7          1           0       -2.204833    2.216717   -0.428945
      8          1           0       -2.467330    2.774326    2.011719
      9          1           0       -4.215304    2.933906    1.783638
     10          1           0       -3.112041    4.073039    0.993387
     11          6           0       -3.285604   -0.320390   -0.750374
     12          6           0       -3.468800   -1.791443   -0.375637
     13          6           0       -3.395972   -2.723224   -1.585708
     14          1           0       -4.056572   -0.036333   -1.479973
     15          1           0       -2.317333   -0.194723   -1.253964
     16          1           0       -4.436664   -1.913589    0.127291
     17          1           0       -2.698565   -2.072268    0.354084
     18          1           0       -2.426193   -2.630779   -2.085292
     19          1           0       -4.174167   -2.471199   -2.313374
     20          1           0       -3.529456   -3.769912   -1.295041
     21          6           0        1.333671   -1.461568    1.841950
     22          6           0        2.732424   -1.458548    1.842680
     23          6           0        3.441334   -0.717986    0.892120
     24          6           0        2.716211    0.011442   -0.048847
     25          6           0        1.322552    0.028588   -0.075509
     26          6           0        0.634432   -0.719299    0.884544
     27          1           0        0.791047   -2.039700    2.584055
     28          1           0        3.278094   -2.034068    2.585019
     29          1           0        4.524161   -0.697864    0.869804
     30          1           0        0.806332    0.612150   -0.828098
     31          1           0       -0.451863   -0.719781    0.881578
     32          7           0        3.455698    0.799319   -1.060188
     33          8           0        2.793452    1.433627   -1.878553
     34          8           0        4.683551    0.767632   -1.015361
 ---------------------------------------------------------------------

 SCF Done:  E(RHF) =  -669.535291125     A.U. after   15 cycles
 E2 =    -0.2092355084D+01 EUMP2 =    -0.67162764620842D+03

 The electronic state is 1-A.
 Alpha  occ. eigenvalues --  -20.60767 -20.60762 -15.85820 -11.31189 -11.27761
 Alpha  occ. eigenvalues --  -11.27757 -11.27496 -11.26772 -11.26731 -11.22503
 Alpha  occ. eigenvalues --  -11.22333 -11.22269 -11.22239 -11.21716 -11.21576
 Alpha  occ. eigenvalues --   -1.59842  -1.39396  -1.19360  -1.09287  -1.08753
 Alpha  occ. eigenvalues --   -1.04764  -1.04251  -0.96691  -0.95589  -0.87697
 Alpha  occ. eigenvalues --   -0.86166  -0.82424  -0.80322  -0.79100  -0.77475
 Alpha  occ. eigenvalues --   -0.72038  -0.71165  -0.70472  -0.66115  -0.65010
 Alpha  occ. eigenvalues --   -0.64664  -0.62082  -0.61652  -0.60051  -0.58298
 Alpha  occ. eigenvalues --   -0.55997  -0.55252  -0.53344  -0.53111  -0.53086
 Alpha  occ. eigenvalues --   -0.52837  -0.50639  -0.48801  -0.48794  -0.48623
 Alpha  occ. eigenvalues --   -0.47382  -0.46591  -0.46571  -0.44801  -0.44543
 Alpha  occ. eigenvalues --   -0.37340  -0.36364
 Alpha virt. eigenvalues --    0.05059   0.11238   0.16512   0.18029   0.23183
 Alpha virt. eigenvalues --    0.23434   0.24558   0.25136   0.27083   0.28726
 Alpha virt. eigenvalues --    0.30041   0.30705   0.31235   0.31362   0.32074

 Mulliken charges:
               1
     1  C   -0.302549
     2  C   -0.300022
     3  C   -0.476331
     4  H    0.154484
     5  H    0.140716
     6  H    0.156210
     7  H    0.151512
     8  H    0.154828
     9  H    0.156091
    10  H    0.164700
    11  C   -0.302231
    12  C   -0.300343
    13  C   -0.476207
    14  H    0.156697
    15  H    0.146452
    16  H    0.155651
    17  H    0.142768
    18  H    0.157451
    19  H    0.158590
    20  H    0.161947
    21  C   -0.173066
    22  C   -0.218406
    23  C   -0.170960
    24  C    0.159260
    25  C   -0.175515
    26  C   -0.228722
    27  H    0.225920
    28  H    0.223450
    29  H    0.275634
    30  H    0.275973
    31  H    0.238873
    32  N    0.488094
    33  O   -0.460493
    34  O   -0.460453
 Sum of Mulliken charges =  -0.00000

 Dipole moment (field-independent basis, Debye):
    X=             -2.8062    Y=             -2.7258    Z=              3.4913  Tot=              5.2435
 Quadrupole moment (field-independent basis, Debye-Ang):
   XX=           -103.3027   YY=            -95.2838   ZZ=            -95.4268
   XY=             -9.3976   XZ=             12.3387   YZ=             -1.0956

 Normal termination of Gaussian 16 at Thu May  6 13:50:05 2021.
