 Gaussian 16, Revision A.03,
 Gaussian 16:  EM64L-G16RevA.03 25-Dec-2016

 -------------
 #p 6-31g* mp2
 -------------

 ------------------------------------------------------
 Input file generated by CHIRIPA (05-May-2021 14:57:26)
 ------------------------------------------------------
 Symbolic Z-matrix:
 Charge =  0 Multiplicity = 1

                         Standard orientation:
 ---------------------------------------------------------------------
 Center     Atomic      Atomic             Coordinates (Angstroms)
 Number     Number       Type             X           Y           Z
 ---------------------------------------------------------------------
      1          6           0       -1.122409    1.217486   -0.431258
      2          6           0       -2.233919    1.968030   -0.034082
      3          6           0       -3.481799    1.358395    0.126199
      4          6           0       -3.582689   -0.009949   -0.120268
      5          6           0       -2.493896   -0.784759   -0.517117
      6          6           0       -1.255710   -0.154096   -0.671085
      7          1           0       -0.156791    1.699232   -0.553317
      8          1           0       -2.133348    3.033385    0.152867
      9          1           0       -4.358733    1.915596    0.432681
     10          1           0       -2.625259   -1.845000   -0.696146
     11          1           0       -0.394220   -0.739478   -0.979642
     12          7           0       -4.898633   -0.666473    0.046072
     13          8           0       -4.961254   -1.873470   -0.177254
     14          8           0       -5.842530    0.038371    0.396627
     15          6           0        3.145627    2.415116    0.127408
     16          6           0        2.245100    1.639474    0.864938
     17          6           0        2.357569    0.246076    0.883424
     18          6           0        3.387092   -0.341238    0.149644
     19          6           0        4.299853    0.404300   -0.594889
     20          6           0        4.168327    1.796145   -0.598871
     21          1           0        3.050857    3.496938    0.118682
     22          1           0        1.449880    2.117457    1.429917
     23          1           0        1.674127   -0.378448    1.445824
     24          1           0        5.082255   -0.100812   -1.148176
     25          1           0        4.869126    2.395999   -1.172545
     26          7           0        3.516246   -1.815544    0.161537
     27          8           0        4.431963   -2.308793   -0.493294
     28          8           0        2.699312   -2.449940    0.825464
 ---------------------------------------------------------------------

 SCF Done:  E(RHF) =  -868.336879782     A.U. after   16 cycles
 E2 =    -0.2601898209D+01 EUMP2 =    -0.87093877799126D+03

 The electronic state is 1-A.
 Alpha  occ. eigenvalues --  -20.61679 -20.61661 -20.60868 -20.60854 -15.86730
 Alpha  occ. eigenvalues --  -15.85920 -11.32266 -11.31365 -11.28853 -11.28799
 Alpha  occ. eigenvalues --  -11.28619 -11.27982 -11.27904 -11.27898 -11.27827
 Alpha  occ. eigenvalues --  -11.27643 -11.27042 -11.26909  -1.60749  -1.59938
 Alpha  occ. eigenvalues --   -1.40295  -1.39488  -1.20467  -1.19553  -1.09827
 Alpha  occ. eigenvalues --   -1.08944  -1.05879  -1.04959  -0.96618  -0.95760
 Alpha  occ. eigenvalues --   -0.87265  -0.86358  -0.83446  -0.82574  -0.78465
 Alpha  occ. eigenvalues --   -0.77607  -0.72933  -0.72136  -0.72087  -0.71524
 Alpha  occ. eigenvalues --   -0.71263  -0.70702  -0.66093  -0.65848  -0.65197
 Alpha  occ. eigenvalues --   -0.64977  -0.63178  -0.62292  -0.56351  -0.55653
 Alpha  occ. eigenvalues --   -0.54098  -0.53877  -0.53284  -0.53036  -0.49709
 Alpha  occ. eigenvalues --   -0.49685  -0.48903  -0.48884  -0.45660  -0.44875
 Alpha  occ. eigenvalues --   -0.38462  -0.37852  -0.37191  -0.36555
 Alpha virt. eigenvalues --    0.04015   0.04928   0.09930   0.11080   0.15410
 Alpha virt. eigenvalues --    0.16416   0.20155   0.21608   0.26182   0.26765
 Alpha virt. eigenvalues --    0.27404   0.28765   0.29947   0.30767   0.31733

 Mulliken charges:
               1
     1  C   -0.179915
     2  C   -0.221533
     3  C   -0.170317
     4  C    0.158409
     5  C   -0.169761
     6  C   -0.224718
     7  H    0.228870
     8  H    0.219449
     9  H    0.275666
    10  H    0.279681
    11  H    0.229064
    12  N    0.487974
    13  O   -0.458038
    14  O   -0.460772
    15  C   -0.173003
    16  C   -0.230984
    17  C   -0.175078
    18  C    0.157234
    19  C   -0.169640
    20  C   -0.217626
    21  H    0.228145
    22  H    0.227085
    23  H    0.280888
    24  H    0.279306
    25  H    0.227648
    26  N    0.487427
    27  O   -0.456369
    28  O   -0.459091
 Sum of Mulliken charges =  -0.00000

 Dipole moment (field-independent basis, Debye):
    X=              4.4326    Y=              7.3298    Z=             -0.6525  Tot=              8.5907
 Quadrupole moment (field-independent basis, Debye-Ang):
   XX=           -136.6734   YY=           -105.2531   ZZ=           -103.7527
   XY=              8.1079   XZ=             -2.0796   YZ=              1.6553

 Normal termination of Gaussian 16 at Wed May  5 21:14:33 2021.
