 Gaussian 16, Revision A.03,
 Gaussian 16:  EM64L-G16RevA.03 25-Dec-2016

 -------------
 #p 6-31g* mp2
 -------------

 ------------------------------------------------------
 Input file generated by CHIRIPA (05-May-2021 14:51:13)
 ------------------------------------------------------
 Symbolic Z-matrix:
 Charge =  0 Multiplicity = 1

                         Standard orientation:
 ---------------------------------------------------------------------
 Center     Atomic      Atomic             Coordinates (Angstroms)
 Number     Number       Type             X           Y           Z
 ---------------------------------------------------------------------
      1          6           0        2.011263    0.733916   -0.382950
      2          6           0        2.339759    1.941148   -1.261963
      3          6           0        1.328211    3.077297   -1.107919
      4          1           0        1.006094    0.368361   -0.633850
      5          1           0        1.974445    1.053364    0.667760
      6          1           0        2.377310    1.619240   -2.310572
      7          1           0        3.344339    2.303754   -1.009075
      8          1           0        1.295935    3.426374   -0.070757
      9          1           0        0.323411    2.737971   -1.379649
     10          1           0        1.582194    3.930103   -1.745159
     11          6           0        3.013456   -0.410160   -0.525875
     12          6           0        2.684959   -1.617393    0.353138
     13          6           0        3.696508   -2.753542    0.199094
     14          1           0        3.050274   -0.729609   -1.576585
     15          1           0        4.018625   -0.044605   -0.274975
     16          1           0        1.680379   -1.979998    0.100250
     17          1           0        2.647409   -1.295485    1.401747
     18          1           0        4.701307   -2.414216    0.470824
     19          1           0        3.728783   -3.102618   -0.838068
     20          1           0        3.442524   -3.606347    0.836334
     21          6           0       -3.061378   -0.074082   -0.069326
     22          6           0       -3.069762   -1.175819   -1.129557
     23          6           0       -4.173718   -0.986308   -2.170306
     24          1           0       -4.038885   -0.048464    0.431444
     25          1           0       -2.937637    0.899600   -0.563318
     26          1           0       -3.192062   -2.147253   -0.633596
     27          1           0       -2.092058   -1.198944   -1.627729
     28          1           0       -4.052065   -0.031176   -2.691384
     29          1           0       -5.158321   -0.984872   -1.691603
     30          1           0       -4.161441   -1.784954   -2.918554
     31          6           0       -1.963340   -0.249674    0.978151
     32          6           0       -1.954957    0.852063    2.038381
     33          6           0       -0.851000    0.662553    3.079131
     34          1           0       -2.087081   -1.223355    1.472143
     35          1           0       -0.985834   -0.275291    0.477381
     36          1           0       -2.932661    0.875188    2.536554
     37          1           0       -1.832656    1.823496    1.542422
     38          1           0        0.133602    0.661116    2.600427
     39          1           0       -0.972653   -0.292581    3.600209
     40          1           0       -0.863277    1.461199    3.827379
 ---------------------------------------------------------------------

 SCF Done:  E(RHF) =  -470.733181903     A.U. after   11 cycles
 E2 =    -0.1584168933D+01 EUMP2 =    -0.47231735083642D+03

 The electronic state is 1-A.
 Alpha  occ. eigenvalues --  -11.21686 -11.21631 -11.21623 -11.21539 -11.21490
 Alpha  occ. eigenvalues --  -11.21420 -11.21372 -11.21277 -11.21157 -11.21091
 Alpha  occ. eigenvalues --  -11.21085 -11.21000  -1.08517  -1.08390  -1.03588
 Alpha  occ. eigenvalues --   -1.03501  -0.96043  -0.95951  -0.87058  -0.86968
 Alpha  occ. eigenvalues --   -0.79653  -0.79572  -0.78449  -0.78100  -0.65212
 Alpha  occ. eigenvalues --   -0.64973  -0.60983  -0.60905  -0.59405  -0.59319
 Alpha  occ. eigenvalues --   -0.57653  -0.57565  -0.55407  -0.55177  -0.52731
 Alpha  occ. eigenvalues --   -0.52649  -0.52475  -0.52379  -0.50054  -0.49842
 Alpha  occ. eigenvalues --   -0.47989  -0.47889  -0.46708  -0.46667  -0.46320
 Alpha  occ. eigenvalues --   -0.45757  -0.45701  -0.45108  -0.43846  -0.43753
 Alpha virt. eigenvalues --    0.20056   0.22895   0.23500   0.24263   0.24822
 Alpha virt. eigenvalues --    0.25643   0.26603   0.28312   0.28883   0.30290
 Alpha virt. eigenvalues --    0.31302   0.31498   0.31585   0.31817   0.32132

 Mulliken charges:
               1
     1  C   -0.308063
     2  C   -0.298973
     3  C   -0.476220
     4  H    0.155239
     5  H    0.152755
     6  H    0.152163
     7  H    0.152454
     8  H    0.155640
     9  H    0.154487
    10  H    0.160866
    11  C   -0.297738
    12  C   -0.301536
    13  C   -0.475733
    14  H    0.149588
    15  H    0.149941
    16  H    0.153321
    17  H    0.152660
    18  H    0.155251
    19  H    0.155203
    20  H    0.160630
    21  C   -0.298116
    22  C   -0.299500
    23  C   -0.475636
    24  H    0.149799
    25  H    0.149011
    26  H    0.152169
    27  H    0.150320
    28  H    0.155120
    29  H    0.155438
    30  H    0.160168
    31  C   -0.307223
    32  C   -0.298970
    33  C   -0.480077
    34  H    0.149139
    35  H    0.158785
    36  H    0.151587
    37  H    0.152324
    38  H    0.159277
    39  H    0.154901
    40  H    0.159545
 Sum of Mulliken charges =  -0.00000

 Dipole moment (field-independent basis, Debye):
    X=              0.0501    Y=              0.0005    Z=             -0.0138  Tot=              0.0520
 Quadrupole moment (field-independent basis, Debye-Ang):
   XX=            -84.9897   YY=            -85.1077   ZZ=            -84.6387
   XY=              1.1885   XZ=             -0.5435   YZ=             -0.0525

 Normal termination of Gaussian 16 at Wed May  5 21:37:32 2021.
