 Gaussian 16, Revision A.03,
 Gaussian 16:  EM64L-G16RevA.03 25-Dec-2016

 -------------
 #p 6-31g* mp2
 -------------

 ------------------------------------------------------
 Input file generated by CHIRIPA (05-May-2021 14:51:10)
 ------------------------------------------------------
 Symbolic Z-matrix:
 Charge =  0 Multiplicity = 1

                         Standard orientation:
 ---------------------------------------------------------------------
 Center     Atomic      Atomic             Coordinates (Angstroms)
 Number     Number       Type             X           Y           Z
 ---------------------------------------------------------------------
      1          6           0       -2.907239   -0.409886   -0.330436
      2          6           0       -2.340408   -1.349869   -1.394917
      3          6           0       -2.885732   -2.773454   -1.277357
      4          1           0       -2.675498   -0.811762    0.665424
      5          1           0       -4.002797   -0.391844   -0.413032
      6          1           0       -1.246158   -1.365064   -1.311233
      7          1           0       -2.573359   -0.945610   -2.388357
      8          1           0       -3.975451   -2.778477   -1.382667
      9          1           0       -2.640709   -3.200315   -0.299423
     10          1           0       -2.467403   -3.428522   -2.047907
     11          6           0       -2.371516    1.016934   -0.434905
     12          6           0       -2.938347    1.956917    0.629576
     13          6           0       -2.393022    3.380502    0.512016
     14          1           0       -1.275958    0.998891   -0.352308
     15          1           0       -2.603257    1.418809   -1.430765
     16          1           0       -2.705396    1.552657    1.623017
     17          1           0       -4.032596    1.972111    0.545892
     18          1           0       -2.638046    3.807362   -0.465918
     19          1           0       -1.303304    3.385524    0.617327
     20          1           0       -2.811352    4.035569    1.282566
     21          6           0        2.828111    0.117223   -0.226250
     22          6           0        4.337859    0.275332   -0.409681
     23          6           0        4.699640    1.119576   -1.632039
     24          1           0        2.401419   -0.340610   -1.129173
     25          1           0        2.370775    1.112100   -0.134276
     26          1           0        4.792383   -0.719598   -0.499896
     27          1           0        4.761034    0.732665    0.493859
     28          1           0        4.273094    2.124219   -1.546280
     29          1           0        4.304623    0.663704   -2.545682
     30          1           0        5.783731    1.219720   -1.744187
     31          6           0        2.450644   -0.724270    0.991591
     32          6           0        0.940896   -0.882379    1.175022
     33          6           0        0.579115   -1.726624    2.397380
     34          1           0        2.907980   -1.719147    0.899617
     35          1           0        2.877336   -0.266438    1.894513
     36          1           0        0.517721   -1.339712    0.271481
     37          1           0        0.486372    0.112552    1.265236
     38          1           0        0.974134   -1.270752    3.311022
     39          1           0        1.005660   -2.731266    2.311621
     40          1           0       -0.504976   -1.826766    2.509528
 ---------------------------------------------------------------------

 SCF Done:  E(RHF) =  -470.732848033     A.U. after   11 cycles
 E2 =    -0.1584409032D+01 EUMP2 =    -0.47231725706543D+03

 The electronic state is 1-A.
 Alpha  occ. eigenvalues --  -11.21688 -11.21649 -11.21576 -11.21553 -11.21478
 Alpha  occ. eigenvalues --  -11.21419 -11.21349 -11.21271 -11.21175 -11.21100
 Alpha  occ. eigenvalues --  -11.21071 -11.21059  -1.08524  -1.08374  -1.03609
 Alpha  occ. eigenvalues --   -1.03503  -0.96051  -0.95951  -0.87066  -0.86971
 Alpha  occ. eigenvalues --   -0.79700  -0.79563  -0.78396  -0.78128  -0.65153
 Alpha  occ. eigenvalues --   -0.65041  -0.61170  -0.60764  -0.59406  -0.59321
 Alpha  occ. eigenvalues --   -0.57656  -0.57564  -0.55349  -0.55221  -0.52747
 Alpha  occ. eigenvalues --   -0.52656  -0.52478  -0.52379  -0.50062  -0.49846
 Alpha  occ. eigenvalues --   -0.48080  -0.47906  -0.46905  -0.46422  -0.46178
 Alpha  occ. eigenvalues --   -0.45718  -0.45701  -0.45252  -0.43850  -0.43749
 Alpha virt. eigenvalues --    0.19684   0.22843   0.23159   0.24659   0.25123
 Alpha virt. eigenvalues --    0.26096   0.26718   0.27858   0.28915   0.29941
 Alpha virt. eigenvalues --    0.30093   0.31008   0.31780   0.31905   0.32200

 Mulliken charges:
               1
     1  C   -0.299341
     2  C   -0.304842
     3  C   -0.475927
     4  H    0.151039
     5  H    0.149406
     6  H    0.156492
     7  H    0.151954
     8  H    0.155322
     9  H    0.155153
    10  H    0.159808
    11  C   -0.302824
    12  C   -0.300126
    13  C   -0.475371
    14  H    0.155315
    15  H    0.149202
    16  H    0.151655
    17  H    0.151893
    18  H    0.155371
    19  H    0.154120
    20  H    0.160169
    21  C   -0.298834
    22  C   -0.299638
    23  C   -0.475797
    24  H    0.149622
    25  H    0.149250
    26  H    0.152129
    27  H    0.152115
    28  H    0.155368
    29  H    0.155383
    30  H    0.160418
    31  C   -0.297677
    32  C   -0.309105
    33  C   -0.476975
    34  H    0.149808
    35  H    0.149860
    36  H    0.158764
    37  H    0.154675
    38  H    0.155707
    39  H    0.155743
    40  H    0.160715
 Sum of Mulliken charges =  -0.00000

 Dipole moment (field-independent basis, Debye):
    X=              0.0477    Y=             -0.0103    Z=              0.0045  Tot=              0.0490
 Quadrupole moment (field-independent basis, Debye-Ang):
   XX=            -84.4818   YY=            -85.5467   ZZ=            -84.7831
   XY=             -0.7913   XZ=              0.8084   YZ=              0.7605

 Normal termination of Gaussian 16 at Thu May  6 02:14:37 2021.
