 Gaussian 16, Revision A.03,
 Gaussian 16:  EM64L-G16RevA.03 25-Dec-2016

 -------------
 #p 6-31g* mp2
 -------------

 ------------------------------------------------------
 Input file generated by CHIRIPA (05-May-2021 14:53:12)
 ------------------------------------------------------
 Symbolic Z-matrix:
 Charge =  0 Multiplicity = 1

                         Standard orientation:
 ---------------------------------------------------------------------
 Center     Atomic      Atomic             Coordinates (Angstroms)
 Number     Number       Type             X           Y           Z
 ---------------------------------------------------------------------
      1          6           0       -4.338464    0.325383    0.143908
      2          6           0       -3.256647   -0.728351   -0.095467
      3          6           0       -1.845498   -0.192951    0.149070
      4          1           0       -4.153126    1.187404   -0.511466
      5          1           0       -4.259040    0.694490    1.175822
      6          1           0       -3.338968   -1.096360   -1.126199
      7          1           0       -3.444691   -1.588046    0.560415
      8          1           0       -1.739583    0.156657    1.181134
      9          1           0       -1.633259    0.651137   -0.515063
     10          1           0       -1.087813   -0.962679   -0.027829
     11          6           0       -5.754574   -0.194776   -0.096497
     12          6           0       -6.836391    0.858959    0.142878
     13          6           0       -8.247540    0.323558   -0.101659
     14          1           0       -5.833998   -0.563883   -1.128411
     15          1           0       -5.939912   -1.056797    0.558876
     16          1           0       -6.648347    1.718653   -0.513004
     17          1           0       -6.754070    1.226967    1.173610
     18          1           0       -8.459779   -0.520530    0.562474
     19          1           0       -8.353455   -0.026050   -1.133724
     20          1           0       -9.005224    1.093286    0.075239
     21          6           0        5.372912    2.027419   -0.004031
     22          6           0        3.981555    2.135816   -0.098360
     23          6           0        3.179181    0.990972   -0.107283
     24          6           0        3.804315   -0.251954   -0.019921
     25          6           0        5.187953   -0.392675    0.075125
     26          6           0        5.970616    0.765744    0.082258
     27          1           0        5.988559    2.922034    0.002206
     28          1           0        3.514629    3.114343   -0.165502
     29          1           0        2.099742    1.046015   -0.179370
     30          1           0        5.624536   -1.381874    0.140701
     31          1           0        7.050921    0.678535    0.155613
     32          7           0        2.965311   -1.471135   -0.028419
     33          8           0        3.540430   -2.554543    0.049690
     34          8           0        1.748468   -1.320234   -0.113029
 ---------------------------------------------------------------------

 SCF Done:  E(RHF) =  -669.536043102     A.U. after   15 cycles
 E2 =    -0.2090607085D+01 EUMP2 =    -0.67162665018690D+03

 The electronic state is 1-A.
 Alpha  occ. eigenvalues --  -20.60851 -20.60846 -15.85900 -11.31225 -11.27795
 Alpha  occ. eigenvalues --  -11.27779 -11.27536 -11.26805 -11.26793 -11.21285
 Alpha  occ. eigenvalues --  -11.20964 -11.20886 -11.20828 -11.20800 -11.20059
 Alpha  occ. eigenvalues --   -1.59921  -1.39476  -1.19397  -1.08801  -1.07933
 Alpha  occ. eigenvalues --   -1.04794  -1.02973  -0.95647  -0.95404  -0.86427
 Alpha  occ. eigenvalues --   -0.86194  -0.82476  -0.79056  -0.77746  -0.77518
 Alpha  occ. eigenvalues --   -0.72130  -0.71238  -0.70506  -0.65054  -0.64798
 Alpha  occ. eigenvalues --   -0.64574  -0.62139  -0.60384  -0.58771  -0.56997
 Alpha  occ. eigenvalues --   -0.55301  -0.54723  -0.53127  -0.52886  -0.52032
 Alpha  occ. eigenvalues --   -0.51841  -0.49389  -0.48879  -0.48865  -0.47358
 Alpha  occ. eigenvalues --   -0.46116  -0.45282  -0.45214  -0.44888  -0.43189
 Alpha  occ. eigenvalues --   -0.37380  -0.36397
 Alpha virt. eigenvalues --    0.05009   0.11258   0.16506   0.21282   0.23325
 Alpha virt. eigenvalues --    0.24820   0.26820   0.27164   0.27703   0.27997
 Alpha virt. eigenvalues --    0.29017   0.30780   0.31754   0.32059   0.32586

 Mulliken charges:
               1
     1  C   -0.297401
     2  C   -0.299425
     3  C   -0.484475
     4  H    0.146710
     5  H    0.147656
     6  H    0.151369
     7  H    0.152481
     8  H    0.149432
     9  H    0.144797
    10  H    0.189562
    11  C   -0.297813
    12  C   -0.299103
    13  C   -0.475424
    14  H    0.149191
    15  H    0.149763
    16  H    0.150620
    17  H    0.151053
    18  H    0.155197
    19  H    0.154947
    20  H    0.158904
    21  C   -0.170646
    22  C   -0.218725
    23  C   -0.171299
    24  C    0.157487
    25  C   -0.170748
    26  C   -0.218674
    27  H    0.225723
    28  H    0.223765
    29  H    0.277522
    30  H    0.275634
    31  H    0.223528
    32  N    0.495510
    33  O   -0.459789
    34  O   -0.467328
 Sum of Mulliken charges =  -0.00000

 Dipole moment (field-independent basis, Debye):
    X=              3.1746    Y=              4.1888    Z=              0.0238  Tot=              5.2559
 Quadrupole moment (field-independent basis, Debye-Ang):
   XX=            -71.0611   YY=            -95.6871   ZZ=            -94.7812
   XY=             13.2229   XZ=              0.2288   YZ=             -0.6683

 Normal termination of Gaussian 16 at Thu May  6 13:40:26 2021.
