 Gaussian 16, Revision A.03,
 Gaussian 16:  EM64L-G16RevA.03 25-Dec-2016

 -------------
 #p 6-31g* mp2
 -------------

 ------------------------------------------------------
 Input file generated by CHIRIPA (05-May-2021 14:57:24)
 ------------------------------------------------------
 Symbolic Z-matrix:
 Charge =  0 Multiplicity = 1

                         Standard orientation:
 ---------------------------------------------------------------------
 Center     Atomic      Atomic             Coordinates (Angstroms)
 Number     Number       Type             X           Y           Z
 ---------------------------------------------------------------------
      1          6           0       -2.655285    2.448598   -0.162329
      2          6           0       -2.449357    1.691413    0.995593
      3          6           0       -2.713887    0.318634    1.002638
      4          6           0       -3.185527   -0.267107   -0.171139
      5          6           0       -3.400766    0.460349   -1.340657
      6          6           0       -3.129496    1.831737   -1.324709
      7          1           0       -2.447174    3.514466   -0.158872
      8          1           0       -2.081155    2.167806    1.899762
      9          1           0       -2.563348   -0.291332    1.885077
     10          1           0       -3.768615   -0.042664   -2.226706
     11          1           0       -3.290353    2.417285   -2.225433
     12          7           0       -3.469141   -1.719671   -0.175851
     13          8           0       -3.883975   -2.211968   -1.222844
     14          8           0       -3.271233   -2.338388    0.867536
     15          6           0        1.134754    0.794118    1.497916
     16          6           0        1.668025   -0.481643    1.709052
     17          6           0        2.778203   -0.916834    0.979216
     18          6           0        3.332527   -0.046387    0.042020
     19          6           0        2.824104    1.230492   -0.191169
     20          6           0        1.713476    1.644614    0.550151
     21          1           0        0.272166    1.124003    2.069330
     22          1           0        1.220642   -1.144283    2.444444
     23          1           0        3.211239   -1.899361    1.122527
     24          1           0        3.291781    1.868554   -0.931150
     25          1           0        1.301447    2.635924    0.384068
     26          7           0        4.508061   -0.495953   -0.736704
     27          8           0        4.978097    0.289900   -1.556544
     28          8           0        4.937150   -1.625662   -0.512481
 ---------------------------------------------------------------------

 SCF Done:  E(RHF) =  -868.336088224     A.U. after   16 cycles
 E2 =    -0.2601428999D+01 EUMP2 =    -0.87093751722325D+03

 The electronic state is 1-A.
 Alpha  occ. eigenvalues --  -20.61438 -20.61415 -20.60875 -20.60863 -15.86491
 Alpha  occ. eigenvalues --  -15.85929 -11.32015 -11.31353 -11.28701 -11.28553
 Alpha  occ. eigenvalues --  -11.28412 -11.27969 -11.27906 -11.27785 -11.27758
 Alpha  occ. eigenvalues --  -11.27590 -11.27042 -11.26941  -1.60499  -1.59946
 Alpha  occ. eigenvalues --   -1.40050  -1.39498  -1.20218  -1.19547  -1.09585
 Alpha  occ. eigenvalues --   -1.08947  -1.05669  -1.04959  -0.96389  -0.95771
 Alpha  occ. eigenvalues --   -0.87058  -0.86365  -0.83249  -0.82590  -0.78256
 Alpha  occ. eigenvalues --   -0.77616  -0.72708  -0.72147  -0.71822  -0.71337
 Alpha  occ. eigenvalues --   -0.71269  -0.70737  -0.65882  -0.65700  -0.65207
 Alpha  occ. eigenvalues --   -0.64983  -0.63015  -0.62307  -0.56167  -0.55595
 Alpha  occ. eigenvalues --   -0.53959  -0.53745  -0.53226  -0.53065  -0.49478
 Alpha  occ. eigenvalues --   -0.49451  -0.48912  -0.48896  -0.45422  -0.44890
 Alpha  occ. eigenvalues --   -0.38224  -0.37802  -0.36944  -0.36548
 Alpha virt. eigenvalues --    0.04225   0.04985   0.10218   0.11180   0.15531
 Alpha virt. eigenvalues --    0.16496   0.18854   0.22140   0.25136   0.26228
 Alpha virt. eigenvalues --    0.27988   0.29046   0.29744   0.31394   0.32562

 Mulliken charges:
               1
     1  C   -0.172002
     2  C   -0.223438
     3  C   -0.168692
     4  C    0.160548
     5  C   -0.168451
     6  C   -0.217483
     7  H    0.225896
     8  H    0.217383
     9  H    0.272630
    10  H    0.279331
    11  H    0.227056
    12  N    0.488282
    13  O   -0.456370
    14  O   -0.461205
    15  C   -0.164264
    16  C   -0.219505
    17  C   -0.169393
    18  C    0.158593
    19  C   -0.170885
    20  C   -0.217730
    21  H    0.215199
    22  H    0.226236
    23  H    0.278069
    24  H    0.274997
    25  H    0.216687
    26  N    0.488070
    27  O   -0.460974
    28  O   -0.458586
 Sum of Mulliken charges =  -0.00000

 Dipole moment (field-independent basis, Debye):
    X=             -3.2743    Y=              6.5238    Z=              2.5349  Tot=              7.7270
 Quadrupole moment (field-independent basis, Debye-Ang):
   XX=           -139.1817   YY=           -104.6647   ZZ=            -99.5354
   XY=            -11.3285   XZ=             10.8512   YZ=             -4.0309

 Normal termination of Gaussian 16 at Fri May  7 12:35:51 2021.
