 Gaussian 16, Revision A.03,
 Gaussian 16:  EM64L-G16RevA.03 25-Dec-2016

 -------------
 #p 6-31g* mp2
 -------------

 ------------------------------------------------------
 Input file generated by CHIRIPA (05-May-2021 14:51:08)
 ------------------------------------------------------
 Symbolic Z-matrix:
 Charge =  0 Multiplicity = 1

                         Standard orientation:
 ---------------------------------------------------------------------
 Center     Atomic      Atomic             Coordinates (Angstroms)
 Number     Number       Type             X           Y           Z
 ---------------------------------------------------------------------
      1          6           0       -3.289112    0.005688   -0.202970
      2          6           0       -4.604536   -0.091043    0.570521
      3          6           0       -5.481911    1.149794    0.402201
      4          1           0       -2.737944    0.894582    0.133224
      5          1           0       -3.508865    0.158696   -1.268659
      6          1           0       -4.382379   -0.245207    1.634239
      7          1           0       -5.152549   -0.979916    0.232582
      8          1           0       -5.732557    1.304222   -0.652279
      9          1           0       -4.958011    2.043105    0.757341
     10          1           0       -6.417131    1.059347    0.963487
     11          6           0       -2.401134   -1.227254   -0.044614
     12          6           0       -1.085711   -1.130523   -0.818105
     13          6           0       -0.208335   -2.371360   -0.649785
     14          1           0       -2.181382   -1.380262    1.021075
     15          1           0       -2.952302   -2.116148   -0.380808
     16          1           0       -0.537698   -0.241650   -0.480166
     17          1           0       -1.307868   -0.976359   -1.881823
     18          1           0       -0.732235   -3.264671   -1.004925
     19          1           0        0.042310   -2.525788    0.404696
     20          1           0        0.726885   -2.280913   -1.211071
     21          6           0        2.667584    1.296252    0.410224
     22          6           0        2.278983    2.318019   -0.658872
     23          6           0        1.926528    3.684455   -0.070296
     24          1           0        1.838561    1.187347    1.122829
     25          1           0        3.522873    1.681776    0.982279
     26          1           0        1.425558    1.930072   -1.229641
     27          1           0        3.108954    2.424363   -1.369123
     28          1           0        2.776661    4.096484    0.482974
     29          1           0        1.083700    3.599385    0.623248
     30          1           0        1.651795    4.399523   -0.851999
     31          6           0        3.022662   -0.074687   -0.162641
     32          6           0        3.411263   -1.096453    0.906456
     33          6           0        3.763718   -2.462889    0.317880
     34          1           0        2.167374   -0.460210   -0.734695
     35          1           0        3.851686    0.034219   -0.875245
     36          1           0        2.581293   -1.202797    1.616707
     37          1           0        4.264689   -0.708506    1.477225
     38          1           0        4.606547   -2.377819   -0.375664
     39          1           0        2.913587   -2.874919   -0.235390
     40          1           0        4.038451   -3.177957    1.099583
 ---------------------------------------------------------------------

 SCF Done:  E(RHF) =  -470.732354655     A.U. after   11 cycles
 E2 =    -0.1584497212D+01 EUMP2 =    -0.47231685186695D+03

 The electronic state is 1-A.
 Alpha  occ. eigenvalues --  -11.21717 -11.21650 -11.21593 -11.21548 -11.21484
 Alpha  occ. eigenvalues --  -11.21420 -11.21373 -11.21279 -11.21166 -11.21106
 Alpha  occ. eigenvalues --  -11.21074 -11.20965  -1.08525  -1.08387  -1.03631
 Alpha  occ. eigenvalues --   -1.03481  -0.96068  -0.95942  -0.87087  -0.86960
 Alpha  occ. eigenvalues --   -0.79694  -0.79546  -0.78333  -0.78212  -0.65327
 Alpha  occ. eigenvalues --   -0.64916  -0.61105  -0.60842  -0.59493  -0.59229
 Alpha  occ. eigenvalues --   -0.57681  -0.57555  -0.55334  -0.55247  -0.52797
 Alpha  occ. eigenvalues --   -0.52627  -0.52518  -0.52345  -0.49994  -0.49888
 Alpha  occ. eigenvalues --   -0.48045  -0.47835  -0.46707  -0.46573  -0.45914
 Alpha  occ. eigenvalues --   -0.45812  -0.45723  -0.45556  -0.43813  -0.43743
 Alpha virt. eigenvalues --    0.19795   0.22990   0.23297   0.24998   0.26035
 Alpha virt. eigenvalues --    0.26287   0.27079   0.27463   0.28051   0.29489
 Alpha virt. eigenvalues --    0.30212   0.30856   0.31705   0.32059   0.32470

 Mulliken charges:
               1
     1  C   -0.298349
     2  C   -0.299722
     3  C   -0.475765
     4  H    0.149486
     5  H    0.149778
     6  H    0.152002
     7  H    0.152101
     8  H    0.155296
     9  H    0.155296
    10  H    0.160444
    11  C   -0.298407
    12  C   -0.304705
    13  C   -0.481648
    14  H    0.149608
    15  H    0.150219
    16  H    0.155346
    17  H    0.152525
    18  H    0.156454
    19  H    0.156878
    20  H    0.164227
    21  C   -0.297820
    22  C   -0.301776
    23  C   -0.475436
    24  H    0.148657
    25  H    0.149604
    26  H    0.153434
    27  H    0.152126
    28  H    0.155254
    29  H    0.154548
    30  H    0.160355
    31  C   -0.306432
    32  C   -0.298802
    33  C   -0.480856
    34  H    0.158705
    35  H    0.149157
    36  H    0.151316
    37  H    0.151677
    38  H    0.154372
    39  H    0.161089
    40  H    0.159763
 Sum of Mulliken charges =  -0.00000

 Dipole moment (field-independent basis, Debye):
    X=             -0.0541    Y=             -0.0264    Z=             -0.0261  Tot=              0.0656
 Quadrupole moment (field-independent basis, Debye-Ang):
   XX=            -84.3742   YY=            -86.2744   ZZ=            -84.1853
   XY=              1.4216   XZ=              0.3009   YZ=              0.0910

 Normal termination of Gaussian 16 at Thu May  6 10:01:30 2021.
