 Gaussian 16, Revision A.03,
 Gaussian 16:  EM64L-G16RevA.03 25-Dec-2016

 -------------
 #p 6-31g* mp2
 -------------

 ------------------------------------------------------
 Input file generated by CHIRIPA (05-May-2021 14:51:10)
 ------------------------------------------------------
 Symbolic Z-matrix:
 Charge =  0 Multiplicity = 1

                         Standard orientation:
 ---------------------------------------------------------------------
 Center     Atomic      Atomic             Coordinates (Angstroms)
 Number     Number       Type             X           Y           Z
 ---------------------------------------------------------------------
      1          6           0       -2.172780   -1.499931    0.162793
      2          6           0       -0.710667   -1.410568   -0.275643
      3          6           0        0.090981   -2.662793    0.080850
      4          1           0       -2.214027   -1.666874    1.247862
      5          1           0       -2.635979   -2.378901   -0.306518
      6          1           0       -0.250741   -0.531243    0.193262
      7          1           0       -0.672899   -1.243627   -1.359765
      8          1           0       -0.341480   -3.546661   -0.399103
      9          1           0        0.083076   -2.830229    1.162748
     10          1           0        1.133374   -2.577477   -0.241638
     11          6           0       -2.987159   -0.255576   -0.186629
     12          6           0       -4.449272   -0.344939    0.251807
     13          6           0       -5.250921    0.907286   -0.104686
     14          1           0       -2.523961    0.623394    0.282682
     15          1           0       -2.945912   -0.088633   -1.271698
     16          1           0       -4.487040   -0.511880    1.335929
     17          1           0       -4.909198   -1.224264   -0.217098
     18          1           0       -5.243015    1.074722   -1.186584
     19          1           0       -4.818459    1.791154    0.375267
     20          1           0       -6.293313    0.821970    0.217802
     21          6           0        2.989871    0.347687    0.378582
     22          6           0        3.618822   -0.686206   -0.556015
     23          6           0        4.435721   -1.739992    0.192321
     24          1           0        3.783270    0.839835    0.957592
     25          1           0        2.346874   -0.168200    1.105088
     26          1           0        4.259356   -0.168395   -1.281414
     27          1           0        2.823850   -1.175815   -1.133005
     28          1           0        3.804989   -2.282533    0.903957
     29          1           0        5.248651   -1.269389    0.754706
     30          1           0        4.876286   -2.469007   -0.494921
     31          6           0        2.170068    1.407820   -0.354745
     32          6           0        1.541118    2.441713    0.579851
     33          6           0        0.724218    3.495499   -0.168485
     34          1           0        2.813066    1.923706   -1.081252
     35          1           0        1.376670    0.915672   -0.933756
     36          1           0        2.336089    2.931322    1.156842
     37          1           0        0.900583    1.923902    1.305249
     38          1           0       -0.088712    3.024895   -0.730871
     39          1           0        1.354951    4.038039   -0.880122
     40          1           0        0.283654    4.224513    0.518757
 ---------------------------------------------------------------------

 SCF Done:  E(RHF) =  -470.732449043     A.U. after   11 cycles
 E2 =    -0.1585128182D+01 EUMP2 =    -0.47231757722498D+03

 The electronic state is 1-A.
 Alpha  occ. eigenvalues --  -11.21678 -11.21642 -11.21609 -11.21587 -11.21469
 Alpha  occ. eigenvalues --  -11.21410 -11.21364 -11.21285 -11.21126 -11.21095
 Alpha  occ. eigenvalues --  -11.21065 -11.21063  -1.08531  -1.08386  -1.03605
 Alpha  occ. eigenvalues --   -1.03519  -0.96042  -0.95968  -0.87074  -0.86967
 Alpha  occ. eigenvalues --   -0.79695  -0.79566  -0.78352  -0.78192  -0.65370
 Alpha  occ. eigenvalues --   -0.64918  -0.61044  -0.60965  -0.59356  -0.59310
 Alpha  occ. eigenvalues --   -0.57614  -0.57579  -0.55393  -0.55210  -0.52727
 Alpha  occ. eigenvalues --   -0.52669  -0.52491  -0.52361  -0.50015  -0.49889
 Alpha  occ. eigenvalues --   -0.48078  -0.47799  -0.46707  -0.46608  -0.46017
 Alpha  occ. eigenvalues --   -0.45835  -0.45658  -0.45473  -0.43829  -0.43766
 Alpha virt. eigenvalues --    0.19604   0.22122   0.23490   0.25094   0.25681
 Alpha virt. eigenvalues --    0.26352   0.27171   0.27600   0.28046   0.29862
 Alpha virt. eigenvalues --    0.30899   0.31280   0.31698   0.31775   0.32481

 Mulliken charges:
               1
     1  C   -0.297757
     2  C   -0.306875
     3  C   -0.483092
     4  H    0.149741
     5  H    0.149890
     6  H    0.159380
     7  H    0.151576
     8  H    0.155742
     9  H    0.154890
    10  H    0.168052
    11  C   -0.299144
    12  C   -0.299646
    13  C   -0.475830
    14  H    0.149762
    15  H    0.149646
    16  H    0.152065
    17  H    0.152118
    18  H    0.155259
    19  H    0.155472
    20  H    0.160409
    21  C   -0.299990
    22  C   -0.303480
    23  C   -0.477506
    24  H    0.149809
    25  H    0.151187
    26  H    0.152741
    27  H    0.154028
    28  H    0.156617
    29  H    0.155471
    30  H    0.160216
    31  C   -0.303643
    32  C   -0.300711
    33  C   -0.476382
    34  H    0.149849
    35  H    0.155529
    36  H    0.152160
    37  H    0.150935
    38  H    0.156199
    39  H    0.155375
    40  H    0.159939
 Sum of Mulliken charges =  -0.00000

 Dipole moment (field-independent basis, Debye):
    X=             -0.0170    Y=             -0.0138    Z=             -0.0103  Tot=              0.0242
 Quadrupole moment (field-independent basis, Debye-Ang):
   XX=            -84.9152   YY=            -85.6863   ZZ=            -84.1489
   XY=              1.6795   XZ=             -0.2234   YZ=              0.8072

 Normal termination of Gaussian 16 at Wed May  5 19:47:06 2021.
