 Gaussian 16, Revision A.03,
 Gaussian 16:  EM64L-G16RevA.03 25-Dec-2016

 -------------
 #p 6-31g* mp2
 -------------

 ------------------------------------------------------
 Input file generated by CHIRIPA (05-May-2021 14:55:20)
 ------------------------------------------------------
 Symbolic Z-matrix:
 Charge =  0 Multiplicity = 1

                         Standard orientation:
 ---------------------------------------------------------------------
 Center     Atomic      Atomic             Coordinates (Angstroms)
 Number     Number       Type             X           Y           Z
 ---------------------------------------------------------------------
      1          6           0       -3.833361    2.597281    0.152962
      2          6           0       -2.690455    2.063415    0.757343
      3          6           0       -2.417621    0.694683    0.675589
      4          6           0       -3.313187   -0.114775   -0.021569
      5          6           0       -4.460286    0.387197   -0.634331
      6          6           0       -4.713078    1.758946   -0.539724
      7          1           0       -4.037520    3.661716    0.221463
      8          1           0       -2.005491    2.712091    1.295941
      9          1           0       -1.540229    0.254972    1.134124
     10          1           0       -5.124496   -0.284574   -1.164394
     11          1           0       -5.601449    2.170785   -1.010074
     12          7           0       -3.034959   -1.565387   -0.114921
     13          8           0       -3.839654   -2.257297   -0.734891
     14          8           0       -2.017457   -1.982999    0.433647
     15          6           0        5.061477   -0.204841   -0.021143
     16          6           0        5.735205    1.119989   -0.380174
     17          6           0        7.259438    1.012441   -0.434385
     18          1           0        5.440879   -0.550408    0.950239
     19          1           0        5.350237   -0.966672   -0.758454
     20          1           0        5.444158    1.879440    0.356808
     21          1           0        5.354013    1.462538   -1.350725
     22          1           0        7.567228    0.275041   -1.182789
     23          1           0        7.657885    0.694311    0.534446
     24          1           0        7.720587    1.970806   -0.692720
     25          6           0        3.537671   -0.113375    0.036971
     26          6           0        2.863944   -1.438204    0.396003
     27          6           0        1.339711   -1.330657    0.450214
     28          1           0        3.248912    0.648456    0.774282
     29          1           0        3.158270    0.232193   -0.934410
     30          1           0        3.245137   -1.780753    1.366553
     31          1           0        3.154991   -2.197654   -0.340979
     32          1           0        0.941263   -1.012527   -0.518618
     33          1           0        1.031922   -0.593255    1.198617
     34          1           0        0.878561   -2.289022    0.708548
 ---------------------------------------------------------------------

 SCF Done:  E(RHF) =  -669.535586828     A.U. after   15 cycles
 E2 =    -0.2091510534D+01 EUMP2 =    -0.67162709736288D+03

 The electronic state is 1-A.
 Alpha  occ. eigenvalues --  -20.60787 -20.60774 -15.85821 -11.31165 -11.27745
 Alpha  occ. eigenvalues --  -11.27709 -11.27489 -11.26757 -11.26741 -11.21511
 Alpha  occ. eigenvalues --  -11.21215 -11.21158 -11.21103 -11.20995 -11.20374
 Alpha  occ. eigenvalues --   -1.59851  -1.39405  -1.19342  -1.08744  -1.08192
 Alpha  occ. eigenvalues --   -1.04741  -1.03228  -0.95696  -0.95546  -0.86675
 Alpha  occ. eigenvalues --   -0.86139  -0.82414  -0.79311  -0.78023  -0.77435
 Alpha  occ. eigenvalues --   -0.72048  -0.71168  -0.70454  -0.64998  -0.64834
 Alpha  occ. eigenvalues --   -0.64746  -0.62094  -0.60636  -0.59019  -0.57268
 Alpha  occ. eigenvalues --   -0.55256  -0.54969  -0.53076  -0.52859  -0.52272
 Alpha  occ. eigenvalues --   -0.52080  -0.49638  -0.48810  -0.48791  -0.47608
 Alpha  occ. eigenvalues --   -0.46368  -0.45552  -0.45489  -0.44796  -0.43420
 Alpha  occ. eigenvalues --   -0.37328  -0.36343
 Alpha virt. eigenvalues --    0.05054   0.11295   0.16544   0.21030   0.23076
 Alpha virt. eigenvalues --    0.24372   0.25806   0.26975   0.27716   0.27791
 Alpha virt. eigenvalues --    0.29234   0.30563   0.31522   0.31889   0.32560

 Mulliken charges:
               1
     1  C   -0.170469
     2  C   -0.220357
     3  C   -0.173520
     4  C    0.156096
     5  C   -0.170513
     6  C   -0.218951
     7  H    0.225488
     8  H    0.223562
     9  H    0.283840
    10  H    0.275429
    11  H    0.223291
    12  N    0.490627
    13  O   -0.460525
    14  O   -0.462021
    15  C   -0.297806
    16  C   -0.299168
    17  C   -0.475524
    18  H    0.149456
    19  H    0.150305
    20  H    0.150028
    21  H    0.151265
    22  H    0.155654
    23  H    0.155125
    24  H    0.159254
    25  C   -0.297423
    26  C   -0.302469
    27  C   -0.470858
    28  H    0.144727
    29  H    0.148383
    30  H    0.150460
    31  H    0.153099
    32  H    0.153449
    33  H    0.139240
    34  H    0.180827
 Sum of Mulliken charges =  -0.00000

 Dipole moment (field-independent basis, Debye):
    X=             -1.0949    Y=              4.9564    Z=              0.3119  Tot=              5.0855
 Quadrupole moment (field-independent basis, Debye-Ang):
   XX=            -86.8266   YY=            -96.1200   ZZ=            -93.0814
   XY=            -16.7338   XZ=              1.6194   YZ=              0.4601

 Normal termination of Gaussian 16 at Wed May  5 20:31:29 2021.
