 Gaussian 16, Revision A.03,
 Gaussian 16:  EM64L-G16RevA.03 25-Dec-2016

 -------------
 #p 6-31g* mp2
 -------------

 ------------------------------------------------------
 Input file generated by CHIRIPA (05-May-2021 14:57:24)
 ------------------------------------------------------
 Symbolic Z-matrix:
 Charge =  0 Multiplicity = 1

                         Standard orientation:
 ---------------------------------------------------------------------
 Center     Atomic      Atomic             Coordinates (Angstroms)
 Number     Number       Type             X           Y           Z
 ---------------------------------------------------------------------
      1          6           0       -1.045272   -2.471684    0.053720
      2          6           0       -0.818551   -1.512015    1.045765
      3          6           0       -1.635841   -0.381675    1.140192
      4          6           0       -2.675432   -0.242210    0.221992
      5          6           0       -2.926749   -1.180822   -0.777577
      6          6           0       -2.096793   -2.303321   -0.853186
      7          1           0       -0.405462   -3.346714   -0.012324
      8          1           0       -0.002672   -1.640152    1.751433
      9          1           0       -1.482760    0.376737    1.898345
     10          1           0       -3.747918   -1.025528   -1.466766
     11          1           0       -2.275219   -3.046991   -1.624655
     12          7           0       -3.547364    0.950280    0.311997
     13          8           0       -4.456608    1.049880   -0.508973
     14          8           0       -3.305030    1.762774    1.201809
     15          6           0        1.448966    2.667321   -0.683615
     16          6           0        0.880881    1.491598   -1.185088
     17          6           0        1.472217    0.251255   -0.927370
     18          6           0        2.636404    0.223297   -0.161096
     19          6           0        3.226399    1.377163    0.352510
     20          6           0        2.617851    2.606458    0.082233
     21          1           0        0.982916    3.626558   -0.888694
     22          1           0       -0.026854    1.535843   -1.780156
     23          1           0        1.053598   -0.674424   -1.303262
     24          1           0        4.131665    1.301207    0.942546
     25          1           0        3.061253    3.517918    0.472977
     26          7           0        3.271536   -1.083951    0.118386
     27          8           0        4.296856   -1.081692    0.796139
     28          8           0        2.732004   -2.086079   -0.345601
 ---------------------------------------------------------------------

 SCF Done:  E(RHF) =  -868.339285286     A.U. after   16 cycles
 E2 =    -0.2602740323D+01 EUMP2 =    -0.87094202560981D+03

 The electronic state is 1-A.
 Alpha  occ. eigenvalues --  -20.61451 -20.61406 -20.61177 -20.61171 -15.86462
 Alpha  occ. eigenvalues --  -15.86226 -11.31481 -11.31479 -11.28060 -11.28057
 Alpha  occ. eigenvalues --  -11.28000 -11.27977 -11.27687 -11.27544 -11.26978
 Alpha  occ. eigenvalues --  -11.26949 -11.26898 -11.26846  -1.60507  -1.60263
 Alpha  occ. eigenvalues --   -1.40070  -1.39815  -1.19693  -1.19597  -1.09096
 Alpha  occ. eigenvalues --   -1.09008  -1.05070  -1.04922  -0.95985  -0.95851
 Alpha  occ. eigenvalues --   -0.86454  -0.86318  -0.82827  -0.82683  -0.77925
 Alpha  occ. eigenvalues --   -0.77785  -0.72693  -0.72433  -0.71842  -0.71603
 Alpha  occ. eigenvalues --   -0.70731  -0.70582  -0.65299  -0.65230  -0.64983
 Alpha  occ. eigenvalues --   -0.64925  -0.62369  -0.62323  -0.55495  -0.55336
 Alpha  occ. eigenvalues --   -0.53811  -0.53144  -0.53029  -0.52830  -0.49461
 Alpha  occ. eigenvalues --   -0.49403  -0.49201  -0.49183  -0.45547  -0.45244
 Alpha  occ. eigenvalues --   -0.37832  -0.37390  -0.37249  -0.35856
 Alpha virt. eigenvalues --    0.04547   0.04729   0.10313   0.11766   0.16099
 Alpha virt. eigenvalues --    0.16220   0.21235   0.21517   0.27082   0.27186
 Alpha virt. eigenvalues --    0.28006   0.28577   0.30868   0.31130   0.32239

 Mulliken charges:
               1
     1  C   -0.175033
     2  C   -0.221560
     3  C   -0.168605
     4  C    0.153102
     5  C   -0.175192
     6  C   -0.223229
     7  H    0.241927
     8  H    0.230551
     9  H    0.275684
    10  H    0.275212
    11  H    0.225944
    12  N    0.487135
    13  O   -0.461044
    14  O   -0.461048
    15  C   -0.168713
    16  C   -0.221676
    17  C   -0.167066
    18  C    0.150520
    19  C   -0.171537
    20  C   -0.220088
    21  H    0.231151
    22  H    0.226752
    23  H    0.276077
    24  H    0.275193
    25  H    0.225171
    26  N    0.487901
    27  O   -0.457653
    28  O   -0.469876
 Sum of Mulliken charges =  -0.00000

 Dipole moment (field-independent basis, Debye):
    X=              0.8708    Y=              0.3877    Z=             -1.2460  Tot=              1.5688
 Quadrupole moment (field-independent basis, Debye-Ang):
   XX=           -130.6868   YY=            -99.3163   ZZ=           -101.0523
   XY=             25.5246   XZ=              3.8091   YZ=              0.7984

 Normal termination of Gaussian 16 at Wed May  5 22:45:09 2021.
