 Gaussian 16, Revision A.03,
 Gaussian 16:  EM64L-G16RevA.03 25-Dec-2016

 -------------
 #p 6-31g* mp2
 -------------

 ------------------------------------------------------
 Input file generated by CHIRIPA (05-May-2021 14:55:20)
 ------------------------------------------------------
 Symbolic Z-matrix:
 Charge =  0 Multiplicity = 1

                         Standard orientation:
 ---------------------------------------------------------------------
 Center     Atomic      Atomic             Coordinates (Angstroms)
 Number     Number       Type             X           Y           Z
 ---------------------------------------------------------------------
      1          6           0        0.831552    1.090766    1.931504
      2          6           0        1.962062    1.721112    1.401285
      3          6           0        2.784058    1.054199    0.487996
      4          6           0        2.444323   -0.248233    0.125308
      5          6           0        1.324722   -0.903183    0.636018
      6          6           0        0.517045   -0.217064    1.547855
      7          1           0        0.198568    1.616299    2.640405
      8          1           0        2.208753    2.736735    1.697424
      9          1           0        3.665221    1.518437    0.062023
     10          1           0        1.104521   -1.916183    0.321757
     11          1           0       -0.360299   -0.709089    1.958005
     12          7           0        3.306954   -0.964430   -0.840782
     13          8           0        2.985938   -2.111386   -1.144223
     14          8           0        4.287766   -0.365267   -1.276268
     15          6           0       -2.454171    0.747025   -0.301283
     16          6           0       -2.835134    1.960412   -1.150132
     17          6           0       -1.840091    3.113256   -1.013627
     18          1           0       -2.385691    1.051376    0.752105
     19          1           0       -1.451930    0.404078   -0.593339
     20          1           0       -3.836927    2.300121   -0.857516
     21          1           0       -2.902902    1.653094   -2.201597
     22          1           0       -0.839160    2.797097   -1.324727
     23          1           0       -1.778492    3.447800    0.026992
     24          1           0       -2.131683    3.970227   -1.628796
     25          6           0       -3.439335   -0.413727   -0.427117
     26          6           0       -3.058372   -1.627114    0.421732
     27          6           0       -4.053415   -2.779958    0.285227
     28          1           0       -4.441575   -0.070780   -0.135061
     29          1           0       -3.507815   -0.718078   -1.480505
     30          1           0       -2.990604   -1.319797    1.473197
     31          1           0       -2.056579   -1.966823    0.129116
     32          1           0       -4.115014   -3.114502   -0.755392
     33          1           0       -5.054345   -2.463799    0.596326
     34          1           0       -3.761823   -3.636929    0.900396
 ---------------------------------------------------------------------

 SCF Done:  E(RHF) =  -669.534639240     A.U. after   15 cycles
 E2 =    -0.2094104572D+01 EUMP2 =    -0.67162874381169D+03

 The electronic state is 1-A.
 Alpha  occ. eigenvalues --  -20.60768 -20.60763 -15.85819 -11.31182 -11.27715
 Alpha  occ. eigenvalues --  -11.27698 -11.27429 -11.26758 -11.26676 -11.22453
 Alpha  occ. eigenvalues --  -11.22038 -11.21969 -11.21852 -11.21659 -11.21515
 Alpha  occ. eigenvalues --   -1.59843  -1.39397  -1.19337  -1.09037  -1.08717
 Alpha  occ. eigenvalues --   -1.04733  -1.04110  -0.96524  -0.95569  -0.87546
 Alpha  occ. eigenvalues --   -0.86130  -0.82406  -0.80212  -0.78879  -0.77427
 Alpha  occ. eigenvalues --   -0.72036  -0.71167  -0.70434  -0.65659  -0.64975
 Alpha  occ. eigenvalues --   -0.64722  -0.62089  -0.61502  -0.59901  -0.58159
 Alpha  occ. eigenvalues --   -0.55800  -0.55226  -0.53313  -0.53164  -0.52855
 Alpha  occ. eigenvalues --   -0.52790  -0.50467  -0.48801  -0.48794  -0.48504
 Alpha  occ. eigenvalues --   -0.47247  -0.46371  -0.46264  -0.44803  -0.44349
 Alpha  occ. eigenvalues --   -0.37265  -0.36252
 Alpha virt. eigenvalues --    0.05026   0.11279   0.16429   0.19977   0.22833
 Alpha virt. eigenvalues --    0.23335   0.24848   0.25673   0.27399   0.28496
 Alpha virt. eigenvalues --    0.29107   0.29734   0.31126   0.31462   0.31991

 Mulliken charges:
               1
     1  C   -0.170337
     2  C   -0.217965
     3  C   -0.172317
     4  C    0.159041
     5  C   -0.176920
     6  C   -0.215305
     7  H    0.224967
     8  H    0.223593
     9  H    0.275389
    10  H    0.275319
    11  H    0.230277
    12  N    0.488093
    13  O   -0.460677
    14  O   -0.460388
    15  C   -0.300495
    16  C   -0.300029
    17  C   -0.475363
    18  H    0.139071
    19  H    0.158455
    20  H    0.151582
    21  H    0.155028
    22  H    0.158816
    23  H    0.148841
    24  H    0.161862
    25  C   -0.297868
    26  C   -0.303492
    27  C   -0.475456
    28  H    0.150579
    29  H    0.153985
    30  H    0.144852
    31  H    0.149295
    32  H    0.159526
    33  H    0.157070
    34  H    0.160972
 Sum of Mulliken charges =  -0.00000

 Dipole moment (field-independent basis, Debye):
    X=             -3.1190    Y=              2.5062    Z=              3.3043  Tot=              5.1892
 Quadrupole moment (field-independent basis, Debye-Ang):
   XX=           -108.2865   YY=            -93.7467   ZZ=            -93.9423
   XY=              9.2467   XZ=              7.6941   YZ=             -0.4741

 Normal termination of Gaussian 16 at Wed May  5 18:56:00 2021.
