 Gaussian 16, Revision A.03,
 Gaussian 16:  EM64L-G16RevA.03 25-Dec-2016

 -------------
 #p 6-31g* mp2
 -------------

 ------------------------------------------------------
 Input file generated by CHIRIPA (05-May-2021 14:57:23)
 ------------------------------------------------------
 Symbolic Z-matrix:
 Charge =  0 Multiplicity = 1

                         Standard orientation:
 ---------------------------------------------------------------------
 Center     Atomic      Atomic             Coordinates (Angstroms)
 Number     Number       Type             X           Y           Z
 ---------------------------------------------------------------------
      1          6           0        2.222807    2.613869   -0.101034
      2          6           0        3.135610    1.946584   -0.924467
      3          6           0        3.435279    0.598615   -0.706007
      4          6           0        2.800895   -0.054259    0.349740
      5          6           0        1.886972    0.583058    1.187513
      6          6           0        1.602495    1.931180    0.950475
      7          1           0        1.995918    3.661064   -0.277955
      8          1           0        3.618865    2.474244   -1.741831
      9          1           0        4.137993    0.057745   -1.328158
     10          1           0        1.421176    0.030448    1.994405
     11          1           0        0.893187    2.446858    1.591570
     12          7           0        3.110099   -1.481374    0.590848
     13          8           0        2.537751   -2.034088    1.527631
     14          8           0        3.918947   -2.020211   -0.161520
     15          6           0       -4.921889    0.405375    0.832258
     16          6           0       -3.969918    1.400080    0.585613
     17          6           0       -2.763007    1.086676   -0.046601
     18          6           0       -2.539957   -0.237631   -0.420432
     19          6           0       -3.468704   -1.251008   -0.188518
     20          6           0       -4.668691   -0.914667    0.445088
     21          1           0       -5.856756    0.657743    1.323917
     22          1           0       -4.163854    2.426085    0.885192
     23          1           0       -2.008619    1.837041   -0.249743
     24          1           0       -3.246906   -2.264897   -0.498766
     25          1           0       -5.406180   -1.689233    0.635357
     26          7           0       -1.265921   -0.581559   -1.090466
     27          8           0       -1.093453   -1.755775   -1.410008
     28          8           0       -0.463923    0.329600   -1.283408
 ---------------------------------------------------------------------

 SCF Done:  E(RHF) =  -868.336723074     A.U. after   16 cycles
 E2 =    -0.2601841869D+01 EUMP2 =    -0.87093856494268D+03

 The electronic state is 1-A.
 Alpha  occ. eigenvalues --  -20.60926 -20.60918 -20.59729 -20.59712 -15.85946
 Alpha  occ. eigenvalues --  -15.84777 -11.31421 -11.30038 -11.28051 -11.27944
 Alpha  occ. eigenvalues --  -11.27738 -11.27065 -11.26982 -11.26701 -11.26626
 Alpha  occ. eigenvalues --  -11.26477 -11.25777 -11.25677  -1.59993  -1.58788
 Alpha  occ. eigenvalues --   -1.39543  -1.38353  -1.19597  -1.18218  -1.08972
 Alpha  occ. eigenvalues --   -1.07667  -1.05015  -1.03674  -0.95793  -0.94524
 Alpha  occ. eigenvalues --   -0.86405  -0.85112  -0.82625  -0.81393  -0.77665
 Alpha  occ. eigenvalues --   -0.76427  -0.72188  -0.71334  -0.71024  -0.70699
 Alpha  occ. eigenvalues --   -0.70070  -0.69461  -0.65248  -0.65017  -0.63951
 Alpha  occ. eigenvalues --   -0.63780  -0.62364  -0.61084  -0.55502  -0.54267
 Alpha  occ. eigenvalues --   -0.53343  -0.53107  -0.51917  -0.51855  -0.48970
 Alpha  occ. eigenvalues --   -0.48908  -0.47773  -0.47762  -0.44899  -0.43784
 Alpha  occ. eigenvalues --   -0.37577  -0.36627  -0.36167  -0.35159
 Alpha virt. eigenvalues --    0.04855   0.06178   0.11017   0.12365   0.16342
 Alpha virt. eigenvalues --    0.17657   0.21047   0.22209   0.26802   0.27676
 Alpha virt. eigenvalues --    0.28497   0.29145   0.30697   0.31543   0.32438

 Mulliken charges:
               1
     1  C   -0.166378
     2  C   -0.214125
     3  C   -0.164811
     4  C    0.168783
     5  C   -0.167031
     6  C   -0.211266
     7  H    0.218247
     8  H    0.219331
     9  H    0.273435
    10  H    0.268993
    11  H    0.211466
    12  N    0.489441
    13  O   -0.465217
    14  O   -0.461425
    15  C   -0.170856
    16  C   -0.218493
    17  C   -0.173692
    18  C    0.158693
    19  C   -0.169833
    20  C   -0.218210
    21  H    0.226192
    22  H    0.221576
    23  H    0.270503
    24  H    0.278807
    25  H    0.225263
    26  N    0.487446
    27  O   -0.455149
    28  O   -0.461692
 Sum of Mulliken charges =  -0.00000

 Dipole moment (field-independent basis, Debye):
    X=             -5.6767    Y=              6.0146    Z=              1.3062  Tot=              8.3730
 Quadrupole moment (field-independent basis, Debye-Ang):
   XX=            -86.7100   YY=           -102.5278   ZZ=           -105.8021
   XY=             13.9810   XZ=            -10.1743   YZ=              0.9797

 Normal termination of Gaussian 16 at Thu May  6 21:11:59 2021.
