 Gaussian 16, Revision A.03,
 Gaussian 16:  EM64L-G16RevA.03 25-Dec-2016

 -------------
 #p 6-31g* mp2
 -------------

 ------------------------------------------------------
 Input file generated by CHIRIPA (05-May-2021 14:57:22)
 ------------------------------------------------------
 Symbolic Z-matrix:
 Charge =  0 Multiplicity = 1

                         Standard orientation:
 ---------------------------------------------------------------------
 Center     Atomic      Atomic             Coordinates (Angstroms)
 Number     Number       Type             X           Y           Z
 ---------------------------------------------------------------------
      1          6           0       -5.773971    1.384418   -0.141392
      2          6           0       -5.108183    0.923508   -1.281923
      3          6           0       -3.969633    0.120842   -1.163682
      4          6           0       -3.522375   -0.203100    0.116284
      5          6           0       -4.163890    0.240612    1.271649
      6          6           0       -5.300534    1.042103    1.129513
      7          1           0       -6.657683    2.007491   -0.242525
      8          1           0       -5.473600    1.187771   -2.270194
      9          1           0       -3.434944   -0.249659   -2.029854
     10          1           0       -3.775808   -0.039498    2.243424
     11          1           0       -5.815575    1.398617    2.017023
     12          7           0       -2.318053   -1.052223    0.254108
     13          8           0       -1.944126   -1.323534    1.393058
     14          8           0       -1.770835   -1.430377   -0.779424
     15          6           0        5.330335    1.972618    0.266248
     16          6           0        4.035495    2.226544   -0.197899
     17          6           0        3.135304    1.176304   -0.400878
     18          6           0        3.565264   -0.121446   -0.128354
     19          6           0        4.848735   -0.406599    0.334982
     20          6           0        5.732114    0.659172    0.530741
     21          1           0        6.023094    2.794502    0.421123
     22          1           0        3.720725    3.245577   -0.404140
     23          1           0        2.127050    1.344508   -0.759415
     24          1           0        5.133611   -1.433014    0.531799
     25          1           0        6.737093    0.458996    0.891286
     26          7           0        2.621171   -1.241509   -0.339417
     27          8           0        3.024369   -2.375886   -0.091916
     28          8           0        1.495871   -0.963829   -0.748354
 ---------------------------------------------------------------------

 SCF Done:  E(RHF) =  -868.334525992     A.U. after   16 cycles
 E2 =    -0.2600626591D+01 EUMP2 =    -0.87093515258337D+03

 The electronic state is 1-A.
 Alpha  occ. eigenvalues --  -20.59757 -20.59657 -20.59601 -20.59521 -15.84779
 Alpha  occ. eigenvalues --  -15.84629 -11.30571 -11.30420 -11.27197 -11.27176
 Alpha  occ. eigenvalues --  -11.27048 -11.27039 -11.27013 -11.26874 -11.26304
 Alpha  occ. eigenvalues --  -11.26291 -11.26167 -11.26149  -1.58772  -1.58634
 Alpha  occ. eigenvalues --   -1.38321  -1.38178  -1.18784  -1.18637  -1.08099
 Alpha  occ. eigenvalues --   -1.07953  -1.04249  -1.04106  -0.94864  -0.94707
 Alpha  occ. eigenvalues --   -0.85626  -0.85484  -0.81700  -0.81537  -0.76668
 Alpha  occ. eigenvalues --   -0.76524  -0.71067  -0.70750  -0.70119  -0.69971
 Alpha  occ. eigenvalues --   -0.69887  -0.69745  -0.64425  -0.64283  -0.64247
 Alpha  occ. eigenvalues --   -0.64118  -0.61590  -0.61452  -0.54737  -0.54600
 Alpha  occ. eigenvalues --   -0.52560  -0.52409  -0.52345  -0.52208  -0.47896
 Alpha  occ. eigenvalues --   -0.47734  -0.47598  -0.47392  -0.43645  -0.43465
 Alpha  occ. eigenvalues --   -0.36792  -0.36641  -0.35876  -0.35729
 Alpha virt. eigenvalues --    0.05860   0.06037   0.11772   0.11920   0.17283
 Alpha virt. eigenvalues --    0.17446   0.21866   0.21986   0.27748   0.27860
 Alpha virt. eigenvalues --    0.28795   0.28919   0.31386   0.31502   0.33060

 Mulliken charges:
               1
     1  C   -0.172403
     2  C   -0.218787
     3  C   -0.172156
     4  C    0.159010
     5  C   -0.172232
     6  C   -0.218667
     7  H    0.222968
     8  H    0.221345
     9  H    0.276732
    10  H    0.274705
    11  H    0.221043
    12  N    0.486617
    13  O   -0.462765
    14  O   -0.444931
    15  C   -0.172235
    16  C   -0.218536
    17  C   -0.171164
    18  C    0.160065
    19  C   -0.171390
    20  C   -0.218488
    21  H    0.222505
    22  H    0.220013
    23  H    0.274771
    24  H    0.275224
    25  H    0.221077
    26  N    0.487693
    27  O   -0.463072
    28  O   -0.446941
 Sum of Mulliken charges =  -0.00000

 Dipole moment (field-independent basis, Debye):
    X=             -0.9476    Y=              6.6985    Z=              0.1406  Tot=              6.7667
 Quadrupole moment (field-independent basis, Debye-Ang):
   XX=            -52.3280   YY=           -106.3198   ZZ=           -100.6007
   XY=              1.3229   XZ=              4.4190   YZ=             -0.8611

 Normal termination of Gaussian 16 at Thu May  6 04:56:05 2021.
