 Gaussian 16, Revision A.03,
 Gaussian 16:  EM64L-G16RevA.03 25-Dec-2016

 -------------
 #p 6-31g* mp2
 -------------

 ------------------------------------------------------
 Input file generated by CHIRIPA (05-May-2021 14:57:25)
 ------------------------------------------------------
 Symbolic Z-matrix:
 Charge =  0 Multiplicity = 1

                         Standard orientation:
 ---------------------------------------------------------------------
 Center     Atomic      Atomic             Coordinates (Angstroms)
 Number     Number       Type             X           Y           Z
 ---------------------------------------------------------------------
      1          6           0       -1.280702   -0.572414   -1.693787
      2          6           0       -2.134752   -1.624958   -1.348434
      3          6           0       -3.223966   -1.406233   -0.499716
      4          6           0       -3.430450   -0.116595   -0.012388
      5          6           0       -2.597410    0.952629   -0.338111
      6          6           0       -1.514345    0.710758   -1.188414
      7          1           0       -0.436963   -0.751315   -2.353707
      8          1           0       -1.955735   -2.622521   -1.739416
      9          1           0       -3.900913   -2.202947   -0.216154
     10          1           0       -2.801495    1.936151    0.067415
     11          1           0       -0.852731    1.530079   -1.454922
     12          7           0       -4.580297    0.127211    0.886951
     13          8           0       -4.740570    1.272584    1.302968
     14          8           0       -5.299501   -0.831683    1.158805
     15          6           0        4.051104   -2.130731    0.851164
     16          6           0        3.598411   -1.913065   -0.454290
     17          6           0        3.147254   -0.649723   -0.847954
     18          6           0        3.162617    0.377925    0.093850
     19          6           0        3.607615    0.192497    1.401857
     20          6           0        4.054256   -1.079109    1.773446
     21          1           0        4.399821   -3.115335    1.148398
     22          1           0        3.594833   -2.727908   -1.172665
     23          1           0        2.791471   -0.453474   -1.852106
     24          1           0        3.599269    1.024370    2.095640
     25          1           0        4.405266   -1.245243    2.787959
     26          7           0        2.687388    1.719743   -0.311219
     27          8           0        2.710981    2.608557    0.537362
     28          8           0        2.300307    1.857239   -1.469623
 ---------------------------------------------------------------------

 SCF Done:  E(RHF) =  -868.339370893     A.U. after   16 cycles
 E2 =    -0.2599310495D+01 EUMP2 =    -0.87093868138834D+03

 The electronic state is 1-A.
 Alpha  occ. eigenvalues --  -20.61776 -20.61709 -20.60476 -20.60461 -15.86768
 Alpha  occ. eigenvalues --  -15.85518 -11.31956 -11.30825 -11.28567 -11.28448
 Alpha  occ. eigenvalues --  -11.28180 -11.27504 -11.27421 -11.27419 -11.27285
 Alpha  occ. eigenvalues --  -11.27110 -11.26469 -11.26183  -1.60804  -1.59548
 Alpha  occ. eigenvalues --   -1.40365  -1.39102  -1.20103  -1.18977  -1.09525
 Alpha  occ. eigenvalues --   -1.08388  -1.05486  -1.04350  -0.96394  -0.95238
 Alpha  occ. eigenvalues --   -0.86890  -0.85748  -0.83237  -0.82057  -0.78316
 Alpha  occ. eigenvalues --   -0.77107  -0.72991  -0.72112  -0.71737  -0.71211
 Alpha  occ. eigenvalues --   -0.70870  -0.70104  -0.65761  -0.65485  -0.64620
 Alpha  occ. eigenvalues --   -0.64311  -0.62845  -0.61673  -0.55975  -0.54887
 Alpha  occ. eigenvalues --   -0.53808  -0.53575  -0.52713  -0.52410  -0.49767
 Alpha  occ. eigenvalues --   -0.49725  -0.48498  -0.48489  -0.45800  -0.44521
 Alpha  occ. eigenvalues --   -0.38055  -0.37119  -0.36934  -0.35955
 Alpha virt. eigenvalues --    0.04176   0.05389   0.10553   0.11688   0.15713
 Alpha virt. eigenvalues --    0.16898   0.20198   0.21925   0.25839   0.27137
 Alpha virt. eigenvalues --    0.28003   0.28906   0.30616   0.31070   0.32875

 Mulliken charges:
               1
     1  C   -0.172794
     2  C   -0.218560
     3  C   -0.172633
     4  C    0.158548
     5  C   -0.171991
     6  C   -0.226436
     7  H    0.221769
     8  H    0.218829
     9  H    0.273317
    10  H    0.277742
    11  H    0.243477
    12  N    0.487947
    13  O   -0.459634
    14  O   -0.462605
    15  C   -0.169690
    16  C   -0.218069
    17  C   -0.172905
    18  C    0.159968
    19  C   -0.169527
    20  C   -0.217782
    21  H    0.228265
    22  H    0.223271
    23  H    0.269688
    24  H    0.278054
    25  H    0.226861
    26  N    0.488440
    27  O   -0.454154
    28  O   -0.469395
 Sum of Mulliken charges =  -0.00000

 Dipole moment (field-independent basis, Debye):
    X=              6.0251    Y=             -5.4565    Z=             -1.5518  Tot=              8.2755
 Quadrupole moment (field-independent basis, Debye-Ang):
   XX=           -122.8147   YY=           -103.3316   ZZ=           -101.0657
   XY=            -10.7378   XZ=             17.3237   YZ=              2.5294

 Normal termination of Gaussian 16 at Wed May  5 17:56:49 2021.
