 Gaussian 16, Revision A.03,
 Gaussian 16:  EM64L-G16RevA.03 25-Dec-2016

 -------------
 #p 6-31g* mp2
 -------------

 ------------------------------------------------------
 Input file generated by CHIRIPA (05-May-2021 14:55:24)
 ------------------------------------------------------
 Symbolic Z-matrix:
 Charge =  0 Multiplicity = 1

                         Standard orientation:
 ---------------------------------------------------------------------
 Center     Atomic      Atomic             Coordinates (Angstroms)
 Number     Number       Type             X           Y           Z
 ---------------------------------------------------------------------
      1          6           0        1.400025   -1.842463    1.008769
      2          6           0        1.023480   -0.710763    0.278024
      3          6           0        1.992073    0.125439   -0.285130
      4          6           0        3.334101   -0.201460   -0.097012
      5          6           0        3.740894   -1.321877    0.625813
      6          6           0        2.755142   -2.143877    1.180029
      7          1           0        0.640934   -2.486529    1.442769
      8          1           0       -0.028172   -0.474221    0.143404
      9          1           0        1.728475    1.007851   -0.855466
     10          1           0        4.797135   -1.531756    0.742967
     11          1           0        3.050498   -3.022112    1.747051
     12          7           0        4.368590    0.676272   -0.688467
     13          8           0        5.544246    0.366392   -0.508347
     14          8           0        3.984177    1.657497   -1.320970
     15          6           0       -4.135368   -0.156042   -0.466591
     16          6           0       -5.442615   -0.916612   -0.241596
     17          6           0       -5.600094   -2.112390   -1.181336
     18          1           0       -4.093083    0.187211   -1.509344
     19          1           0       -3.290284   -0.844887   -0.329764
     20          1           0       -6.284937   -0.226211   -0.377448
     21          1           0       -5.481880   -1.257930    0.800794
     22          1           0       -4.779283   -2.823189   -1.041215
     23          1           0       -5.586903   -1.785608   -2.226151
     24          1           0       -6.541364   -2.641697   -1.003277
     25          6           0       -3.963459    1.042113    0.465396
     26          6           0       -2.656212    1.802683    0.240400
     27          6           0       -2.498732    2.998460    1.180140
     28          1           0       -4.808543    1.730957    0.328569
     29          1           0       -4.005743    0.698859    1.508149
     30          1           0       -2.616947    2.144001   -0.801989
     31          1           0       -1.813890    1.112282    0.376252
     32          1           0       -2.511924    2.671679    2.224957
     33          1           0       -3.319544    3.709260    1.040019
     34          1           0       -1.557463    3.527768    1.002081
 ---------------------------------------------------------------------

 SCF Done:  E(RHF) =  -669.535508366     A.U. after   15 cycles
 E2 =    -0.2091133484D+01 EUMP2 =    -0.67162664184944D+03

 The electronic state is 1-A.
 Alpha  occ. eigenvalues --  -20.60743 -20.60738 -15.85797 -11.31162 -11.27736
 Alpha  occ. eigenvalues --  -11.27724 -11.27481 -11.26753 -11.26721 -11.22494
 Alpha  occ. eigenvalues --  -11.22250 -11.22178 -11.22114 -11.21687 -11.21639
 Alpha  occ. eigenvalues --   -1.59819  -1.39372  -1.19336  -1.09185  -1.08732
 Alpha  occ. eigenvalues --   -1.04739  -1.04228  -0.96647  -0.95567  -0.87662
 Alpha  occ. eigenvalues --   -0.86140  -0.82401  -0.80309  -0.79014  -0.77442
 Alpha  occ. eigenvalues --   -0.72015  -0.71141  -0.70448  -0.65851  -0.64988
 Alpha  occ. eigenvalues --   -0.64739  -0.62131  -0.61587  -0.60016  -0.58267
 Alpha  occ. eigenvalues --   -0.55929  -0.55248  -0.53332  -0.53076  -0.53065
 Alpha  occ. eigenvalues --   -0.52842  -0.50586  -0.48787  -0.48769  -0.48595
 Alpha  occ. eigenvalues --   -0.47344  -0.46533  -0.46465  -0.44777  -0.44489
 Alpha  occ. eigenvalues --   -0.37320  -0.36339
 Alpha virt. eigenvalues --    0.05088   0.11290   0.16548   0.19218   0.22613
 Alpha virt. eigenvalues --    0.23693   0.24515   0.26355   0.27193   0.28298
 Alpha virt. eigenvalues --    0.28981   0.30282   0.31121   0.31389   0.32193

 Mulliken charges:
               1
     1  C   -0.172194
     2  C   -0.225995
     3  C   -0.173249
     4  C    0.158666
     5  C   -0.171042
     6  C   -0.218482
     7  H    0.225567
     8  H    0.234144
     9  H    0.275906
    10  H    0.275538
    11  H    0.223256
    12  N    0.488129
    13  O   -0.460605
    14  O   -0.460397
    15  C   -0.297996
    16  C   -0.300168
    17  C   -0.475869
    18  H    0.152468
    19  H    0.141364
    20  H    0.154685
    21  H    0.151937
    22  H    0.153414
    23  H    0.156948
    24  H    0.162381
    25  C   -0.298372
    26  C   -0.305574
    27  C   -0.475686
    28  H    0.153742
    29  H    0.149937
    30  H    0.155493
    31  H    0.143848
    32  H    0.156122
    33  H    0.158679
    34  H    0.163404
 Sum of Mulliken charges =  -0.00000

 Dipole moment (field-independent basis, Debye):
    X=             -3.8393    Y=             -3.0027    Z=              2.0815  Tot=              5.3000
 Quadrupole moment (field-independent basis, Debye-Ang):
   XX=           -115.7825   YY=            -92.3076   ZZ=            -95.0437
   XY=            -12.8672   XZ=              9.1230   YZ=             -2.3690

 Normal termination of Gaussian 16 at Wed May  5 16:06:18 2021.
