 Gaussian 16, Revision A.03,
 Gaussian 16:  EM64L-G16RevA.03 25-Dec-2016

 -------------
 #p 6-31g* mp2
 -------------

 ------------------------------------------------------
 Input file generated by CHIRIPA (05-May-2021 14:57:21)
 ------------------------------------------------------
 Symbolic Z-matrix:
 Charge =  0 Multiplicity = 1

                         Standard orientation:
 ---------------------------------------------------------------------
 Center     Atomic      Atomic             Coordinates (Angstroms)
 Number     Number       Type             X           Y           Z
 ---------------------------------------------------------------------
      1          6           0       -1.341378    2.310452   -0.819253
      2          6           0       -2.483457    2.427614   -0.020223
      3          6           0       -3.285972    1.312602    0.239134
      4          6           0       -2.915169    0.090243   -0.319110
      5          6           0       -1.783350   -0.058519   -1.119201
      6          6           0       -0.995580    1.069946   -1.365229
      7          1           0       -0.723692    3.181846   -1.015551
      8          1           0       -2.754439    3.389750    0.405109
      9          1           0       -4.175481    1.375041    0.854189
     10          1           0       -1.538829   -1.030867   -1.529282
     11          1           0       -0.109187    0.975995   -1.986137
     12          7           0       -3.756951   -1.097292   -0.051595
     13          8           0       -3.408655   -2.163010   -0.555153
     14          8           0       -4.749097   -0.939876    0.656575
     15          6           0        4.935823   -0.030031   -0.916432
     16          6           0        4.598520    0.892785    0.079137
     17          6           0        3.404627    0.760825    0.794508
     18          6           0        2.567672   -0.310706    0.486910
     19          6           0        2.875850   -1.246514   -0.499285
     20          6           0        4.074931   -1.094858   -1.201962
     21          1           0        5.865282    0.080129   -1.467220
     22          1           0        5.265179    1.720725    0.303021
     23          1           0        3.118892    1.460781    1.570289
     24          1           0        2.191046   -2.061500   -0.699933
     25          1           0        4.334306   -1.813045   -1.974605
     26          7           0        1.301006   -0.460833    1.237523
     27          8           0        0.580739   -1.413587    0.947505
     28          8           0        1.052444    0.377097    2.101657
 ---------------------------------------------------------------------

 SCF Done:  E(RHF) =  -868.337509911     A.U. after   16 cycles
 E2 =    -0.2601621048D+01 EUMP2 =    -0.87093913095846D+03

 The electronic state is 1-A.
 Alpha  occ. eigenvalues --  -20.61167 -20.61162 -20.59789 -20.59772 -15.86196
 Alpha  occ. eigenvalues --  -15.84843 -11.31707 -11.30185 -11.28268 -11.28265
 Alpha  occ. eigenvalues --  -11.28002 -11.27300 -11.27287 -11.26863 -11.26852
 Alpha  occ. eigenvalues --  -11.26707 -11.25913 -11.25856  -1.60221  -1.58849
 Alpha  occ. eigenvalues --   -1.39778  -1.38407  -1.19877  -1.18418  -1.09239
 Alpha  occ. eigenvalues --   -1.07833  -1.05289  -1.03863  -0.96054  -0.94663
 Alpha  occ. eigenvalues --   -0.86675  -0.85272  -0.82881  -0.81521  -0.77920
 Alpha  occ. eigenvalues --   -0.76536  -0.72424  -0.71562  -0.71083  -0.70958
 Alpha  occ. eigenvalues --   -0.70142  -0.69605  -0.65515  -0.65273  -0.64116
 Alpha  occ. eigenvalues --   -0.63924  -0.62626  -0.61230  -0.55761  -0.54436
 Alpha  occ. eigenvalues --   -0.53631  -0.53366  -0.52136  -0.51997  -0.49181
 Alpha  occ. eigenvalues --   -0.49179  -0.47838  -0.47820  -0.45171  -0.43819
 Alpha  occ. eigenvalues --   -0.37863  -0.36912  -0.36400  -0.35390
 Alpha virt. eigenvalues --    0.04566   0.06063   0.10725   0.12230   0.16098
 Alpha virt. eigenvalues --    0.17481   0.20916   0.22081   0.26772   0.27565
 Alpha virt. eigenvalues --    0.28077   0.29025   0.30570   0.31505   0.32085

 Mulliken charges:
               1
     1  C   -0.166557
     2  C   -0.216688
     3  C   -0.167134
     4  C    0.161378
     5  C   -0.152270
     6  C   -0.229609
     7  H    0.219957
     8  H    0.220036
     9  H    0.274026
    10  H    0.273730
    11  H    0.215771
    12  N    0.489586
    13  O   -0.460549
    14  O   -0.463582
    15  C   -0.171519
    16  C   -0.218887
    17  C   -0.172983
    18  C    0.157392
    19  C   -0.175702
    20  C   -0.218874
    21  H    0.227067
    22  H    0.224360
    23  H    0.275728
    24  H    0.276941
    25  H    0.225371
    26  N    0.489713
    27  O   -0.457958
    28  O   -0.458743
 Sum of Mulliken charges =  -0.00000

 Dipole moment (field-independent basis, Debye):
    X=              7.4943    Y=              4.5550    Z=             -3.4245  Tot=              9.4148
 Quadrupole moment (field-independent basis, Debye-Ang):
   XX=            -98.0708   YY=           -100.3553   ZZ=           -105.1558
   XY=            -12.8353   XZ=             -4.4591   YZ=              4.2080

 Normal termination of Gaussian 16 at Thu May  6 09:39:26 2021.
