 Gaussian 16, Revision A.03,
 Gaussian 16:  EM64L-G16RevA.03 25-Dec-2016

 -------------
 #p 6-31g* mp2
 -------------

 ------------------------------------------------------
 Input file generated by CHIRIPA (05-May-2021 14:57:23)
 ------------------------------------------------------
 Symbolic Z-matrix:
 Charge =  0 Multiplicity = 1

                         Standard orientation:
 ---------------------------------------------------------------------
 Center     Atomic      Atomic             Coordinates (Angstroms)
 Number     Number       Type             X           Y           Z
 ---------------------------------------------------------------------
      1          6           0        1.986218   -0.807399    1.317175
      2          6           0        2.091850    0.472907    0.763841
      3          6           0        3.243326    0.852833    0.067918
      4          6           0        4.274565   -0.076915   -0.056196
      5          6           0        4.199260   -1.359893    0.483791
      6          6           0        3.038405   -1.718107    1.175634
      7          1           0        1.088081   -1.094102    1.856199
      8          1           0        1.276287    1.182246    0.872200
      9          1           0        3.351520    1.837494   -0.370437
     10          1           0        5.028899   -2.045179    0.359297
     11          1           0        2.959139   -2.713092    1.604314
     12          7           0        5.498546    0.313803   -0.790779
     13          8           0        6.393015   -0.523725   -0.886213
     14          8           0        5.540256    1.450178   -1.257201
     15          6           0       -2.092015    1.494313    0.717203
     16          6           0       -1.933428    0.142036    0.396709
     17          6           0       -3.023955   -0.617324   -0.037653
     18          6           0       -4.264337    0.010506   -0.140480
     19          6           0       -4.454278    1.355841    0.171431
     20          6           0       -3.349716    2.095839    0.603742
     21          1           0       -1.239415    2.076682    1.053829
     22          1           0       -0.957854   -0.327753    0.483880
     23          1           0       -2.929363   -1.665952   -0.292303
     24          1           0       -5.439153    1.796361    0.074578
     25          1           0       -3.475831    3.145854    0.851957
     26          7           0       -5.426259   -0.783145   -0.599233
     27          8           0       -6.508588   -0.206565   -0.681416
     28          8           0       -5.232643   -1.966762   -0.867934
 ---------------------------------------------------------------------

 SCF Done:  E(RHF) =  -868.335861122     A.U. after   16 cycles
 E2 =    -0.2601073261D+01 EUMP2 =    -0.87093693438335D+03

 The electronic state is 1-A.
 Alpha  occ. eigenvalues --  -20.61421 -20.61413 -20.61322 -20.61315 -15.86481
 Alpha  occ. eigenvalues --  -15.86380 -11.32047 -11.31899 -11.28677 -11.28593
 Alpha  occ. eigenvalues --  -11.28513 -11.28507 -11.28456 -11.28379 -11.27859
 Alpha  occ. eigenvalues --  -11.27658 -11.27627 -11.27527  -1.60490  -1.60393
 Alpha  occ. eigenvalues --   -1.40038  -1.39942  -1.20256  -1.20102  -1.09647
 Alpha  occ. eigenvalues --   -1.09488  -1.05691  -1.05524  -0.96432  -0.96296
 Alpha  occ. eigenvalues --   -0.87150  -0.86895  -0.83268  -0.83108  -0.78268
 Alpha  occ. eigenvalues --   -0.78108  -0.72699  -0.72599  -0.71814  -0.71717
 Alpha  occ. eigenvalues --   -0.71433  -0.71277  -0.66049  -0.65875  -0.65742
 Alpha  occ. eigenvalues --   -0.65335  -0.63069  -0.62803  -0.56354  -0.56030
 Alpha  occ. eigenvalues --   -0.54046  -0.53853  -0.53781  -0.53567  -0.49473
 Alpha  occ. eigenvalues --   -0.49437  -0.49369  -0.49341  -0.45398  -0.45313
 Alpha  occ. eigenvalues --   -0.38277  -0.38119  -0.37275  -0.37108
 Alpha virt. eigenvalues --    0.04263   0.04417   0.10197   0.10544   0.15624
 Alpha virt. eigenvalues --    0.15832   0.17545   0.22281   0.24065   0.25406
 Alpha virt. eigenvalues --    0.27865   0.28684   0.30175   0.31286   0.33037

 Mulliken charges:
               1
     1  C   -0.177460
     2  C   -0.219972
     3  C   -0.170342
     4  C    0.159774
     5  C   -0.169337
     6  C   -0.217709
     7  H    0.223671
     8  H    0.217749
     9  H    0.277980
    10  H    0.279141
    11  H    0.227437
    12  N    0.487975
    13  O   -0.457479
    14  O   -0.458586
    15  C   -0.174987
    16  C   -0.223570
    17  C   -0.170992
    18  C    0.159610
    19  C   -0.169762
    20  C   -0.217427
    21  H    0.220343
    22  H    0.221301
    23  H    0.277342
    24  H    0.278298
    25  H    0.226245
    26  N    0.487943
    27  O   -0.458132
    28  O   -0.459054
 Sum of Mulliken charges =  -0.00000

 Dipole moment (field-independent basis, Debye):
    X=             -0.1267    Y=              1.3497    Z=              4.1057  Tot=              4.3237
 Quadrupole moment (field-independent basis, Debye-Ang):
   XX=           -172.5484   YY=            -97.1970   ZZ=           -107.0813
   XY=            -22.6788   XZ=              3.9935   YZ=             -1.1094

 Normal termination of Gaussian 16 at Wed May  5 22:39:40 2021.
