 Gaussian 16, Revision A.03,
 Gaussian 16:  EM64L-G16RevA.03 25-Dec-2016

 -------------
 #p 6-31g* mp2
 -------------

 ------------------------------------------------------
 Input file generated by CHIRIPA (05-May-2021 14:51:08)
 ------------------------------------------------------
 Symbolic Z-matrix:
 Charge =  0 Multiplicity = 1

                         Standard orientation:
 ---------------------------------------------------------------------
 Center     Atomic      Atomic             Coordinates (Angstroms)
 Number     Number       Type             X           Y           Z
 ---------------------------------------------------------------------
      1          6           0       -3.191136   -0.985438   -0.207735
      2          6           0       -1.789335   -0.569837    0.239716
      3          6           0       -0.708666   -1.551902   -0.213602
      4          1           0       -3.413740   -1.985975    0.187637
      5          1           0       -3.208459   -1.071206   -1.303061
      6          1           0       -1.775029   -0.483535    1.333774
      7          1           0       -1.570117    0.429906   -0.156607
      8          1           0       -0.693883   -1.631435   -1.305415
      9          1           0       -0.899959   -2.550066    0.193434
     10          1           0        0.285547   -1.235516    0.117003
     11          6           0       -4.282310   -0.013586    0.237879
     12          6           0       -5.684112   -0.429187   -0.209572
     13          6           0       -6.764781    0.552878    0.243746
     14          1           0       -4.264987    0.072182    1.333205
     15          1           0       -4.059707    0.986951   -0.157492
     16          1           0       -5.903329   -1.428930    0.186751
     17          1           0       -5.698417   -0.515489   -1.303630
     18          1           0       -6.573487    1.551042   -0.163290
     19          1           0       -6.779564    0.632411    1.335560
     20          1           0       -7.758994    0.236492   -0.086858
     21          6           0        3.029348    0.688420   -0.232710
     22          6           0        2.639080    2.117048    0.147683
     23          6           0        1.221167    2.480137   -0.294453
     24          1           0        2.941121    0.568484   -1.321184
     25          1           0        2.312972   -0.012306    0.218046
     26          1           0        3.356783    2.814786   -0.302517
     27          1           0        2.728431    2.233653    1.235357
     28          1           0        0.490075    1.807375    0.165437
     29          1           0        1.121999    2.391810   -1.381175
     30          1           0        0.962921    3.505634   -0.012452
     31          6           0        4.444099    0.310603    0.202566
     32          6           0        4.834367   -1.118024   -0.177827
     33          6           0        6.252279   -1.481112    0.264308
     34          1           0        5.160475    1.011329   -0.248190
     35          1           0        4.532325    0.430539    1.291040
     36          1           0        4.745016   -1.234629   -1.265502
     37          1           0        4.116663   -1.815762    0.272373
     38          1           0        6.351448   -1.392786    1.351031
     39          1           0        6.983372   -0.808352   -0.195582
     40          1           0        6.510526   -2.506609   -0.017692
 ---------------------------------------------------------------------

 SCF Done:  E(RHF) =  -470.732881138     A.U. after   11 cycles
 E2 =    -0.1583465261D+01 EUMP2 =    -0.47231634639916D+03

 The electronic state is 1-A.
 Alpha  occ. eigenvalues --  -11.21600 -11.21592 -11.21590 -11.21584 -11.21401
 Alpha  occ. eigenvalues --  -11.21392 -11.21342 -11.21332 -11.21062 -11.21060
 Alpha  occ. eigenvalues --  -11.21043 -11.21037  -1.08441  -1.08408  -1.03554
 Alpha  occ. eigenvalues --   -1.03491  -0.95978  -0.95966  -0.87024  -0.86955
 Alpha  occ. eigenvalues --   -0.79620  -0.79557  -0.78263  -0.78221  -0.65098
 Alpha  occ. eigenvalues --   -0.65030  -0.61010  -0.60857  -0.59451  -0.59233
 Alpha  occ. eigenvalues --   -0.57613  -0.57559  -0.55307  -0.55218  -0.52742
 Alpha  occ. eigenvalues --   -0.52649  -0.52450  -0.52329  -0.49986  -0.49859
 Alpha  occ. eigenvalues --   -0.47945  -0.47849  -0.46710  -0.46511  -0.45813
 Alpha  occ. eigenvalues --   -0.45744  -0.45725  -0.45612  -0.43784  -0.43723
 Alpha virt. eigenvalues --    0.21171   0.23038   0.23525   0.24930   0.25895
 Alpha virt. eigenvalues --    0.26165   0.26989   0.27133   0.28158   0.29171
 Alpha virt. eigenvalues --    0.30610   0.31171   0.31629   0.31829   0.31949

 Mulliken charges:
               1
     1  C   -0.297990
     2  C   -0.303914
     3  C   -0.482458
     4  H    0.149544
     5  H    0.149644
     6  H    0.151000
     7  H    0.156601
     8  H    0.155679
     9  H    0.154920
    10  H    0.166164
    11  C   -0.298399
    12  C   -0.299637
    13  C   -0.475707
    14  H    0.149382
    15  H    0.150000
    16  H    0.151875
    17  H    0.151947
    18  H    0.155256
    19  H    0.155132
    20  H    0.160206
    21  C   -0.305501
    22  C   -0.299041
    23  C   -0.482452
    24  H    0.149847
    25  H    0.156081
    26  H    0.151952
    27  H    0.151689
    28  H    0.162713
    29  H    0.154694
    30  H    0.160122
    31  C   -0.297612
    32  C   -0.299714
    33  C   -0.475704
    34  H    0.149605
    35  H    0.149455
    36  H    0.152097
    37  H    0.151922
    38  H    0.155124
    39  H    0.155154
    40  H    0.160326
 Sum of Mulliken charges =  -0.00000

 Dipole moment (field-independent basis, Debye):
    X=              0.0031    Y=              0.0034    Z=             -0.0081  Tot=              0.0093
 Quadrupole moment (field-independent basis, Debye-Ang):
   XX=            -86.5029   YY=            -84.9935   ZZ=            -83.3375
   XY=              1.0995   XZ=             -0.4535   YZ=             -0.8172

 Normal termination of Gaussian 16 at Wed May  5 15:03:57 2021.
