 Gaussian 16, Revision A.03,
 Gaussian 16:  EM64L-G16RevA.03 25-Dec-2016

 -------------
 #p 6-31g* mp2
 -------------

 ------------------------------------------------------
 Input file generated by CHIRIPA (05-May-2021 14:53:15)
 ------------------------------------------------------
 Symbolic Z-matrix:
 Charge =  0 Multiplicity = 1

                         Standard orientation:
 ---------------------------------------------------------------------
 Center     Atomic      Atomic             Coordinates (Angstroms)
 Number     Number       Type             X           Y           Z
 ---------------------------------------------------------------------
      1          6           0        3.620417    0.353651   -0.034313
      2          6           0        3.528873   -1.108711   -0.471467
      3          6           0        4.844832   -1.864720   -0.285738
      4          1           0        4.415006    0.851739   -0.606572
      5          1           0        3.922441    0.395291    1.021358
      6          1           0        3.225768   -1.147611   -1.525616
      7          1           0        2.734280   -1.603327    0.101762
      8          1           0        5.149231   -1.855634    0.765861
      9          1           0        5.643512   -1.397328   -0.870765
     10          1           0        4.756884   -2.908051   -0.604464
     11          6           0        2.312700    1.122642   -0.213918
     12          6           0        2.404244    2.585004    0.223236
     13          6           0        1.088284    3.341013    0.037507
     14          1           0        2.010676    1.081002   -1.269590
     15          1           0        1.518110    0.624554    0.358341
     16          1           0        3.198837    3.079620   -0.349994
     17          1           0        2.707349    2.623903    1.277385
     18          1           0        0.289605    2.873620    0.622533
     19          1           0        0.783885    3.331926   -1.014092
     20          1           0        1.176233    4.384343    0.356233
     21          6           0       -0.214982   -1.748537    0.852984
     22          6           0       -1.016241   -1.078753    1.783518
     23          6           0       -2.183443   -0.426027    1.375919
     24          6           0       -2.520899   -0.463386    0.023877
     25          6           0       -1.743315   -1.122187   -0.927245
     26          6           0       -0.580431   -1.768082   -0.497048
     27          1           0        0.690051   -2.252937    1.178394
     28          1           0       -0.734893   -1.061919    2.832615
     29          1           0       -2.822043    0.100017    2.075122
     30          1           0       -2.049750   -1.121537   -1.966243
     31          1           0        0.039920   -2.287457   -1.221933
     32          7           0       -3.754278    0.224010   -0.419593
     33          8           0       -4.029649    0.176381   -1.616480
     34          8           0       -4.422274    0.797404    0.438100
 ---------------------------------------------------------------------

 SCF Done:  E(RHF) =  -669.534709255     A.U. after   15 cycles
 E2 =    -0.2093836974D+01 EUMP2 =    -0.67162854622920D+03

 The electronic state is 1-A.
 Alpha  occ. eigenvalues --  -20.60788 -20.60783 -15.85843 -11.31234 -11.27818
 Alpha  occ. eigenvalues --  -11.27786 -11.27533 -11.26841 -11.26792 -11.22538
 Alpha  occ. eigenvalues --  -11.21997 -11.21873 -11.21862 -11.21686 -11.21200
 Alpha  occ. eigenvalues --   -1.59863  -1.39416  -1.19414  -1.09000  -1.08785
 Alpha  occ. eigenvalues --   -1.04813  -1.04062  -0.96469  -0.95639  -0.87488
 Alpha  occ. eigenvalues --   -0.86210  -0.82467  -0.80182  -0.78751  -0.77499
 Alpha  occ. eigenvalues --   -0.72061  -0.71185  -0.70555  -0.65629  -0.65062
 Alpha  occ. eigenvalues --   -0.64808  -0.62157  -0.61473  -0.59876  -0.58087
 Alpha  occ. eigenvalues --   -0.55759  -0.55345  -0.53294  -0.53129  -0.52902
 Alpha  occ. eigenvalues --   -0.52827  -0.50417  -0.48822  -0.48815  -0.48466
 Alpha  occ. eigenvalues --   -0.47231  -0.46267  -0.46178  -0.44816  -0.44289
 Alpha  occ. eigenvalues --   -0.37296  -0.36409
 Alpha virt. eigenvalues --    0.04994   0.11179   0.16382   0.20091   0.22814
 Alpha virt. eigenvalues --    0.23829   0.25608   0.26098   0.27542   0.27667
 Alpha virt. eigenvalues --    0.28864   0.30134   0.31251   0.31415   0.31888

 Mulliken charges:
               1
     1  C   -0.297997
     2  C   -0.301780
     3  C   -0.475597
     4  H    0.152452
     5  H    0.148526
     6  H    0.152092
     7  H    0.140647
     8  H    0.155761
     9  H    0.159402
    10  H    0.159160
    11  C   -0.304610
    12  C   -0.299810
    13  C   -0.475765
    14  H    0.148907
    15  H    0.156248
    16  H    0.152256
    17  H    0.150111
    18  H    0.155727
    19  H    0.157176
    20  H    0.161523
    21  C   -0.172986
    22  C   -0.219783
    23  C   -0.171331
    24  C    0.159167
    25  C   -0.171029
    26  C   -0.214979
    27  H    0.228118
    28  H    0.223755
    29  H    0.275892
    30  H    0.275790
    31  H    0.225359
    32  N    0.488120
    33  O   -0.460218
    34  O   -0.460306
 Sum of Mulliken charges =  -0.00000

 Dipole moment (field-independent basis, Debye):
    X=              4.3312    Y=             -2.3734    Z=              1.5234  Tot=              5.1684
 Quadrupole moment (field-independent basis, Debye-Ang):
   XX=           -117.8364   YY=            -93.1723   ZZ=            -89.3936
   XY=              4.5617   XZ=             -5.2664   YZ=              0.5236

 Normal termination of Gaussian 16 at Thu May  6 15:31:49 2021.
