 Gaussian 16, Revision A.03,
 Gaussian 16:  EM64L-G16RevA.03 25-Dec-2016

 -------------
 #p 6-31g* mp2
 -------------

 ------------------------------------------------------
 Input file generated by CHIRIPA (05-May-2021 14:51:14)
 ------------------------------------------------------
 Symbolic Z-matrix:
 Charge =  0 Multiplicity = 1

                         Standard orientation:
 ---------------------------------------------------------------------
 Center     Atomic      Atomic             Coordinates (Angstroms)
 Number     Number       Type             X           Y           Z
 ---------------------------------------------------------------------
      1          6           0       -3.471502    1.196162   -0.190618
      2          6           0       -2.359058    2.085193    0.366228
      3          6           0       -2.685677    3.575309    0.262939
      4          1           0       -3.652763    1.461297   -1.241233
      5          1           0       -4.404614    1.406302    0.350250
      6          1           0       -1.428001    1.872449   -0.174595
      7          1           0       -2.180292    1.817779    1.415584
      8          1           0       -3.600136    3.808617    0.817855
      9          1           0       -2.843571    3.863598   -0.781359
     10          1           0       -1.877024    4.192483    0.666719
     11          6           0       -3.159674   -0.296231   -0.094405
     12          6           0       -4.272118   -1.185262   -0.651251
     13          6           0       -3.945499   -2.675378   -0.547962
     14          1           0       -2.226562   -0.506371   -0.635273
     15          1           0       -2.978413   -0.561366    0.956210
     16          1           0       -4.450884   -0.917848   -1.700607
     17          1           0       -5.203175   -0.972518   -0.110428
     18          1           0       -3.787605   -2.963667    0.496336
     19          1           0       -3.031040   -2.908686   -1.102878
     20          1           0       -4.754152   -3.292551   -0.951742
     21          6           0        2.633666   -0.751674   -0.022979
     22          6           0        1.845388   -1.183603    1.213968
     23          6           0        0.483340   -1.785248    0.866628
     24          1           0        2.041917   -0.020091   -0.590046
     25          1           0        2.772571   -1.619706   -0.682236
     26          1           0        1.709208   -0.315318    1.871351
     27          1           0        2.439163   -1.914099    1.778258
     28          1           0        0.603087   -2.667740    0.229863
     29          1           0       -0.131016   -1.059875    0.323485
     30          1           0       -0.063213   -2.087127    1.765520
     31          6           0        3.997510   -0.148257    0.308002
     32          6           0        4.785789    0.283672   -0.928946
     33          6           0        6.147836    0.885316   -0.581604
     34          1           0        3.858606    0.719776    0.967259
     35          1           0        4.589259   -0.879840    0.875069
     36          1           0        4.192013    1.014167   -1.493234
     37          1           0        4.921968   -0.584613   -1.586328
     38          1           0        6.762191    0.159944   -0.038462
     39          1           0        6.028089    1.767809    0.055159
     40          1           0        6.694389    1.187196   -1.480497
 ---------------------------------------------------------------------

 SCF Done:  E(RHF) =  -470.733035447     A.U. after   11 cycles
 E2 =    -0.1583011580D+01 EUMP2 =    -0.47231604702684D+03

 The electronic state is 1-A.
 Alpha  occ. eigenvalues --  -11.21646 -11.21594 -11.21576 -11.21543 -11.21399
 Alpha  occ. eigenvalues --  -11.21388 -11.21329 -11.21324 -11.21105 -11.21065
 Alpha  occ. eigenvalues --  -11.21023 -11.20943  -1.08440  -1.08398  -1.03532
 Alpha  occ. eigenvalues --   -1.03490  -0.95992  -0.95926  -0.87014  -0.86938
 Alpha  occ. eigenvalues --   -0.79630  -0.79537  -0.78302  -0.78160  -0.65096
 Alpha  occ. eigenvalues --   -0.65009  -0.60931  -0.60892  -0.59353  -0.59302
 Alpha  occ. eigenvalues --   -0.57639  -0.57518  -0.55321  -0.55181  -0.52691
 Alpha  occ. eigenvalues --   -0.52630  -0.52473  -0.52295  -0.49980  -0.49839
 Alpha  occ. eigenvalues --   -0.47977  -0.47844  -0.46683  -0.46623  -0.45914
 Alpha  occ. eigenvalues --   -0.45732  -0.45706  -0.45375  -0.43784  -0.43745
 Alpha virt. eigenvalues --    0.21535   0.23106   0.24069   0.24103   0.25456
 Alpha virt. eigenvalues --    0.26656   0.26977   0.27751   0.27878   0.29478
 Alpha virt. eigenvalues --    0.31005   0.31288   0.31687   0.31931   0.32194

 Mulliken charges:
               1
     1  C   -0.298000
     2  C   -0.300226
     3  C   -0.475625
     4  H    0.149437
     5  H    0.149571
     6  H    0.150903
     7  H    0.152331
     8  H    0.155491
     9  H    0.155282
    10  H    0.160135
    11  C   -0.302284
    12  C   -0.299297
    13  C   -0.475706
    14  H    0.153640
    15  H    0.151063
    16  H    0.151570
    17  H    0.151659
    18  H    0.155384
    19  H    0.155950
    20  H    0.159884
    21  C   -0.298162
    22  C   -0.299451
    23  C   -0.480821
    24  H    0.148787
    25  H    0.149352
    26  H    0.151830
    27  H    0.151441
    28  H    0.154021
    29  H    0.162434
    30  H    0.159507
    31  C   -0.298233
    32  C   -0.299623
    33  C   -0.475690
    34  H    0.149556
    35  H    0.149696
    36  H    0.151769
    37  H    0.151862
    38  H    0.155192
    39  H    0.155183
    40  H    0.160189
 Sum of Mulliken charges =  -0.00000

 Dipole moment (field-independent basis, Debye):
    X=             -0.0343    Y=              0.0013    Z=              0.0012  Tot=              0.0344
 Quadrupole moment (field-independent basis, Debye-Ang):
   XX=            -85.5034   YY=            -85.3905   ZZ=            -83.9418
   XY=             -0.7274   XZ=             -0.5564   YZ=              0.0060

 Normal termination of Gaussian 16 at Wed May  5 16:54:22 2021.
