 Gaussian 16, Revision A.03,
 Gaussian 16:  EM64L-G16RevA.03 25-Dec-2016

 -------------
 #p 6-31g* mp2
 -------------

 ------------------------------------------------------
 Input file generated by CHIRIPA (05-May-2021 14:51:08)
 ------------------------------------------------------
 Symbolic Z-matrix:
 Charge =  0 Multiplicity = 1

                         Standard orientation:
 ---------------------------------------------------------------------
 Center     Atomic      Atomic             Coordinates (Angstroms)
 Number     Number       Type             X           Y           Z
 ---------------------------------------------------------------------
      1          6           0       -4.006946    0.752612    0.354715
      2          6           0       -3.983603    2.027387   -0.489315
      3          6           0       -4.616520    3.221491    0.225755
      4          1           0       -5.046325    0.514601    0.619265
      5          1           0       -3.478255    0.937392    1.300092
      6          1           0       -4.510984    1.839844   -1.433409
      7          1           0       -2.944175    2.262285   -0.752047
      8          1           0       -4.086351    3.436851    1.159105
      9          1           0       -5.662062    3.012011    0.473871
     10          1           0       -4.589157    4.122103   -0.395542
     11          6           0       -3.377751   -0.449893   -0.346587
     12          6           0       -3.401094   -1.724668    0.497444
     13          6           0       -2.768177   -2.918772   -0.217627
     14          1           0       -3.906442   -0.634673   -1.291963
     15          1           0       -2.338372   -0.211882   -0.611136
     16          1           0       -4.440522   -1.959566    0.760176
     17          1           0       -2.873714   -1.537125    1.441538
     18          1           0       -1.722635   -2.709292   -0.465743
     19          1           0       -3.298346   -3.134133   -1.150976
     20          1           0       -2.795540   -3.819384    0.403670
     21          6           0        4.411503    0.010853    0.195776
     22          6           0        4.869231    1.397087   -0.259004
     23          6           0        6.310039    1.706989    0.148215
     24          1           0        4.508843   -0.060501    1.287737
     25          1           0        5.084485   -0.747246   -0.228225
     26          1           0        4.194763    2.152248    0.164602
     27          1           0        4.770608    1.465216   -1.349990
     28          1           0        6.999021    0.975576   -0.286456
     29          1           0        6.419904    1.666512    1.236742
     30          1           0        6.616612    2.702760   -0.186916
     31          6           0        2.973194   -0.313572   -0.203905
     32          6           0        2.515467   -1.699806    0.250876
     33          6           0        1.074659   -2.009708   -0.156343
     34          1           0        2.300213    0.444527    0.220096
     35          1           0        2.875855   -0.242218   -1.295866
     36          1           0        2.614089   -1.767935    1.341860
     37          1           0        3.189935   -2.454967   -0.172731
     38          1           0        0.964794   -1.969231   -1.244871
     39          1           0        0.385676   -1.278295    0.278326
     40          1           0        0.768084   -3.005479    0.178787
 ---------------------------------------------------------------------

 SCF Done:  E(RHF) =  -470.733116010     A.U. after   11 cycles
 E2 =    -0.1582769854D+01 EUMP2 =    -0.47231588586461D+03

 The electronic state is 1-A.
 Alpha  occ. eigenvalues --  -11.21660 -11.21633 -11.21576 -11.21514 -11.21452
 Alpha  occ. eigenvalues --  -11.21391 -11.21358 -11.21293 -11.21164 -11.21095
 Alpha  occ. eigenvalues --  -11.21054 -11.20871  -1.08480  -1.08374  -1.03593
 Alpha  occ. eigenvalues --   -1.03453  -0.96064  -0.95887  -0.87104  -0.86888
 Alpha  occ. eigenvalues --   -0.79698  -0.79487  -0.78296  -0.78180  -0.65119
 Alpha  occ. eigenvalues --   -0.65001  -0.61018  -0.60839  -0.59410  -0.59280
 Alpha  occ. eigenvalues --   -0.57645  -0.57519  -0.55345  -0.55201  -0.52807
 Alpha  occ. eigenvalues --   -0.52602  -0.52467  -0.52259  -0.49983  -0.49819
 Alpha  occ. eigenvalues --   -0.48015  -0.47799  -0.46688  -0.46554  -0.45877
 Alpha  occ. eigenvalues --   -0.45762  -0.45700  -0.45600  -0.43802  -0.43721
 Alpha virt. eigenvalues --    0.21329   0.22972   0.23756   0.24778   0.26127
 Alpha virt. eigenvalues --    0.26529   0.27270   0.27395   0.27866   0.29083
 Alpha virt. eigenvalues --    0.30801   0.30959   0.31525   0.31815   0.32162

 Mulliken charges:
               1
     1  C   -0.298123
     2  C   -0.299610
     3  C   -0.475648
     4  H    0.149637
     5  H    0.148997
     6  H    0.151948
     7  H    0.151828
     8  H    0.154986
     9  H    0.155174
    10  H    0.160160
    11  C   -0.300177
    12  C   -0.298734
    13  C   -0.485512
    14  H    0.149480
    15  H    0.150957
    16  H    0.151429
    17  H    0.151031
    18  H    0.169682
    19  H    0.153934
    20  H    0.158691
    21  C   -0.298368
    22  C   -0.299652
    23  C   -0.475736
    24  H    0.149723
    25  H    0.149705
    26  H    0.151889
    27  H    0.152029
    28  H    0.155261
    29  H    0.155218
    30  H    0.160367
    31  C   -0.298501
    32  C   -0.300736
    33  C   -0.479475
    34  H    0.149194
    35  H    0.149819
    36  H    0.152226
    37  H    0.152410
    38  H    0.155884
    39  H    0.156184
    40  H    0.162427
 Sum of Mulliken charges =  -0.00000

 Dipole moment (field-independent basis, Debye):
    X=              0.0642    Y=             -0.0117    Z=             -0.0136  Tot=              0.0666
 Quadrupole moment (field-independent basis, Debye-Ang):
   XX=            -85.2223   YY=            -85.6608   ZZ=            -84.0509
   XY=              0.0044   XZ=              0.0262   YZ=              0.0240

 Normal termination of Gaussian 16 at Wed May  5 15:02:46 2021.
