 Gaussian 16, Revision A.03,
 Gaussian 16:  EM64L-G16RevA.03 25-Dec-2016

 -------------
 #p 6-31g* mp2
 -------------

 ------------------------------------------------------
 Input file generated by CHIRIPA (05-May-2021 14:53:13)
 ------------------------------------------------------
 Symbolic Z-matrix:
 Charge =  0 Multiplicity = 1

                         Standard orientation:
 ---------------------------------------------------------------------
 Center     Atomic      Atomic             Coordinates (Angstroms)
 Number     Number       Type             X           Y           Z
 ---------------------------------------------------------------------
      1          6           0        3.649708   -0.643750   -0.095563
      2          6           0        3.198265   -1.677631    0.936558
      3          6           0        1.888332   -2.365282    0.550547
      4          1           0        2.860515    0.110487   -0.219041
      5          1           0        3.766622   -1.136356   -1.070789
      6          1           0        3.083574   -1.183500    1.909849
      7          1           0        3.988704   -2.429388    1.057733
      8          1           0        1.993257   -2.883617   -0.408057
      9          1           0        1.082983   -1.630650    0.448901
     10          1           0        1.584122   -3.100368    1.302188
     11          6           0        4.957782    0.052245    0.276273
     12          6           0        5.409225    1.086126   -0.755848
     13          6           0        6.719158    1.773777   -0.369837
     14          1           0        4.840868    0.544851    1.251498
     15          1           0        5.746975   -0.701992    0.399751
     16          1           0        4.618785    1.837883   -0.877024
     17          1           0        5.523916    0.591995   -1.729139
     18          1           0        7.524507    1.039146   -0.268191
     19          1           0        6.614233    2.292112    0.588766
     20          1           0        7.023367    2.508863   -1.121479
     21          6           0       -3.232799   -2.245436   -0.535497
     22          6           0       -2.059387   -1.494999   -0.407163
     23          6           0       -2.119158   -0.122183   -0.149573
     24          6           0       -3.374821    0.470475   -0.025644
     25          6           0       -4.561807   -0.250162   -0.148258
     26          6           0       -4.478068   -1.621722   -0.405863
     27          1           0       -3.177058   -3.311384   -0.735605
     28          1           0       -1.090909   -1.976722   -0.507356
     29          1           0       -1.226525    0.482641   -0.045592
     30          1           0       -5.512646    0.258076   -0.043287
     31          1           0       -5.391011   -2.202021   -0.505042
     32          7           0       -3.450784    1.923148    0.247063
     33          8           0       -4.569341    2.421614    0.351942
     34          8           0       -2.390330    2.535781    0.350769
 ---------------------------------------------------------------------

 SCF Done:  E(RHF) =  -669.535524061     A.U. after   15 cycles
 E2 =    -0.2091014307D+01 EUMP2 =    -0.67162653836840D+03

 The electronic state is 1-A.
 Alpha  occ. eigenvalues --  -20.60736 -20.60730 -15.85788 -11.31139 -11.27701
 Alpha  occ. eigenvalues --  -11.27695 -11.27425 -11.26718 -11.26647 -11.22222
 Alpha  occ. eigenvalues --  -11.22059 -11.21846 -11.21776 -11.21653 -11.21176
 Alpha  occ. eigenvalues --   -1.59811  -1.39365  -1.19302  -1.08838  -1.08698
 Alpha  occ. eigenvalues --   -1.04704  -1.03976  -0.96457  -0.95539  -0.87489
 Alpha  occ. eigenvalues --   -0.86096  -0.82375  -0.80060  -0.78611  -0.77422
 Alpha  occ. eigenvalues --   -0.72007  -0.71133  -0.70414  -0.65469  -0.64953
 Alpha  occ. eigenvalues --   -0.64710  -0.62105  -0.61340  -0.59835  -0.58038
 Alpha  occ. eigenvalues --   -0.55765  -0.55196  -0.53211  -0.53033  -0.53002
 Alpha  occ. eigenvalues --   -0.52614  -0.50393  -0.48767  -0.48763  -0.48354
 Alpha  occ. eigenvalues --   -0.47065  -0.46164  -0.46052  -0.44774  -0.44209
 Alpha  occ. eigenvalues --   -0.37281  -0.36301
 Alpha virt. eigenvalues --    0.05102   0.11347   0.16576   0.20192   0.22545
 Alpha virt. eigenvalues --    0.23822   0.25371   0.26165   0.27153   0.28159
 Alpha virt. eigenvalues --    0.28909   0.30296   0.31056   0.31225   0.32140

 Mulliken charges:
               1
     1  C   -0.299002
     2  C   -0.299920
     3  C   -0.480517
     4  H    0.149483
     5  H    0.149361
     6  H    0.155942
     7  H    0.154678
     8  H    0.154997
     9  H    0.147744
    10  H    0.163458
    11  C   -0.298849
    12  C   -0.300444
    13  C   -0.476070
    14  H    0.151656
    15  H    0.149969
    16  H    0.154343
    17  H    0.151563
    18  H    0.154857
    19  H    0.156454
    20  H    0.161551
    21  C   -0.171852
    22  C   -0.223751
    23  C   -0.173350
    24  C    0.158749
    25  C   -0.171350
    26  C   -0.218365
    27  H    0.225818
    28  H    0.233210
    29  H    0.274393
    30  H    0.275351
    31  H    0.223139
    32  N    0.488183
    33  O   -0.460560
    34  O   -0.460870
 Sum of Mulliken charges =  -0.00000

 Dipole moment (field-independent basis, Debye):
    X=              0.4557    Y=             -5.1264    Z=             -0.9275  Tot=              5.2296
 Quadrupole moment (field-independent basis, Debye-Ang):
   XX=            -91.4611   YY=            -99.9574   ZZ=            -95.3430
   XY=             17.0339   XZ=              3.0195   YZ=             -0.0694

 Normal termination of Gaussian 16 at Thu May  6 21:53:38 2021.
