 Gaussian 16, Revision A.03,
 Gaussian 16:  EM64L-G16RevA.03 25-Dec-2016

 -------------
 #p 6-31g* mp2
 -------------

 ------------------------------------------------------
 Input file generated by CHIRIPA (05-May-2021 14:55:20)
 ------------------------------------------------------
 Symbolic Z-matrix:
 Charge =  0 Multiplicity = 1

                         Standard orientation:
 ---------------------------------------------------------------------
 Center     Atomic      Atomic             Coordinates (Angstroms)
 Number     Number       Type             X           Y           Z
 ---------------------------------------------------------------------
      1          6           0       -3.039667    2.753833   -0.180112
      2          6           0       -3.130121    2.151395    1.079018
      3          6           0       -3.027091    0.763413    1.211076
      4          6           0       -2.832946    0.004837    0.057751
      5          6           0       -2.738761    0.575555   -1.210595
      6          6           0       -2.844619    1.965380   -1.318892
      7          1           0       -3.120801    3.832766   -0.273469
      8          1           0       -3.281580    2.761222    1.965142
      9          1           0       -3.093533    0.270991    2.173638
     10          1           0       -2.587599   -0.058644   -2.075673
     11          1           0       -2.773996    2.430512   -2.298029
     12          7           0       -2.722375   -1.465533    0.184978
     13          8           0       -2.551485   -2.111641   -0.846515
     14          8           0       -2.808695   -1.944059    1.313782
     15          6           0        3.227692   -0.908468    0.187324
     16          6           0        1.993152   -1.154816   -0.680550
     17          6           0        1.159440   -2.342582   -0.198964
     18          1           0        3.848704   -1.814676    0.196011
     19          1           0        2.909575   -0.737590    1.225109
     20          1           0        2.313411   -1.323806   -1.716645
     21          1           0        1.375104   -0.247850   -0.687327
     22          1           0        0.811797   -2.178820    0.826184
     23          1           0        1.755437   -3.260890   -0.208983
     24          1           0        0.281895   -2.500733   -0.833601
     25          6           0        4.071299    0.275708   -0.281488
     26          6           0        5.305840    0.522056    0.586388
     27          6           0        6.139553    1.709823    0.104802
     28          1           0        4.389418    0.104830   -1.319272
     29          1           0        3.450288    1.181916   -0.290174
     30          1           0        5.923889   -0.384910    0.593164
     31          1           0        4.985580    0.691046    1.622483
     32          1           0        5.543556    2.628131    0.114820
     33          1           0        6.487196    1.546061   -0.920346
     34          1           0        7.017098    1.867975    0.739438
 ---------------------------------------------------------------------

 SCF Done:  E(RHF) =  -669.536298857     A.U. after   15 cycles
 E2 =    -0.2091432348D+01 EUMP2 =    -0.67162773120449D+03

 The electronic state is 1-A.
 Alpha  occ. eigenvalues --  -20.60914 -20.60900 -15.85930 -11.31272 -11.27834
 Alpha  occ. eigenvalues --  -11.27830 -11.27573 -11.26845 -11.26835 -11.21458
 Alpha  occ. eigenvalues --  -11.21179 -11.21105 -11.21004 -11.21000 -11.20086
 Alpha  occ. eigenvalues --   -1.59958  -1.39518  -1.19438  -1.08839  -1.08120
 Alpha  occ. eigenvalues --   -1.04837  -1.03149  -0.95683  -0.95564  -0.86575
 Alpha  occ. eigenvalues --   -0.86236  -0.82514  -0.79228  -0.77929  -0.77565
 Alpha  occ. eigenvalues --   -0.72159  -0.71272  -0.70547  -0.65094  -0.64840
 Alpha  occ. eigenvalues --   -0.64762  -0.62184  -0.60559  -0.58956  -0.57173
 Alpha  occ. eigenvalues --   -0.55341  -0.54868  -0.53171  -0.52929  -0.52207
 Alpha  occ. eigenvalues --   -0.51990  -0.49526  -0.48920  -0.48907  -0.47539
 Alpha  occ. eigenvalues --   -0.46292  -0.45467  -0.45400  -0.44913  -0.43332
 Alpha  occ. eigenvalues --   -0.37415  -0.36438
 Alpha virt. eigenvalues --    0.04932   0.11205   0.16398   0.21338   0.23115
 Alpha virt. eigenvalues --    0.24668   0.26903   0.27254   0.27751   0.28059
 Alpha virt. eigenvalues --    0.28587   0.30900   0.31750   0.32041   0.32215

 Mulliken charges:
               1
     1  C   -0.170724
     2  C   -0.218606
     3  C   -0.171061
     4  C    0.158865
     5  C   -0.170836
     6  C   -0.218571
     7  H    0.225923
     8  H    0.223707
     9  H    0.275727
    10  H    0.275847
    11  H    0.223895
    12  N    0.489293
    13  O   -0.459744
    14  O   -0.458684
    15  C   -0.297280
    16  C   -0.299593
    17  C   -0.486464
    18  H    0.150144
    19  H    0.148784
    20  H    0.149709
    21  H    0.145573
    22  H    0.155904
    23  H    0.153466
    24  H    0.179274
    25  C   -0.297461
    26  C   -0.299287
    27  C   -0.475331
    28  H    0.148759
    29  H    0.146741
    30  H    0.152532
    31  H    0.151355
    32  H    0.153429
    33  H    0.154936
    34  H    0.159780
 Sum of Mulliken charges =  -0.00000

 Dipole moment (field-independent basis, Debye):
    X=             -0.5829    Y=              5.1036    Z=             -0.4441  Tot=              5.1560
 Quadrupole moment (field-independent basis, Debye-Ang):
   XX=            -93.9344   YY=            -95.3534   ZZ=            -89.5886
   XY=            -15.9355   XZ=              0.4137   YZ=              1.3247

 Normal termination of Gaussian 16 at Wed May  5 22:10:59 2021.
