 Gaussian 16, Revision A.03,
 Gaussian 16:  EM64L-G16RevA.03 25-Dec-2016

 -------------
 #p 6-31g* mp2
 -------------

 ------------------------------------------------------
 Input file generated by CHIRIPA (05-May-2021 14:55:24)
 ------------------------------------------------------
 Symbolic Z-matrix:
 Charge =  0 Multiplicity = 1

                         Standard orientation:
 ---------------------------------------------------------------------
 Center     Atomic      Atomic             Coordinates (Angstroms)
 Number     Number       Type             X           Y           Z
 ---------------------------------------------------------------------
      1          6           0       -2.275290    2.073594    0.968535
      2          6           0       -2.382363    1.846611   -0.407523
      3          6           0       -2.467886    0.543903   -0.907707
      4          6           0       -2.443294   -0.513183    0.000729
      5          6           0       -2.337462   -0.319416    1.377153
      6          6           0       -2.253220    0.991763    1.854919
      7          1           0       -2.209351    3.088859    1.348383
      8          1           0       -2.399744    2.684855   -1.098240
      9          1           0       -2.551527    0.339608   -1.968219
     10          1           0       -2.322674   -1.175260    2.041029
     11          1           0       -2.170144    1.165046    2.924085
     12          7           0       -2.533155   -1.896786   -0.516927
     13          8           0       -2.509348   -2.810991    0.304230
     14          8           0       -2.625694   -2.040850   -1.734022
     15          6           0        2.585169    0.881944    0.095674
     16          6           0        2.339796    1.952876   -0.967755
     17          6           0        1.290367    2.979857   -0.541371
     18          1           0        1.638420    0.370540    0.317211
     19          1           0        2.903817    1.367569    1.028427
     20          1           0        2.023040    1.465277   -1.898630
     21          1           0        3.287277    2.461661   -1.186924
     22          1           0        1.602901    3.492725    0.373992
     23          1           0        0.331481    2.490680   -0.341758
     24          1           0        1.130623    3.736060   -1.316289
     25          6           0        3.631748   -0.151964   -0.315948
     26          6           0        3.877122   -1.222896    0.747481
     27          6           0        4.926551   -2.249877    0.321096
     28          1           0        3.313101   -0.637589   -1.248701
     29          1           0        4.578497    0.359440   -0.537484
     30          1           0        2.929641   -1.731681    0.966650
     31          1           0        4.193878   -0.735297    1.678356
     32          1           0        5.885436   -1.760701    0.121484
     33          1           0        4.614016   -2.762745   -0.594266
     34          1           0        5.086295   -3.006080    1.096015
 ---------------------------------------------------------------------

 SCF Done:  E(RHF) =  -669.534930432     A.U. after   15 cycles
 E2 =    -0.2092802562D+01 EUMP2 =    -0.67162773299368D+03

 The electronic state is 1-A.
 Alpha  occ. eigenvalues --  -20.60853 -20.60848 -15.85908 -11.31299 -11.27864
 Alpha  occ. eigenvalues --  -11.27852 -11.27581 -11.26868 -11.26848 -11.21802
 Alpha  occ. eigenvalues --  -11.21558 -11.21498 -11.21374 -11.21331 -11.20968
 Alpha  occ. eigenvalues --   -1.59929  -1.39482  -1.19477  -1.08867  -1.08500
 Alpha  occ. eigenvalues --   -1.04878  -1.03615  -0.96083  -0.95686  -0.87112
 Alpha  occ. eigenvalues --   -0.86262  -0.82515  -0.79696  -0.78307  -0.77562
 Alpha  occ. eigenvalues --   -0.72124  -0.71255  -0.70558  -0.65150  -0.65109
 Alpha  occ. eigenvalues --   -0.64860  -0.62215  -0.61028  -0.59459  -0.57699
 Alpha  occ. eigenvalues --   -0.55444  -0.55346  -0.53312  -0.52958  -0.52775
 Alpha  occ. eigenvalues --   -0.52421  -0.49999  -0.48884  -0.48878  -0.48000
 Alpha  occ. eigenvalues --   -0.46708  -0.45848  -0.45756  -0.44882  -0.43874
 Alpha  occ. eigenvalues --   -0.37379  -0.36440
 Alpha virt. eigenvalues --    0.04959   0.11124   0.16435   0.21215   0.22821
 Alpha virt. eigenvalues --    0.24287   0.26570   0.27010   0.27408   0.27940
 Alpha virt. eigenvalues --    0.28582   0.30792   0.31439   0.31807   0.31978

 Mulliken charges:
               1
     1  C   -0.169335
     2  C   -0.220810
     3  C   -0.171107
     4  C    0.158201
     5  C   -0.171312
     6  C   -0.217638
     7  H    0.227794
     8  H    0.226229
     9  H    0.276134
    10  H    0.276115
    11  H    0.224325
    12  N    0.488001
    13  O   -0.460144
    14  O   -0.460142
    15  C   -0.298821
    16  C   -0.297814
    17  C   -0.487527
    18  H    0.151150
    19  H    0.147354
    20  H    0.152716
    21  H    0.152113
    22  H    0.151835
    23  H    0.164180
    24  H    0.155553
    25  C   -0.298761
    26  C   -0.300120
    27  C   -0.475905
    28  H    0.152017
    29  H    0.149079
    30  H    0.154175
    31  H    0.150040
    32  H    0.154203
    33  H    0.157439
    34  H    0.160782
 Sum of Mulliken charges =  -0.00000

 Dipole moment (field-independent basis, Debye):
    X=              0.2211    Y=              4.7857    Z=              1.8466  Tot=              5.1343
 Quadrupole moment (field-independent basis, Debye-Ang):
   XX=            -97.0799   YY=           -100.3525   ZZ=            -90.2872
   XY=            -11.6993   XZ=             -3.8789   YZ=             -2.5881

 Normal termination of Gaussian 16 at Thu May  6 17:40:46 2021.
