 Gaussian 16, Revision A.03,
 Gaussian 16:  EM64L-G16RevA.03 25-Dec-2016

 -------------
 #p 6-31g* mp2
 -------------

 ------------------------------------------------------
 Input file generated by CHIRIPA (05-May-2021 14:57:23)
 ------------------------------------------------------
 Symbolic Z-matrix:
 Charge =  0 Multiplicity = 1

                         Standard orientation:
 ---------------------------------------------------------------------
 Center     Atomic      Atomic             Coordinates (Angstroms)
 Number     Number       Type             X           Y           Z
 ---------------------------------------------------------------------
      1          6           0        2.245568    2.385256    0.320508
      2          6           0        3.585405    2.354115    0.720994
      3          6           0        4.356206    1.203067    0.532574
      4          6           0        3.752379    0.096291   -0.062178
      5          6           0        2.419925    0.096358   -0.471879
      6          6           0        1.668123    1.258265   -0.273603
      7          1           0        1.654171    3.283636    0.470705
      8          1           0        4.036493    3.227865    1.182650
      9          1           0        5.395631    1.151641    0.833187
     10          1           0        1.998036   -0.790304   -0.929328
     11          1           0        0.627815    1.279586   -0.585615
     12          7           0        4.558335   -1.128020   -0.266867
     13          8           0        4.002911   -2.089867   -0.793167
     14          8           0        5.730207   -1.102606    0.102874
     15          6           0       -5.387148    1.463527   -0.343422
     16          6           0       -4.047054    1.745453   -0.628352
     17          6           0       -3.059233    0.777014   -0.426154
     18          6           0       -3.448663   -0.468377    0.064393
     19          6           0       -4.775460   -0.779583    0.357739
     20          6           0       -5.746441    0.204129    0.147849
     21          1           0       -6.147970    2.221766   -0.503481
     22          1           0       -3.765113    2.722651   -1.009979
     23          1           0       -2.014389    0.968521   -0.638389
     24          1           0       -5.025854   -1.762843    0.737108
     25          1           0       -6.786401   -0.017623    0.370004
     26          7           0       -2.411815   -1.501705    0.282523
     27          8           0       -2.780787   -2.591178    0.715585
     28          8           0       -1.249795   -1.202586    0.016300
 ---------------------------------------------------------------------

 SCF Done:  E(RHF) =  -868.337752648     A.U. after   16 cycles
 E2 =    -0.2599903596D+01 EUMP2 =    -0.87093765624441D+03

 The electronic state is 1-A.
 Alpha  occ. eigenvalues --  -20.61507 -20.61459 -20.60103 -20.60075 -15.86536
 Alpha  occ. eigenvalues --  -15.85145 -11.31885 -11.30508 -11.28553 -11.28379
 Alpha  occ. eigenvalues --  -11.28134 -11.27480 -11.27388 -11.27160 -11.26989
 Alpha  occ. eigenvalues --  -11.26966 -11.26210 -11.26142  -1.60539  -1.59168
 Alpha  occ. eigenvalues --   -1.40104  -1.38719  -1.20040  -1.18716  -1.09425
 Alpha  occ. eigenvalues --   -1.08142  -1.05450  -1.04104  -0.96274  -0.94957
 Alpha  occ. eigenvalues --   -0.86847  -0.85534  -0.83121  -0.81774  -0.78190
 Alpha  occ. eigenvalues --   -0.76791  -0.72761  -0.71852  -0.71368  -0.71154
 Alpha  occ. eigenvalues --   -0.70490  -0.69863  -0.65698  -0.65463  -0.64376
 Alpha  occ. eigenvalues --   -0.64157  -0.62816  -0.61424  -0.55924  -0.54704
 Alpha  occ. eigenvalues --   -0.53759  -0.53556  -0.52457  -0.52209  -0.49517
 Alpha  occ. eigenvalues --   -0.49478  -0.48137  -0.48109  -0.45508  -0.44122
 Alpha  occ. eigenvalues --   -0.37991  -0.37045  -0.36758  -0.35688
 Alpha virt. eigenvalues --    0.04377   0.05728   0.10610   0.11933   0.15888
 Alpha virt. eigenvalues --    0.17174   0.18961   0.22017   0.24776   0.27078
 Alpha virt. eigenvalues --    0.28794   0.28992   0.30276   0.31060   0.32718

 Mulliken charges:
               1
     1  C   -0.173240
     2  C   -0.219106
     3  C   -0.171394
     4  C    0.157283
     5  C   -0.168787
     6  C   -0.219312
     7  H    0.219256
     8  H    0.220173
     9  H    0.273726
    10  H    0.287622
    11  H    0.225123
    12  N    0.487983
    13  O   -0.456821
    14  O   -0.463862
    15  C   -0.169918
    16  C   -0.220888
    17  C   -0.172061
    18  C    0.157352
    19  C   -0.168958
    20  C   -0.218330
    21  H    0.227787
    22  H    0.223135
    23  H    0.272974
    24  H    0.278255
    25  H    0.226225
    26  N    0.490186
    27  O   -0.453215
    28  O   -0.471187
 Sum of Mulliken charges =  -0.00000

 Dipole moment (field-independent basis, Debye):
    X=             -6.8822    Y=              7.6636    Z=             -0.0392  Tot=             10.3003
 Quadrupole moment (field-independent basis, Debye-Ang):
   XX=            -95.0875   YY=           -105.4201   ZZ=           -105.1944
   XY=              9.3445   XZ=              5.6369   YZ=              0.2024

 Normal termination of Gaussian 16 at Thu May  6 01:49:38 2021.
