 Gaussian 16, Revision A.03,
 Gaussian 16:  EM64L-G16RevA.03 25-Dec-2016

 -------------
 #p 6-31g* mp2
 -------------

 ------------------------------------------------------
 Input file generated by CHIRIPA (05-May-2021 14:53:14)
 ------------------------------------------------------
 Symbolic Z-matrix:
 Charge =  0 Multiplicity = 1

                         Standard orientation:
 ---------------------------------------------------------------------
 Center     Atomic      Atomic             Coordinates (Angstroms)
 Number     Number       Type             X           Y           Z
 ---------------------------------------------------------------------
      1          6           0       -3.387963    0.703241    0.191715
      2          6           0       -2.681033    1.530565   -0.882422
      3          6           0       -2.199958    2.885916   -0.363398
      4          1           0       -4.242942    1.272970    0.580771
      5          1           0       -2.702999    0.550982    1.037313
      6          1           0       -3.366657    1.680044   -1.726336
      7          1           0       -1.827751    0.958722   -1.269101
      8          1           0       -1.495796    2.753568    0.464395
      9          1           0       -3.043446    3.478988    0.004562
     10          1           0       -1.697514    3.460772   -1.147586
     11          6           0       -3.874684   -0.654398   -0.311917
     12          6           0       -4.581615   -1.481722    0.762219
     13          6           0       -5.062690   -2.837073    0.243196
     14          1           0       -4.559649   -0.502139   -1.157515
     15          1           0       -3.019705   -1.224127   -0.700974
     16          1           0       -5.434897   -0.909879    1.148899
     17          1           0       -3.895991   -1.631201    1.606134
     18          1           0       -4.219202   -3.430145   -0.124765
     19          1           0       -5.766852   -2.704725   -0.584597
     20          1           0       -5.565134   -3.411930    1.027383
     21          6           0        1.469394    2.043851    0.536827
     22          6           0        1.457466    1.484201   -0.745036
     23          6           0        2.211343    0.341288   -1.027821
     24          6           0        2.969184   -0.218516   -0.000405
     25          6           0        3.001794    0.315663    1.286794
     26          6           0        2.240162    1.458827    1.546869
     27          1           0        0.880753    2.931791    0.747681
     28          1           0        0.859811    1.936404   -1.531398
     29          1           0        2.220394   -0.112636   -2.011331
     30          1           0        3.607401   -0.157600    2.050129
     31          1           0        2.251343    1.891293    2.543309
     32          7           0        3.771384   -1.428600   -0.287757
     33          8           0        4.430740   -1.902805    0.634748
     34          8           0        3.725604   -1.879945   -1.430048
 ---------------------------------------------------------------------

 SCF Done:  E(RHF) =  -669.535252646     A.U. after   15 cycles
 E2 =    -0.2092221268D+01 EUMP2 =    -0.67162747391462D+03

 The electronic state is 1-A.
 Alpha  occ. eigenvalues --  -20.60783 -20.60778 -15.85837 -11.31208 -11.27779
 Alpha  occ. eigenvalues --  -11.27774 -11.27477 -11.26784 -11.26768 -11.22413
 Alpha  occ. eigenvalues --  -11.22190 -11.21969 -11.21906 -11.21774 -11.21273
 Alpha  occ. eigenvalues --   -1.59859  -1.39412  -1.19381  -1.08982  -1.08765
 Alpha  occ. eigenvalues --   -1.04785  -1.04121  -0.96595  -0.95601  -0.87613
 Alpha  occ. eigenvalues --   -0.86172  -0.82441  -0.80202  -0.78740  -0.77486
 Alpha  occ. eigenvalues --   -0.72054  -0.71183  -0.70505  -0.65635  -0.65026
 Alpha  occ. eigenvalues --   -0.64771  -0.62163  -0.61477  -0.59992  -0.58184
 Alpha  occ. eigenvalues --   -0.55991  -0.55195  -0.53305  -0.53129  -0.52978
 Alpha  occ. eigenvalues --   -0.52840  -0.50502  -0.48814  -0.48809  -0.48508
 Alpha  occ. eigenvalues --   -0.47208  -0.46294  -0.46179  -0.44817  -0.44356
 Alpha  occ. eigenvalues --   -0.37335  -0.36382
 Alpha virt. eigenvalues --    0.05017   0.11173   0.16400   0.19941   0.22696
 Alpha virt. eigenvalues --    0.23955   0.25854   0.26019   0.26546   0.27797
 Alpha virt. eigenvalues --    0.29225   0.29867   0.31317   0.31391   0.32183

 Mulliken charges:
               1
     1  C   -0.298664
     2  C   -0.301082
     3  C   -0.481515
     4  H    0.150513
     5  H    0.150691
     6  H    0.155023
     7  H    0.151389
     8  H    0.150883
     9  H    0.160968
    10  H    0.155008
    11  C   -0.299243
    12  C   -0.300142
    13  C   -0.476250
    14  H    0.150141
    15  H    0.151880
    16  H    0.151812
    17  H    0.152742
    18  H    0.157137
    19  H    0.155380
    20  H    0.161401
    21  C   -0.172771
    22  C   -0.219043
    23  C   -0.172289
    24  C    0.158583
    25  C   -0.170823
    26  C   -0.219576
    27  H    0.229053
    28  H    0.226663
    29  H    0.275683
    30  H    0.275636
    31  H    0.223549
    32  N    0.488069
    33  O   -0.460393
    34  O   -0.460412
 Sum of Mulliken charges =  -0.00000

 Dipole moment (field-independent basis, Debye):
    X=             -2.9477    Y=              4.1940    Z=              1.0306  Tot=              5.2289
 Quadrupole moment (field-independent basis, Debye-Ang):
   XX=           -110.6796   YY=            -98.2529   ZZ=            -90.3459
   XY=             12.6737   XZ=              4.9532   YZ=             -0.5463

 Normal termination of Gaussian 16 at Thu May  6 20:19:47 2021.
