 Gaussian 16, Revision A.03,
 Gaussian 16:  EM64L-G16RevA.03 25-Dec-2016

 -------------
 #p 6-31g* mp2
 -------------

 ------------------------------------------------------
 Input file generated by CHIRIPA (05-May-2021 14:53:13)
 ------------------------------------------------------
 Symbolic Z-matrix:
 Charge =  0 Multiplicity = 1

                         Standard orientation:
 ---------------------------------------------------------------------
 Center     Atomic      Atomic             Coordinates (Angstroms)
 Number     Number       Type             X           Y           Z
 ---------------------------------------------------------------------
      1          6           0        4.357131   -0.107010   -0.487276
      2          6           0        5.562890    0.677965    0.030357
      3          6           0        6.486882    1.150574   -1.092440
      4          1           0        4.711199   -0.973776   -1.061991
      5          1           0        3.791744    0.522835   -1.188011
      6          1           0        6.125064    0.047312    0.730967
      7          1           0        5.205910    1.542856    0.604068
      8          1           0        5.946598    1.801003   -1.787880
      9          1           0        6.870974    0.296961   -1.660260
     10          1           0        7.342146    1.709509   -0.700045
     11          6           0        3.424074   -0.586223    0.623348
     12          6           0        2.218315   -1.371198    0.105714
     13          6           0        1.294323   -1.843807    1.228512
     14          1           0        3.989461   -1.216068    1.324082
     15          1           0        3.070006    0.280543    1.198063
     16          1           0        2.575295   -2.236089   -0.467997
     17          1           0        1.656141   -0.740544   -0.594895
     18          1           0        0.910231   -0.990194    1.796332
     19          1           0        1.834607   -2.494236    1.923952
     20          1           0        0.439059   -2.402742    0.836117
     21          6           0       -2.591428    2.686878    0.519268
     22          6           0       -3.741659    2.338790   -0.196501
     23          6           0       -4.000113    1.003267   -0.519190
     24          6           0       -3.082854    0.037216   -0.108493
     25          6           0       -1.927964    0.352425    0.605762
     26          6           0       -1.689841    1.694335    0.917413
     27          1           0       -2.398551    3.726825    0.765653
     28          1           0       -4.443598    3.107499   -0.507002
     29          1           0       -4.882741    0.705907   -1.072328
     30          1           0       -1.246737   -0.436125    0.901626
     31          1           0       -0.795735    1.961741    1.473391
     32          7           0       -3.345707   -1.380023   -0.444266
     33          8           0       -2.521979   -2.212318   -0.070909
     34          8           0       -4.370479   -1.631723   -1.074444
 ---------------------------------------------------------------------

 SCF Done:  E(RHF) =  -669.535617003     A.U. after   15 cycles
 E2 =    -0.2091991505D+01 EUMP2 =    -0.67162760850802D+03

 The electronic state is 1-A.
 Alpha  occ. eigenvalues --  -20.60807 -20.60802 -15.85851 -11.31152 -11.27743
 Alpha  occ. eigenvalues --  -11.27651 -11.27489 -11.26751 -11.26735 -11.21802
 Alpha  occ. eigenvalues --  -11.21760 -11.21624 -11.21550 -11.21239 -11.21231
 Alpha  occ. eigenvalues --   -1.59874  -1.39430  -1.19335  -1.08746  -1.08634
 Alpha  occ. eigenvalues --   -1.04736  -1.03721  -0.96185  -0.95581  -0.87203
 Alpha  occ. eigenvalues --   -0.86131  -0.82422  -0.79784  -0.78443  -0.77469
 Alpha  occ. eigenvalues --   -0.72076  -0.71191  -0.70461  -0.65299  -0.64992
 Alpha  occ. eigenvalues --   -0.64746  -0.62181  -0.61062  -0.59494  -0.57756
 Alpha  occ. eigenvalues --   -0.55581  -0.55169  -0.53068  -0.52979  -0.52651
 Alpha  occ. eigenvalues --   -0.52586  -0.50122  -0.48831  -0.48821  -0.48073
 Alpha  occ. eigenvalues --   -0.46828  -0.45987  -0.45918  -0.44846  -0.43943
 Alpha  occ. eigenvalues --   -0.37327  -0.36334
 Alpha virt. eigenvalues --    0.05047   0.11299   0.16543   0.20219   0.22863
 Alpha virt. eigenvalues --    0.23950   0.26005   0.26936   0.27147   0.27948
 Alpha virt. eigenvalues --    0.29365   0.30701   0.31517   0.31758   0.32368

 Mulliken charges:
               1
     1  C   -0.298374
     2  C   -0.299439
     3  C   -0.475757
     4  H    0.151830
     5  H    0.148868
     6  H    0.152740
     7  H    0.149813
     8  H    0.154796
     9  H    0.156391
    10  H    0.160365
    11  C   -0.297323
    12  C   -0.300436
    13  C   -0.491993
    14  H    0.151145
    15  H    0.143678
    16  H    0.157333
    17  H    0.150885
    18  H    0.139354
    19  H    0.160494
    20  H    0.185428
    21  C   -0.170286
    22  C   -0.219346
    23  C   -0.169822
    24  C    0.156300
    25  C   -0.179342
    26  C   -0.223671
    27  H    0.225434
    28  H    0.223323
    29  H    0.275425
    30  H    0.293503
    31  H    0.222966
    32  N    0.489118
    33  O   -0.463508
    34  O   -0.459892
 Sum of Mulliken charges =  -0.00000

 Dipole moment (field-independent basis, Debye):
    X=              0.9626    Y=              4.8296    Z=              1.1159  Tot=              5.0495
 Quadrupole moment (field-independent basis, Debye-Ang):
   XX=            -97.2692   YY=            -93.5744   ZZ=            -95.2893
   XY=            -17.8538   XZ=             -1.0561   YZ=             -1.0044

 Normal termination of Gaussian 16 at Wed May  5 17:03:28 2021.
