 Gaussian 16, Revision A.03,
 Gaussian 16:  EM64L-G16RevA.03 25-Dec-2016

 -------------
 #p 6-31g* mp2
 -------------

 ------------------------------------------------------
 Input file generated by CHIRIPA (05-May-2021 14:57:24)
 ------------------------------------------------------
 Symbolic Z-matrix:
 Charge =  0 Multiplicity = 1

                         Standard orientation:
 ---------------------------------------------------------------------
 Center     Atomic      Atomic             Coordinates (Angstroms)
 Number     Number       Type             X           Y           Z
 ---------------------------------------------------------------------
      1          6           0        2.453441    2.413069    0.724633
      2          6           0        2.025542    1.303317    1.460755
      3          6           0        2.269346    0.007023    0.997368
      4          6           0        2.946832   -0.143550   -0.211612
      5          6           0        3.385736    0.942146   -0.967864
      6          6           0        3.130978    2.229265   -0.485194
      7          1           0        2.259794    3.416498    1.092093
      8          1           0        1.499133    1.443051    2.400655
      9          1           0        1.949179   -0.869736    1.547099
     10          1           0        3.908109    0.771126   -1.901296
     11          1           0        3.464453    3.089265   -1.058988
     12          7           0        3.210735   -1.511022   -0.712386
     13          8           0        3.809608   -1.616891   -1.780459
     14          8           0        2.813711   -2.451085   -0.027337
     15          6           0       -4.137216    0.681376   -1.935139
     16          6           0       -3.397593    1.599326   -1.182247
     17          6           0       -2.709982    1.187642   -0.036710
     18          6           0       -2.784051   -0.155610    0.328638
     19          6           0       -3.512451   -1.094131   -0.400676
     20          6           0       -4.192188   -0.660058   -1.542642
     21          1           0       -4.668311    1.009878   -2.823632
     22          1           0       -3.353116    2.641726   -1.484687
     23          1           0       -2.129887    1.877159    0.564515
     24          1           0       -3.537979   -2.126671   -0.074137
     25          1           0       -4.765802   -1.375165   -2.125423
     26          7           0       -2.060276   -0.603293    1.539477
     27          8           0       -2.141410   -1.792249    1.840200
     28          8           0       -1.425553    0.243248    2.164883
 ---------------------------------------------------------------------

 SCF Done:  E(RHF) =  -868.339428841     A.U. after   16 cycles
 E2 =    -0.2599377448D+01 EUMP2 =    -0.87093880628896D+03

 The electronic state is 1-A.
 Alpha  occ. eigenvalues --  -20.61293 -20.61226 -20.60263 -20.60237 -15.86293
 Alpha  occ. eigenvalues --  -15.85297 -11.31470 -11.30580 -11.28062 -11.27985
 Alpha  occ. eigenvalues --  -11.27736 -11.27189 -11.27025 -11.26977 -11.26967
 Alpha  occ. eigenvalues --  -11.26879 -11.26244 -11.25962  -1.60322  -1.59332
 Alpha  occ. eigenvalues --   -1.39882  -1.38885  -1.19627  -1.18739  -1.09058
 Alpha  occ. eigenvalues --   -1.08168  -1.05008  -1.04089  -0.95927  -0.95011
 Alpha  occ. eigenvalues --   -0.86415  -0.85508  -0.82774  -0.81812  -0.77839
 Alpha  occ. eigenvalues --   -0.76862  -0.72534  -0.71627  -0.71513  -0.70742
 Alpha  occ. eigenvalues --   -0.70658  -0.69863  -0.65291  -0.65015  -0.64376
 Alpha  occ. eigenvalues --   -0.64066  -0.62362  -0.61405  -0.55519  -0.54654
 Alpha  occ. eigenvalues --   -0.53339  -0.53104  -0.52482  -0.52151  -0.49300
 Alpha  occ. eigenvalues --   -0.49253  -0.48281  -0.48264  -0.45327  -0.44306
 Alpha  occ. eigenvalues --   -0.37595  -0.36774  -0.36597  -0.35675
 Alpha virt. eigenvalues --    0.04668   0.05626   0.11059   0.11931   0.16179
 Alpha virt. eigenvalues --    0.17153   0.21149   0.22129   0.27075   0.27748
 Alpha virt. eigenvalues --    0.28428   0.28917   0.30755   0.31624   0.32266

 Mulliken charges:
               1
     1  C   -0.175938
     2  C   -0.216269
     3  C   -0.174216
     4  C    0.157006
     5  C   -0.173591
     6  C   -0.219361
     7  H    0.221918
     8  H    0.237728
     9  H    0.284216
    10  H    0.272411
    11  H    0.219228
    12  N    0.487563
    13  O   -0.464326
    14  O   -0.457761
    15  C   -0.169898
    16  C   -0.218379
    17  C   -0.169189
    18  C    0.158564
    19  C   -0.169223
    20  C   -0.218255
    21  H    0.226719
    22  H    0.222558
    23  H    0.271229
    24  H    0.278082
    25  H    0.225570
    26  N    0.489871
    27  O   -0.454148
    28  O   -0.472108
 Sum of Mulliken charges =  -0.00000

 Dipole moment (field-independent basis, Debye):
    X=             -3.7845    Y=              6.1919    Z=             -2.3707  Tot=              7.6343
 Quadrupole moment (field-independent basis, Debye-Ang):
   XX=            -96.1022   YY=           -102.3949   ZZ=           -105.8352
   XY=             13.1766   XZ=             15.6236   YZ=             -1.1182

 Normal termination of Gaussian 16 at Thu May  6 03:29:21 2021.
