 Gaussian 16, Revision A.03,
 Gaussian 16:  EM64L-G16RevA.03 25-Dec-2016

 -------------
 #p 6-31g* mp2
 -------------

 ------------------------------------------------------
 Input file generated by CHIRIPA (05-May-2021 14:51:14)
 ------------------------------------------------------
 Symbolic Z-matrix:
 Charge =  0 Multiplicity = 1

                         Standard orientation:
 ---------------------------------------------------------------------
 Center     Atomic      Atomic             Coordinates (Angstroms)
 Number     Number       Type             X           Y           Z
 ---------------------------------------------------------------------
      1          6           0        4.487159   -0.449750   -0.249404
      2          6           0        5.685472   -1.015419    0.513518
      3          6           0        6.274214   -2.260855   -0.149857
      4          1           0        3.712753   -1.224837   -0.329913
      5          1           0        4.795706   -0.208356   -1.276011
      6          1           0        5.375102   -1.254384    1.538790
      7          1           0        6.457037   -0.238835    0.592387
      8          1           0        6.610925   -2.033165   -1.166412
      9          1           0        5.522843   -3.054484   -0.214631
     10          1           0        7.129668   -2.648611    0.412018
     11          6           0        3.887610    0.795514    0.401433
     12          6           0        2.689297    1.361183   -0.361489
     13          6           0        2.100555    2.606618    0.301886
     14          1           0        3.579063    0.554120    1.428040
     15          1           0        4.662016    1.570600    0.481942
     16          1           0        1.917732    0.584599   -0.440357
     17          1           0        2.999667    1.600147   -1.386761
     18          1           0        2.851926    3.400248    0.366661
     19          1           0        1.763844    2.378929    1.318441
     20          1           0        1.245101    2.994375   -0.259989
     21          6           0       -3.462038   -0.388914   -0.179140
     22          6           0       -2.491407    0.785899   -0.304338
     23          6           0       -1.044178    0.337651   -0.510248
     24          1           0       -3.150873   -1.025505    0.660427
     25          1           0       -3.394507   -1.009280   -1.083563
     26          1           0       -2.561754    1.404630    0.599453
     27          1           0       -2.805030    1.419871   -1.143586
     28          1           0       -0.952489   -0.261591   -1.421896
     29          1           0       -0.707831   -0.276919    0.331045
     30          1           0       -0.367373    1.193356   -0.597227
     31          6           0       -4.912730    0.043150    0.027110
     32          6           0       -5.883363   -1.131662    0.152309
     33          6           0       -7.330591   -0.683414    0.358219
     34          1           0       -4.980263    0.663516    0.931533
     35          1           0       -5.223897    0.679742   -0.812456
     36          1           0       -5.569739   -1.765634    0.991556
     37          1           0       -5.813015   -1.750393   -0.751483
     38          1           0       -7.666938   -0.068844   -0.483075
     39          1           0       -7.422280   -0.084173    1.269867
     40          1           0       -8.007396   -1.539119    0.445197
 ---------------------------------------------------------------------

 SCF Done:  E(RHF) =  -470.732300842     A.U. after   11 cycles
 E2 =    -0.1583237073D+01 EUMP2 =    -0.47231553791530D+03

 The electronic state is 1-A.
 Alpha  occ. eigenvalues --  -11.21600 -11.21587 -11.21571 -11.21478 -11.21399
 Alpha  occ. eigenvalues --  -11.21356 -11.21340 -11.21296 -11.21070 -11.21063
 Alpha  occ. eigenvalues --  -11.21047 -11.21014  -1.08431  -1.08378  -1.03572
 Alpha  occ. eigenvalues --   -1.03452  -0.96053  -0.95885  -0.87020  -0.86953
 Alpha  occ. eigenvalues --   -0.79666  -0.79492  -0.78255  -0.78174  -0.65068
 Alpha  occ. eigenvalues --   -0.65014  -0.61015  -0.60879  -0.59680  -0.59058
 Alpha  occ. eigenvalues --   -0.57776  -0.57338  -0.55316  -0.55193  -0.52831
 Alpha  occ. eigenvalues --   -0.52529  -0.52475  -0.52189  -0.49918  -0.49888
 Alpha  occ. eigenvalues --   -0.47958  -0.47814  -0.46644  -0.46563  -0.45818
 Alpha  occ. eigenvalues --   -0.45716  -0.45707  -0.45643  -0.43750  -0.43700
 Alpha virt. eigenvalues --    0.22021   0.23034   0.23498   0.25141   0.26239
 Alpha virt. eigenvalues --    0.26673   0.26960   0.27248   0.27800   0.29006
 Alpha virt. eigenvalues --    0.30288   0.31132   0.31409   0.31697   0.32247

 Mulliken charges:
               1
     1  C   -0.298310
     2  C   -0.299598
     3  C   -0.475682
     4  H    0.149852
     5  H    0.149421
     6  H    0.151782
     7  H    0.151857
     8  H    0.155132
     9  H    0.155155
    10  H    0.160119
    11  C   -0.297549
    12  C   -0.307416
    13  C   -0.478151
    14  H    0.149082
    15  H    0.149136
    16  H    0.162414
    17  H    0.151223
    18  H    0.156098
    19  H    0.155743
    20  H    0.159384
    21  C   -0.298593
    22  C   -0.299875
    23  C   -0.482821
    24  H    0.149410
    25  H    0.149440
    26  H    0.152017
    27  H    0.151682
    28  H    0.154828
    29  H    0.153702
    30  H    0.170535
    31  C   -0.298243
    32  C   -0.299590
    33  C   -0.475692
    34  H    0.149509
    35  H    0.149634
    36  H    0.151866
    37  H    0.151902
    38  H    0.155184
    39  H    0.155181
    40  H    0.160230
 Sum of Mulliken charges =  -0.00000

 Dipole moment (field-independent basis, Debye):
    X=             -0.0045    Y=              0.0026    Z=             -0.0060  Tot=              0.0080
 Quadrupole moment (field-independent basis, Debye-Ang):
   XX=            -86.0776   YY=            -85.3467   ZZ=            -83.6005
   XY=              1.0024   XZ=              0.1439   YZ=             -0.6969

 Normal termination of Gaussian 16 at Wed May  5 20:00:14 2021.
