 Gaussian 16, Revision A.03,
 Gaussian 16:  EM64L-G16RevA.03 25-Dec-2016

 -------------
 #p 6-31g* mp2
 -------------

 ------------------------------------------------------
 Input file generated by CHIRIPA (05-May-2021 14:55:20)
 ------------------------------------------------------
 Symbolic Z-matrix:
 Charge =  0 Multiplicity = 1

                         Standard orientation:
 ---------------------------------------------------------------------
 Center     Atomic      Atomic             Coordinates (Angstroms)
 Number     Number       Type             X           Y           Z
 ---------------------------------------------------------------------
      1          6           0       -0.770420   -0.914969    1.920729
      2          6           0       -1.424942   -1.929573    1.214541
      3          6           0       -2.408081   -1.617369    0.270871
      4          6           0       -2.713107   -0.273959    0.057570
      5          6           0       -2.078734    0.759487    0.745212
      6          6           0       -1.098826    0.423962    1.684228
      7          1           0       -0.007949   -1.166555    2.651987
      8          1           0       -1.171948   -2.970274    1.396146
      9          1           0       -2.930446   -2.382925   -0.289912
     10          1           0       -2.352541    1.787749    0.542415
     11          1           0       -0.592157    1.214004    2.231187
     12          7           0       -3.752202    0.068902   -0.938987
     13          8           0       -4.002686    1.260183   -1.108531
     14          8           0       -4.296486   -0.860136   -1.531676
     15          6           0        3.070837    1.123250   -0.528230
     16          6           0        2.261705    1.928448    0.489094
     17          6           0        1.903751    3.327161   -0.014162
     18          1           0        3.990065    1.672615   -0.773512
     19          1           0        2.496601    1.042310   -1.461556
     20          1           0        2.836710    2.006663    1.420688
     21          1           0        1.344389    1.377011    0.732127
     22          1           0        1.308926    3.266082   -0.931251
     23          1           0        2.809725    3.899313   -0.238778
     24          1           0        1.325469    3.885321    0.728743
     25          6           0        3.436303   -0.277257   -0.039616
     26          6           0        4.245435   -1.082454   -1.056940
     27          6           0        4.603389   -2.481167   -0.553685
     28          1           0        4.010539   -0.196318    0.893709
     29          1           0        2.517076   -0.826623    0.205666
     30          1           0        5.162751   -0.531017   -1.299973
     31          1           0        3.670430   -1.160671   -1.988534
     32          1           0        3.697415   -3.053320   -0.329069
     33          1           0        5.198214   -2.420090    0.363404
     34          1           0        5.181671   -3.039327   -1.296589
 ---------------------------------------------------------------------

 SCF Done:  E(RHF) =  -669.535149387     A.U. after   15 cycles
 E2 =    -0.2092769942D+01 EUMP2 =    -0.67162791932892D+03

 The electronic state is 1-A.
 Alpha  occ. eigenvalues --  -20.60832 -20.60827 -15.85886 -11.31283 -11.27846
 Alpha  occ. eigenvalues --  -11.27839 -11.27593 -11.26873 -11.26843 -11.22084
 Alpha  occ. eigenvalues --  -11.22010 -11.21880 -11.21795 -11.21565 -11.21514
 Alpha  occ. eigenvalues --   -1.59907  -1.39459  -1.19461  -1.08914  -1.08832
 Alpha  occ. eigenvalues --   -1.04871  -1.04001  -0.96448  -0.95673  -0.87462
 Alpha  occ. eigenvalues --   -0.86263  -0.82506  -0.80081  -0.78735  -0.77543
 Alpha  occ. eigenvalues --   -0.72103  -0.71230  -0.70546  -0.65560  -0.65107
 Alpha  occ. eigenvalues --   -0.64851  -0.62240  -0.61372  -0.59824  -0.58072
 Alpha  occ. eigenvalues --   -0.55730  -0.55342  -0.53257  -0.53112  -0.52957
 Alpha  occ. eigenvalues --   -0.52868  -0.50373  -0.48870  -0.48856  -0.48384
 Alpha  occ. eigenvalues --   -0.47094  -0.46265  -0.46174  -0.44857  -0.44252
 Alpha  occ. eigenvalues --   -0.37402  -0.36412
 Alpha virt. eigenvalues --    0.04965   0.11079   0.16378   0.20765   0.22627
 Alpha virt. eigenvalues --    0.23752   0.26174   0.26356   0.26778   0.28379
 Alpha virt. eigenvalues --    0.28746   0.30336   0.31059   0.31563   0.31947

 Mulliken charges:
               1
     1  C   -0.171313
     2  C   -0.219065
     3  C   -0.170685
     4  C    0.158680
     5  C   -0.172476
     6  C   -0.218470
     7  H    0.227522
     8  H    0.224050
     9  H    0.275986
    10  H    0.276528
    11  H    0.227353
    12  N    0.488042
    13  O   -0.459985
    14  O   -0.460172
    15  C   -0.297068
    16  C   -0.310154
    17  C   -0.476298
    18  H    0.151030
    19  H    0.153063
    20  H    0.148428
    21  H    0.155007
    22  H    0.159552
    23  H    0.158222
    24  H    0.155450
    25  C   -0.299777
    26  C   -0.300009
    27  C   -0.475603
    28  H    0.147384
    29  H    0.147486
    30  H    0.153445
    31  H    0.154355
    32  H    0.152567
    33  H    0.154549
    34  H    0.162376
 Sum of Mulliken charges =  -0.00000

 Dipole moment (field-independent basis, Debye):
    X=              3.6369    Y=             -1.2305    Z=              3.4430  Tot=              5.1571
 Quadrupole moment (field-independent basis, Debye-Ang):
   XX=           -114.5976   YY=            -90.3544   ZZ=            -94.6771
   XY=              3.6988   XZ=             -9.2513   YZ=              0.2650

 Normal termination of Gaussian 16 at Wed May  5 23:46:27 2021.
