 Gaussian 16, Revision A.03,
 Gaussian 16:  EM64L-G16RevA.03 25-Dec-2016

 -------------
 #p 6-31g* mp2
 -------------

 ------------------------------------------------------
 Input file generated by CHIRIPA (05-May-2021 14:55:25)
 ------------------------------------------------------
 Symbolic Z-matrix:
 Charge =  0 Multiplicity = 1

                         Standard orientation:
 ---------------------------------------------------------------------
 Center     Atomic      Atomic             Coordinates (Angstroms)
 Number     Number       Type             X           Y           Z
 ---------------------------------------------------------------------
      1          6           0       -2.702217    1.963344    1.393752
      2          6           0       -1.756634    1.740064    0.387501
      3          6           0       -1.763561    0.546982   -0.341234
      4          6           0       -2.734634   -0.405444   -0.035962
      5          6           0       -3.690032   -0.212428    0.960658
      6          6           0       -3.664202    0.988105    1.676619
      7          1           0       -2.689494    2.893053    1.954889
      8          1           0       -1.008376    2.495669    0.165654
      9          1           0       -1.043249    0.348145   -1.125474
     10          1           0       -4.423630   -0.984393    1.158958
     11          1           0       -4.399784    1.158784    2.457538
     12          7           0       -2.751974   -1.672451   -0.800680
     13          8           0       -3.617877   -2.495718   -0.512445
     14          8           0       -1.899332   -1.818272   -1.673822
     15          6           0        3.653914   -0.192573    0.485826
     16          6           0        4.959635   -0.974212    0.337106
     17          6           0        5.260483   -1.858398    1.547682
     18          1           0        3.706505    0.427953    1.390883
     19          1           0        2.826889   -0.899604    0.639225
     20          1           0        5.783753   -0.265981    0.182651
     21          1           0        4.904004   -1.592804   -0.567807
     22          1           0        4.458101   -2.587217    1.701331
     23          1           0        5.342848   -1.252856    2.456053
     24          1           0        6.198270   -2.408092    1.420199
     25          6           0        3.339434    0.695936   -0.716413
     26          6           0        2.033714    1.477575   -0.567692
     27          6           0        1.732866    2.361762   -1.778270
     28          1           0        4.166459    1.402968   -0.869812
     29          1           0        3.286844    0.075411   -1.621470
     30          1           0        2.089344    2.096168    0.337220
     31          1           0        1.209595    0.769345   -0.413238
     32          1           0        1.650500    1.756220   -2.686640
     33          1           0        2.535247    3.090581   -1.931918
     34          1           0        0.795078    2.911456   -1.650786
 ---------------------------------------------------------------------

 SCF Done:  E(RHF) =  -669.534948332     A.U. after   15 cycles
 E2 =    -0.2092580921D+01 EUMP2 =    -0.67162752925267D+03

 The electronic state is 1-A.
 Alpha  occ. eigenvalues --  -20.60767 -20.60761 -15.85819 -11.31162 -11.27731
 Alpha  occ. eigenvalues --  -11.27697 -11.27463 -11.26750 -11.26707 -11.22288
 Alpha  occ. eigenvalues --  -11.21892 -11.21762 -11.21710 -11.21579 -11.21120
 Alpha  occ. eigenvalues --   -1.59842  -1.39396  -1.19335  -1.08796  -1.08730
 Alpha  occ. eigenvalues --   -1.04746  -1.03936  -0.96381  -0.95572  -0.87391
 Alpha  occ. eigenvalues --   -0.86132  -0.82413  -0.80034  -0.78568  -0.77445
 Alpha  occ. eigenvalues --   -0.72039  -0.71165  -0.70458  -0.65451  -0.64981
 Alpha  occ. eigenvalues --   -0.64739  -0.62237  -0.61255  -0.59742  -0.57968
 Alpha  occ. eigenvalues --   -0.55639  -0.55220  -0.53139  -0.53088  -0.52921
 Alpha  occ. eigenvalues --   -0.52653  -0.50295  -0.48797  -0.48792  -0.48330
 Alpha  occ. eigenvalues --   -0.47038  -0.46103  -0.45985  -0.44805  -0.44172
 Alpha  occ. eigenvalues --   -0.37316  -0.36302
 Alpha virt. eigenvalues --    0.05041   0.11280   0.16499   0.19534   0.22841
 Alpha virt. eigenvalues --    0.23833   0.25724   0.26264   0.27232   0.27961
 Alpha virt. eigenvalues --    0.29111   0.30046   0.31133   0.31702   0.32306

 Mulliken charges:
               1
     1  C   -0.171603
     2  C   -0.220729
     3  C   -0.175083
     4  C    0.158443
     5  C   -0.171180
     6  C   -0.218318
     7  H    0.225722
     8  H    0.229919
     9  H    0.278286
    10  H    0.275427
    11  H    0.223322
    12  N    0.488158
    13  O   -0.460400
    14  O   -0.461009
    15  C   -0.299420
    16  C   -0.300302
    17  C   -0.476191
    18  H    0.148209
    19  H    0.153401
    20  H    0.151366
    21  H    0.154614
    22  H    0.157327
    23  H    0.154171
    24  H    0.161165
    25  C   -0.298238
    26  C   -0.307861
    27  C   -0.481408
    28  H    0.150288
    29  H    0.154625
    30  H    0.150005
    31  H    0.152775
    32  H    0.162522
    33  H    0.160679
    34  H    0.151319
 Sum of Mulliken charges =  -0.00000

 Dipole moment (field-independent basis, Debye):
    X=              0.2059    Y=              4.3958    Z=              2.6710  Tot=              5.1478
 Quadrupole moment (field-independent basis, Debye-Ang):
   XX=            -91.6692   YY=            -98.4844   ZZ=            -94.4280
   XY=            -10.4189   XZ=            -10.2179   YZ=             -1.2637

 Normal termination of Gaussian 16 at Thu May  6 16:06:00 2021.
