 Gaussian 16, Revision A.03,
 Gaussian 16:  EM64L-G16RevA.03 25-Dec-2016

 -------------
 #p 6-31g* mp2
 -------------

 ------------------------------------------------------
 Input file generated by CHIRIPA (05-May-2021 14:57:22)
 ------------------------------------------------------
 Symbolic Z-matrix:
 Charge =  0 Multiplicity = 1

                         Standard orientation:
 ---------------------------------------------------------------------
 Center     Atomic      Atomic             Coordinates (Angstroms)
 Number     Number       Type             X           Y           Z
 ---------------------------------------------------------------------
      1          6           0        5.751517   -0.568857    0.825164
      2          6           0        5.577503    0.014363   -0.434238
      3          6           0        4.294337    0.264560   -0.929650
      4          6           0        3.202568   -0.082679   -0.135449
      5          6           0        3.343359   -0.665013    1.123263
      6          6           0        4.635857   -0.906089    1.598532
      7          1           0        6.751936   -0.759673    1.202188
      8          1           0        6.442109    0.277302   -1.037035
      9          1           0        4.130871    0.714961   -1.901163
     10          1           0        2.462189   -0.916163    1.701087
     11          1           0        4.767985   -1.359142    2.576964
     12          7           0        1.839198    0.177365   -0.649257
     13          8           0        0.893632   -0.137807    0.069915
     14          8           0        1.741969    0.691436   -1.761424
     15          6           0       -4.650049   -2.058678   -0.265354
     16          6           0       -5.034026   -1.182857    0.755441
     17          6           0       -4.363668    0.030058    0.939845
     18          6           0       -3.309054    0.336699    0.081329
     19          6           0       -2.902886   -0.514958   -0.944827
     20          6           0       -3.587578   -1.722525   -1.110739
     21          1           0       -5.176367   -2.998822   -0.401420
     22          1           0       -5.858790   -1.441303    1.413481
     23          1           0       -4.640104    0.726569    1.722068
     24          1           0       -2.076870   -0.229771   -1.584971
     25          1           0       -3.287194   -2.400761   -1.904345
     26          7           0       -2.591788    1.617927    0.266760
     27          8           0       -1.665924    1.864815   -0.502954
     28          8           0       -2.969041    2.351007    1.178304
 ---------------------------------------------------------------------

 SCF Done:  E(RHF) =  -868.337335141     A.U. after   16 cycles
 E2 =    -0.2600319331D+01 EUMP2 =    -0.87093765447122D+03

 The electronic state is 1-A.
 Alpha  occ. eigenvalues --  -20.60387 -20.60381 -20.59370 -20.59211 -15.85434
 Alpha  occ. eigenvalues --  -15.84337 -11.30912 -11.29910 -11.27497 -11.27489
 Alpha  occ. eigenvalues --  -11.27265 -11.26620 -11.26542 -11.26531 -11.26422
 Alpha  occ. eigenvalues --  -11.26411 -11.25690 -11.25590  -1.59431  -1.58362
 Alpha  occ. eigenvalues --   -1.38991  -1.37901  -1.19094  -1.18139  -1.08468
 Alpha  occ. eigenvalues --   -1.07515  -1.04516  -1.03579  -0.95286  -0.94303
 Alpha  occ. eigenvalues --   -0.85910  -0.84967  -0.82123  -0.81134  -0.77147
 Alpha  occ. eigenvalues --   -0.76116  -0.71668  -0.70781  -0.70552  -0.70206
 Alpha  occ. eigenvalues --   -0.69662  -0.69270  -0.64750  -0.64524  -0.63798
 Alpha  occ. eigenvalues --   -0.63609  -0.61864  -0.60906  -0.55018  -0.54129
 Alpha  occ. eigenvalues --   -0.52837  -0.52613  -0.51905  -0.51683  -0.48456
 Alpha  occ. eigenvalues --   -0.48385  -0.47379  -0.47257  -0.44393  -0.43194
 Alpha  occ. eigenvalues --   -0.37082  -0.36169  -0.36124  -0.35186
 Alpha virt. eigenvalues --    0.05395   0.06429   0.11529   0.12463   0.16861
 Alpha virt. eigenvalues --    0.17841   0.21637   0.22479   0.27537   0.28361
 Alpha virt. eigenvalues --    0.28545   0.29456   0.31175   0.31974   0.32778

 Mulliken charges:
               1
     1  C   -0.171175
     2  C   -0.218550
     3  C   -0.170868
     4  C    0.159356
     5  C   -0.170715
     6  C   -0.218523
     7  H    0.224614
     8  H    0.222717
     9  H    0.275736
    10  H    0.275044
    11  H    0.222468
    12  N    0.489516
    13  O   -0.460274
    14  O   -0.457837
    15  C   -0.171897
    16  C   -0.219973
    17  C   -0.172411
    18  C    0.157779
    19  C   -0.163992
    20  C   -0.221007
    21  H    0.220385
    22  H    0.218147
    23  H    0.271862
    24  H    0.288290
    25  H    0.220137
    26  N    0.487397
    27  O   -0.444363
    28  O   -0.471865
 Sum of Mulliken charges =  -0.00000

 Dipole moment (field-independent basis, Debye):
    X=              2.6373    Y=             -5.2852    Z=              0.9648  Tot=              5.9849
 Quadrupole moment (field-independent basis, Debye-Ang):
   XX=            -58.1892   YY=           -108.6533   ZZ=            -99.5968
   XY=             10.8588   XZ=              3.0626   YZ=             -1.7553

 Normal termination of Gaussian 16 at Fri May  7 06:22:05 2021.
