 Gaussian 16, Revision A.03,
 Gaussian 16:  EM64L-G16RevA.03 25-Dec-2016

 -------------
 #p 6-31g* mp2
 -------------

 ------------------------------------------------------
 Input file generated by CHIRIPA (05-May-2021 14:53:14)
 ------------------------------------------------------
 Symbolic Z-matrix:
 Charge =  0 Multiplicity = 1

                         Standard orientation:
 ---------------------------------------------------------------------
 Center     Atomic      Atomic             Coordinates (Angstroms)
 Number     Number       Type             X           Y           Z
 ---------------------------------------------------------------------
      1          6           0        4.149653    0.647029    0.023863
      2          6           0        3.404730    1.939175    0.360660
      3          6           0        4.347565    3.092138    0.706396
      4          1           0        4.781601    0.362750    0.876372
      5          1           0        4.828332    0.832605   -0.820147
      6          1           0        2.726642    1.750864    1.202891
      7          1           0        2.774335    2.220308   -0.492676
      8          1           0        5.015620    3.308574   -0.133520
      9          1           0        4.967656    2.836463    1.571681
     10          1           0        3.794046    4.005975    0.943836
     11          6           0        3.220668   -0.514762   -0.323928
     12          6           0        3.965592   -1.806908   -0.660725
     13          6           0        3.022756   -2.959870   -1.006461
     14          1           0        2.541990   -0.700337    0.520082
     15          1           0        2.588720   -0.230483   -1.176437
     16          1           0        4.595986   -2.088040    0.192611
     17          1           0        4.643679   -1.618596   -1.502956
     18          1           0        2.402665   -2.704195   -1.871746
     19          1           0        2.354701   -3.176307   -0.166545
     20          1           0        3.576276   -3.873707   -1.243901
     21          6           0       -0.945193   -1.310435    1.137849
     22          6           0       -2.257377   -1.623449    1.507602
     23          6           0       -3.336574   -0.932547    0.948552
     24          6           0       -3.065988    0.070026    0.018542
     25          6           0       -1.769879    0.405069   -0.370221
     26          6           0       -0.706054   -0.298958    0.201767
     27          1           0       -0.112818   -1.852241    1.577158
     28          1           0       -2.446086   -2.408495    2.234332
     29          1           0       -4.362350   -1.154419    1.216830
     30          1           0       -1.613267    1.192696   -1.097225
     31          1           0        0.311964   -0.053723   -0.087272
     32          7           0       -4.200349    0.808400   -0.580148
     33          8           0       -3.935365    1.687401   -1.397326
     34          8           0       -5.332965    0.494156   -0.220888
 ---------------------------------------------------------------------

 SCF Done:  E(RHF) =  -669.535266239     A.U. after   15 cycles
 E2 =    -0.2092277409D+01 EUMP2 =    -0.67162754364769D+03

 The electronic state is 1-A.
 Alpha  occ. eigenvalues --  -20.60679 -20.60674 -15.85729 -11.31068 -11.27632
 Alpha  occ. eigenvalues --  -11.27600 -11.27361 -11.26659 -11.26516 -11.22699
 Alpha  occ. eigenvalues --  -11.22598 -11.22493 -11.22331 -11.22047 -11.21726
 Alpha  occ. eigenvalues --   -1.59754  -1.39309  -1.19228  -1.09484  -1.08630
 Alpha  occ. eigenvalues --   -1.04622  -1.04451  -0.96912  -0.95475  -0.87920
 Alpha  occ. eigenvalues --   -0.86030  -0.82306  -0.80537  -0.79373  -0.77339
 Alpha  occ. eigenvalues --   -0.71949  -0.71077  -0.70354  -0.66105  -0.64876
 Alpha  occ. eigenvalues --   -0.64632  -0.61990  -0.61834  -0.60274  -0.58524
 Alpha  occ. eigenvalues --   -0.56200  -0.55139  -0.53557  -0.53379  -0.52959
 Alpha  occ. eigenvalues --   -0.52667  -0.50845  -0.48847  -0.48707  -0.48698
 Alpha  occ. eigenvalues --   -0.47572  -0.46779  -0.46771  -0.44747  -0.44720
 Alpha  occ. eigenvalues --   -0.37214  -0.36221
 Alpha virt. eigenvalues --    0.05165   0.11389   0.16648   0.19384   0.22604
 Alpha virt. eigenvalues --    0.23030   0.24482   0.25257   0.26796   0.28420
 Alpha virt. eigenvalues --    0.29239   0.30472   0.30964   0.31451   0.32005

 Mulliken charges:
               1
     1  C   -0.297418
     2  C   -0.302791
     3  C   -0.476133
     4  H    0.152548
     5  H    0.153941
     6  H    0.150999
     7  H    0.150908
     8  H    0.157500
     9  H    0.156742
    10  H    0.163741
    11  C   -0.305957
    12  C   -0.299440
    13  C   -0.476492
    14  H    0.142386
    15  H    0.149458
    16  H    0.154598
    17  H    0.156892
    18  H    0.158264
    19  H    0.148686
    20  H    0.165317
    21  C   -0.175402
    22  C   -0.218271
    23  C   -0.171746
    24  C    0.159068
    25  C   -0.173720
    26  C   -0.226141
    27  H    0.224902
    28  H    0.222735
    29  H    0.275029
    30  H    0.275142
    31  H    0.238261
    32  N    0.488003
    33  O   -0.460765
    34  O   -0.460842
 Sum of Mulliken charges =  -0.00000

 Dipole moment (field-independent basis, Debye):
    X=              4.3382    Y=             -2.5698    Z=              2.0474  Tot=              5.4420
 Quadrupole moment (field-independent basis, Debye-Ang):
   XX=           -116.7920   YY=            -94.5405   ZZ=            -92.8389
   XY=              9.8983   XZ=             -8.7839   YZ=             -1.9715

 Normal termination of Gaussian 16 at Thu May  6 10:33:12 2021.
