 Gaussian 16, Revision A.03,
 Gaussian 16:  EM64L-G16RevA.03 25-Dec-2016

 -------------
 #p 6-31g* mp2
 -------------

 ------------------------------------------------------
 Input file generated by CHIRIPA (05-May-2021 14:53:14)
 ------------------------------------------------------
 Symbolic Z-matrix:
 Charge =  0 Multiplicity = 1

                         Standard orientation:
 ---------------------------------------------------------------------
 Center     Atomic      Atomic             Coordinates (Angstroms)
 Number     Number       Type             X           Y           Z
 ---------------------------------------------------------------------
      1          6           0        2.581992    0.198037   -0.557361
      2          6           0        3.059078   -0.970196    0.306123
      3          6           0        3.465772   -2.189689   -0.521665
      4          1           0        1.731796   -0.130777   -1.170545
      5          1           0        3.381763    0.478576   -1.256688
      6          1           0        2.259149   -1.247546    1.004554
      7          1           0        3.908114   -0.638509    0.917463
      8          1           0        4.280215   -1.935412   -1.207686
      9          1           0        2.621880   -2.547910   -1.120101
     10          1           0        3.803494   -3.012951    0.115550
     11          6           0        2.171935    1.424546    0.255815
     12          6           0        1.694848    2.592779   -0.607669
     13          6           0        1.288155    3.812272    0.220118
     14          1           0        1.372163    1.144007    0.955142
     15          1           0        3.022130    1.753360    0.868999
     16          1           0        0.845812    2.261092   -1.219009
     17          1           0        2.494778    2.870129   -1.306100
     18          1           0        2.132047    4.170493    0.818555
     19          1           0        0.473711    3.557995    0.906140
     20          1           0        0.950432    4.635535   -0.417096
     21          6           0       -0.394881   -2.657488    0.482345
     22          6           0       -0.462893   -1.658019    1.458541
     23          6           0       -1.269687   -0.532396    1.267223
     24          6           0       -1.998355   -0.438181    0.082548
     25          6           0       -1.951653   -1.417126   -0.908803
     26          6           0       -1.138168   -2.534068   -0.696134
     27          1           0        0.234456   -3.528527    0.639259
     28          1           0        0.113254   -1.751209    2.374737
     29          1           0       -1.340922    0.256228    2.006424
     30          1           0       -2.537571   -1.296210   -1.811853
     31          1           0       -1.087297   -3.308710   -1.455994
     32          7           0       -2.856014    0.748871   -0.131294
     33          8           0       -3.488191    0.808219   -1.183657
     34          8           0       -2.879830    1.597458    0.757508
 ---------------------------------------------------------------------

 SCF Done:  E(RHF) =  -669.534715795     A.U. after   15 cycles
 E2 =    -0.2095593029D+01 EUMP2 =    -0.67163030882442D+03

 The electronic state is 1-A.
 Alpha  occ. eigenvalues --  -20.60909 -20.60903 -15.85963 -11.31368 -11.27932
 Alpha  occ. eigenvalues --  -11.27929 -11.27659 -11.26953 -11.26935 -11.21957
 Alpha  occ. eigenvalues --  -11.21659 -11.21553 -11.21477 -11.21409 -11.20750
 Alpha  occ. eigenvalues --   -1.59981  -1.39534  -1.19549  -1.08944  -1.08552
 Alpha  occ. eigenvalues --   -1.04956  -1.03661  -0.96116  -0.95747  -0.87134
 Alpha  occ. eigenvalues --   -0.86347  -0.82584  -0.79754  -0.78370  -0.77620
 Alpha  occ. eigenvalues --   -0.72177  -0.71307  -0.70634  -0.65295  -0.65184
 Alpha  occ. eigenvalues --   -0.64922  -0.62293  -0.61077  -0.59524  -0.57708
 Alpha  occ. eigenvalues --   -0.55529  -0.55299  -0.53253  -0.53045  -0.52799
 Alpha  occ. eigenvalues --   -0.52538  -0.50059  -0.48940  -0.48931  -0.48055
 Alpha  occ. eigenvalues --   -0.46798  -0.45892  -0.45829  -0.44923  -0.43900
 Alpha  occ. eigenvalues --   -0.37451  -0.36461
 Alpha virt. eigenvalues --    0.04858   0.10940   0.16266   0.20350   0.23019
 Alpha virt. eigenvalues --    0.23833   0.25729   0.26646   0.27350   0.28311
 Alpha virt. eigenvalues --    0.29190   0.30381   0.31067   0.31567   0.31795

 Mulliken charges:
               1
     1  C   -0.297971
     2  C   -0.301118
     3  C   -0.477622
     4  H    0.152002
     5  H    0.149996
     6  H    0.148179
     7  H    0.151862
     8  H    0.159065
     9  H    0.150947
    10  H    0.155821
    11  C   -0.299700
    12  C   -0.299944
    13  C   -0.476856
    14  H    0.146396
    15  H    0.148356
    16  H    0.153539
    17  H    0.151116
    18  H    0.152092
    19  H    0.161062
    20  H    0.163285
    21  C   -0.167307
    22  C   -0.218801
    23  C   -0.171428
    24  C    0.158269
    25  C   -0.171126
    26  C   -0.219849
    27  H    0.228633
    28  H    0.225446
    29  H    0.276292
    30  H    0.276441
    31  H    0.224704
    32  N    0.488071
    33  O   -0.459633
    34  O   -0.460219
 Sum of Mulliken charges =  -0.00000

 Dipole moment (field-independent basis, Debye):
    X=              2.8496    Y=             -4.1400    Z=              0.7258  Tot=              5.0780
 Quadrupole moment (field-independent basis, Debye-Ang):
   XX=           -106.7665   YY=            -91.6119   ZZ=            -91.0278
   XY=              8.4563   XZ=              0.1602   YZ=              0.6577

 Normal termination of Gaussian 16 at Thu May  6 15:28:35 2021.
