 Gaussian 16, Revision A.03,
 Gaussian 16:  EM64L-G16RevA.03 25-Dec-2016

 -------------
 #p 6-31g* mp2
 -------------

 ------------------------------------------------------
 Input file generated by CHIRIPA (05-May-2021 14:55:21)
 ------------------------------------------------------
 Symbolic Z-matrix:
 Charge =  0 Multiplicity = 1

                         Standard orientation:
 ---------------------------------------------------------------------
 Center     Atomic      Atomic             Coordinates (Angstroms)
 Number     Number       Type             X           Y           Z
 ---------------------------------------------------------------------
      1          6           0       -0.851615   -1.298421    1.079875
      2          6           0       -0.881718   -0.989881   -0.284097
      3          6           0       -1.960179   -0.286953   -0.829406
      4          6           0       -2.996216    0.093709    0.022070
      5          6           0       -2.995219   -0.198802    1.385055
      6          6           0       -1.906602   -0.902594    1.908636
      7          1           0       -0.009896   -1.844808    1.495045
      8          1           0       -0.063795   -1.296017   -0.930106
      9          1           0       -2.009067   -0.034949   -1.881795
     10          1           0       -3.825253    0.119731    2.003923
     11          1           0       -1.885906   -1.140833    2.968287
     12          7           0       -4.143310    0.838325   -0.543723
     13          8           0       -5.043660    1.162409    0.227625
     14          8           0       -4.120333    1.083771   -1.747826
     15          6           0        4.154713    0.540627   -0.026804
     16          6           0        3.656299    1.976617    0.139031
     17          6           0        4.791408    2.972230    0.380016
     18          1           0        4.716401    0.248226    0.870945
     19          1           0        4.863243    0.500396   -0.865709
     20          1           0        2.947865    2.013862    0.976497
     21          1           0        3.095569    2.265567   -0.759138
     22          1           0        5.495115    2.964536   -0.458637
     23          1           0        5.346570    2.711401    1.286860
     24          1           0        4.412685    3.992541    0.495754
     25          6           0        3.031620   -0.466355   -0.268416
     26          6           0        3.530034   -1.902344   -0.434249
     27          6           0        2.394925   -2.897958   -0.675236
     28          1           0        2.323089   -0.426123    0.570489
     29          1           0        2.469932   -0.173954   -1.166165
     30          1           0        4.090764   -2.191295    0.463919
     31          1           0        4.238469   -1.939589   -1.271715
     32          1           0        1.839762   -2.637128   -1.582078
     33          1           0        1.691219   -2.890264    0.163417
     34          1           0        2.773648   -3.918268   -0.790973
 ---------------------------------------------------------------------

 SCF Done:  E(RHF) =  -669.534162544     A.U. after   15 cycles
 E2 =    -0.2093413790D+01 EUMP2 =    -0.67162757633386D+03

 The electronic state is 1-A.
 Alpha  occ. eigenvalues --  -20.60695 -20.60690 -15.85745 -11.31093 -11.27650
 Alpha  occ. eigenvalues --  -11.27618 -11.27368 -11.26683 -11.26552 -11.22711
 Alpha  occ. eigenvalues --  -11.22528 -11.22428 -11.22177 -11.22113 -11.21513
 Alpha  occ. eigenvalues --   -1.59770  -1.39325  -1.19251  -1.09353  -1.08651
 Alpha  occ. eigenvalues --   -1.04660  -1.04420  -0.96912  -0.95499  -0.87933
 Alpha  occ. eigenvalues --   -0.86055  -0.82330  -0.80529  -0.79123  -0.77362
 Alpha  occ. eigenvalues --   -0.71965  -0.71092  -0.70410  -0.65976  -0.64901
 Alpha  occ. eigenvalues --   -0.64689  -0.62051  -0.61827  -0.60243  -0.58491
 Alpha  occ. eigenvalues --   -0.56270  -0.55150  -0.53575  -0.53422  -0.52950
 Alpha  occ. eigenvalues --   -0.52701  -0.50861  -0.48843  -0.48723  -0.48648
 Alpha  occ. eigenvalues --   -0.47528  -0.46616  -0.46533  -0.44734  -0.44658
 Alpha  occ. eigenvalues --   -0.37221  -0.36235
 Alpha virt. eigenvalues --    0.05125   0.11335   0.16574   0.19472   0.22532
 Alpha virt. eigenvalues --    0.23846   0.24099   0.26017   0.26990   0.27624
 Alpha virt. eigenvalues --    0.29165   0.30355   0.30845   0.31641   0.32105

 Mulliken charges:
               1
     1  C   -0.178465
     2  C   -0.220217
     3  C   -0.173846
     4  C    0.158940
     5  C   -0.171571
     6  C   -0.218531
     7  H    0.227689
     8  H    0.234733
     9  H    0.275199
    10  H    0.275048
    11  H    0.222896
    12  N    0.488020
    13  O   -0.460760
    14  O   -0.460666
    15  C   -0.298766
    16  C   -0.300373
    17  C   -0.476380
    18  H    0.150836
    19  H    0.152022
    20  H    0.152882
    21  H    0.153692
    22  H    0.156184
    23  H    0.155408
    24  H    0.163023
    25  C   -0.302908
    26  C   -0.299565
    27  C   -0.483790
    28  H    0.147473
    29  H    0.148106
    30  H    0.154914
    31  H    0.157274
    32  H    0.153886
    33  H    0.148031
    34  H    0.169585
 Sum of Mulliken charges =  -0.00000

 Dipole moment (field-independent basis, Debye):
    X=              4.3170    Y=             -2.5974    Z=              1.9498  Tot=              5.4023
 Quadrupole moment (field-independent basis, Debye-Ang):
   XX=           -118.4425   YY=            -96.3608   ZZ=            -89.6974
   XY=              7.5446   XZ=             -8.4616   YZ=              0.1147

 Normal termination of Gaussian 16 at Thu May  6 12:28:22 2021.
