 Gaussian 16, Revision A.03,
 Gaussian 16:  EM64L-G16RevA.03 25-Dec-2016

 -------------
 #p 6-31g* mp2
 -------------

 ------------------------------------------------------
 Input file generated by CHIRIPA (05-May-2021 14:51:08)
 ------------------------------------------------------
 Symbolic Z-matrix:
 Charge =  0 Multiplicity = 1

                         Standard orientation:
 ---------------------------------------------------------------------
 Center     Atomic      Atomic             Coordinates (Angstroms)
 Number     Number       Type             X           Y           Z
 ---------------------------------------------------------------------
      1          6           0        4.356753    0.254363    0.070340
      2          6           0        5.398513   -0.824868   -0.226280
      3          6           0        6.829606   -0.287014   -0.204410
      4          1           0        4.457013    1.063908   -0.665548
      5          1           0        4.567872    0.697625    1.053367
      6          1           0        5.184672   -1.266919   -1.207850
      7          1           0        5.295635   -1.632027    0.510283
      8          1           0        7.067008    0.136550    0.776832
      9          1           0        6.955414    0.503733   -0.951064
     10          1           0        7.558036   -1.075192   -0.418945
     11          6           0        2.921276   -0.267937    0.052058
     12          6           0        1.879517    0.811294    0.348678
     13          6           0        0.448423    0.273440    0.326807
     14          1           0        2.710157   -0.711199   -0.930970
     15          1           0        2.821016   -1.077482    0.787945
     16          1           0        1.982394    1.618453   -0.387886
     17          1           0        2.093357    1.253344    1.330247
     18          1           0        0.322615   -0.517307    1.073461
     19          1           0        0.211021   -0.150124   -0.654434
     20          1           0       -0.280006    1.061618    0.541342
     21          6           0       -4.105964   -0.593947   -0.128344
     22          6           0       -3.405754   -1.934410    0.097159
     23          6           0       -4.353005   -3.126700   -0.040520
     24          1           0       -4.931261   -0.493224    0.589769
     25          1           0       -4.559963   -0.589103   -1.128971
     26          1           0       -2.952030   -1.936197    1.096532
     27          1           0       -2.581908   -2.031869   -0.621448
     28          1           0       -4.796319   -3.152965   -1.041211
     29          1           0       -5.168544   -3.056749    0.686530
     30          1           0       -3.831696   -4.074771    0.124588
     31          6           0       -3.172065    0.607522    0.005947
     32          6           0       -3.872275    1.947984   -0.219556
     33          6           0       -2.925025    3.140274   -0.081877
     34          1           0       -2.718066    0.602677    1.006574
     35          1           0       -2.346769    0.506799   -0.712166
     36          1           0       -4.696122    2.045443    0.499051
     37          1           0       -4.325999    1.949770   -1.218929
     38          1           0       -2.109485    3.070323   -0.808928
     39          1           0       -2.481710    3.166540    0.918814
     40          1           0       -3.446333    4.088344   -0.246986
 ---------------------------------------------------------------------

 SCF Done:  E(RHF) =  -470.731969192     A.U. after   11 cycles
 E2 =    -0.1583730201D+01 EUMP2 =    -0.47231569939292D+03

 The electronic state is 1-A.
 Alpha  occ. eigenvalues --  -11.21579 -11.21558 -11.21537 -11.21517 -11.21366
 Alpha  occ. eigenvalues --  -11.21310 -11.21305 -11.21210 -11.21090 -11.21055
 Alpha  occ. eigenvalues --  -11.21028 -11.20915  -1.08407  -1.08350  -1.03514
 Alpha  occ. eigenvalues --   -1.03459  -0.95988  -0.95886  -0.87031  -0.86892
 Alpha  occ. eigenvalues --   -0.79661  -0.79490  -0.78270  -0.78069  -0.65062
 Alpha  occ. eigenvalues --   -0.64964  -0.60917  -0.60856  -0.59512  -0.59138
 Alpha  occ. eigenvalues --   -0.57556  -0.57530  -0.55310  -0.55149  -0.52842
 Alpha  occ. eigenvalues --   -0.52599  -0.52354  -0.52244  -0.49965  -0.49813
 Alpha  occ. eigenvalues --   -0.47975  -0.47738  -0.46650  -0.46555  -0.45856
 Alpha  occ. eigenvalues --   -0.45717  -0.45660  -0.45496  -0.43739  -0.43559
 Alpha virt. eigenvalues --    0.21786   0.23074   0.23455   0.24724   0.25721
 Alpha virt. eigenvalues --    0.26245   0.26930   0.27262   0.27892   0.29840
 Alpha virt. eigenvalues --    0.30638   0.31324   0.31634   0.31747   0.32322

 Mulliken charges:
               1
     1  C   -0.298124
     2  C   -0.299550
     3  C   -0.475662
     4  H    0.149491
     5  H    0.149424
     6  H    0.151784
     7  H    0.151862
     8  H    0.155145
     9  H    0.155122
    10  H    0.160149
    11  C   -0.298440
    12  C   -0.300371
    13  C   -0.478757
    14  H    0.149086
    15  H    0.149443
    16  H    0.151276
    17  H    0.151344
    18  H    0.154435
    19  H    0.153244
    20  H    0.168479
    21  C   -0.297876
    22  C   -0.299728
    23  C   -0.475669
    24  H    0.148907
    25  H    0.148771
    26  H    0.151925
    27  H    0.152447
    28  H    0.154947
    29  H    0.155004
    30  H    0.160035
    31  C   -0.302679
    32  C   -0.298875
    33  C   -0.477545
    34  H    0.150588
    35  H    0.156321
    36  H    0.151442
    37  H    0.151454
    38  H    0.155754
    39  H    0.154810
    40  H    0.160589
 Sum of Mulliken charges =  -0.00000

 Dipole moment (field-independent basis, Debye):
    X=             -0.0203    Y=              0.0107    Z=              0.0017  Tot=              0.0230
 Quadrupole moment (field-independent basis, Debye-Ang):
   XX=            -86.5580   YY=            -85.8048   ZZ=            -82.7578
   XY=             -0.8516   XZ=             -0.1653   YZ=             -0.2306

 Normal termination of Gaussian 16 at Thu May  6 02:06:14 2021.
