 Gaussian 16, Revision A.03,
 Gaussian 16:  EM64L-G16RevA.03 25-Dec-2016

 -------------
 #p 6-31g* mp2
 -------------

 ------------------------------------------------------
 Input file generated by CHIRIPA (05-May-2021 14:57:22)
 ------------------------------------------------------
 Symbolic Z-matrix:
 Charge =  0 Multiplicity = 1

                         Standard orientation:
 ---------------------------------------------------------------------
 Center     Atomic      Atomic             Coordinates (Angstroms)
 Number     Number       Type             X           Y           Z
 ---------------------------------------------------------------------
      1          6           0       -1.679782    2.141503   -0.936550
      2          6           0       -1.041355    0.922692   -1.188406
      3          6           0       -1.663688   -0.285720   -0.861312
      4          6           0       -2.930264   -0.238157   -0.280955
      5          6           0       -3.592161    0.960106   -0.017616
      6          6           0       -2.950907    2.156294   -0.352988
      7          1           0       -1.188990    3.075479   -1.193860
      8          1           0       -0.054172    0.908169   -1.641510
      9          1           0       -1.192219   -1.243462   -1.045339
     10          1           0       -4.576115    0.942592    0.435095
     11          1           0       -3.449105    3.101353   -0.156246
     12          7           0       -3.599115   -1.510978    0.069707
     13          8           0       -4.715071   -1.442065    0.580128
     14          8           0       -2.994740   -2.553427   -0.172506
     15          6           0        1.276398    1.278991    1.894095
     16          6           0        1.729893    1.887678    0.719206
     17          6           0        2.585445    1.204203   -0.149955
     18          6           0        2.969261   -0.092524    0.188384
     19          6           0        2.534483   -0.726047    1.351528
     20          6           0        1.679430   -0.023633    2.205956
     21          1           0        0.611979    1.817287    2.563556
     22          1           0        1.418534    2.899212    0.474456
     23          1           0        2.951570    1.651541   -1.066066
     24          1           0        2.862145   -1.735473    1.568588
     25          1           0        1.328817   -0.498852    3.117703
     26          7           0        3.874732   -0.826114   -0.723960
     27          8           0        4.198282   -1.967621   -0.403156
     28          8           0        4.243744   -0.245703   -1.742582
 ---------------------------------------------------------------------

 SCF Done:  E(RHF) =  -868.336124452     A.U. after   16 cycles
 E2 =    -0.2602986372D+01 EUMP2 =    -0.87093911082404D+03

 The electronic state is 1-A.
 Alpha  occ. eigenvalues --  -20.61348 -20.61324 -20.61095 -20.61084 -15.86396
 Alpha  occ. eigenvalues --  -15.86143 -11.31869 -11.31569 -11.28457 -11.28345
 Alpha  occ. eigenvalues --  -11.28120 -11.28093 -11.28035 -11.27910 -11.27504
 Alpha  occ. eigenvalues --  -11.27350 -11.27223 -11.27085  -1.60416  -1.60167
 Alpha  occ. eigenvalues --   -1.39965  -1.39718  -1.20035  -1.19730  -1.09390
 Alpha  occ. eigenvalues --   -1.09137  -1.05462  -1.05112  -0.96206  -0.95965
 Alpha  occ. eigenvalues --   -0.86828  -0.86532  -0.83041  -0.82779  -0.78096
 Alpha  occ. eigenvalues --   -0.77803  -0.72601  -0.72358  -0.71754  -0.71495
 Alpha  occ. eigenvalues --   -0.71081  -0.70883  -0.65667  -0.65466  -0.65353
 Alpha  occ. eigenvalues --   -0.65143  -0.62787  -0.62468  -0.55882  -0.55699
 Alpha  occ. eigenvalues --   -0.54155  -0.53528  -0.53309  -0.52980  -0.49374
 Alpha  occ. eigenvalues --   -0.49355  -0.49123  -0.49111  -0.45347  -0.45109
 Alpha  occ. eigenvalues --   -0.38352  -0.37699  -0.37084  -0.36296
 Alpha virt. eigenvalues --    0.04419   0.04674   0.10169   0.11296   0.15902
 Alpha virt. eigenvalues --    0.16115   0.19834   0.21689   0.25716   0.26710
 Alpha virt. eigenvalues --    0.27885   0.28522   0.29724   0.31349   0.32309

 Mulliken charges:
               1
     1  C   -0.178166
     2  C   -0.209610
     3  C   -0.173724
     4  C    0.158222
     5  C   -0.173234
     6  C   -0.219416
     7  H    0.220004
     8  H    0.227026
     9  H    0.278279
    10  H    0.275691
    11  H    0.222726
    12  N    0.487553
    13  O   -0.460422
    14  O   -0.458436
    15  C   -0.166122
    16  C   -0.215115
    17  C   -0.183572
    18  C    0.158238
    19  C   -0.171091
    20  C   -0.217547
    21  H    0.228062
    22  H    0.218308
    23  H    0.273799
    24  H    0.279604
    25  H    0.228794
    26  N    0.487730
    27  O   -0.456135
    28  O   -0.461447
 Sum of Mulliken charges =  -0.00000

 Dipole moment (field-independent basis, Debye):
    X=             -0.7484    Y=              6.8508    Z=              2.1571  Tot=              7.2213
 Quadrupole moment (field-independent basis, Debye-Ang):
   XX=           -135.6865   YY=           -103.9919   ZZ=           -101.2297
   XY=             -8.1408   XZ=             10.5973   YZ=             -2.4704

 Normal termination of Gaussian 16 at Thu May  6 01:44:52 2021.
