 Gaussian 16, Revision A.03,
 Gaussian 16:  EM64L-G16RevA.03 25-Dec-2016

 -------------
 #p 6-31g* mp2
 -------------

 ------------------------------------------------------
 Input file generated by CHIRIPA (05-May-2021 14:57:24)
 ------------------------------------------------------
 Symbolic Z-matrix:
 Charge =  0 Multiplicity = 1

                         Standard orientation:
 ---------------------------------------------------------------------
 Center     Atomic      Atomic             Coordinates (Angstroms)
 Number     Number       Type             X           Y           Z
 ---------------------------------------------------------------------
      1          6           0       -2.862224    2.519967   -0.532654
      2          6           0       -2.975528    2.148658    0.811151
      3          6           0       -3.023887    0.799176    1.173241
      4          6           0       -2.956183   -0.157003    0.161101
      5          6           0       -2.843044    0.181283   -1.186509
      6          6           0       -2.796460    1.536828   -1.525445
      7          1           0       -2.825347    3.570631   -0.804941
      8          1           0       -3.026804    2.910017    1.584293
      9          1           0       -3.111382    0.483787    2.205855
     10          1           0       -2.794056   -0.600430   -1.934802
     11          1           0       -2.708443    1.822263   -2.569871
     12          7           0       -3.006438   -1.588848    0.532173
     13          8           0       -2.944996   -2.412033   -0.378447
     14          8           0       -3.106320   -1.860830    1.726612
     15          6           0        5.317509    0.486168    0.556931
     16          6           0        5.022159   -0.768095    0.012768
     17          6           0        3.712782   -1.092112   -0.354782
     18          6           0        2.718815   -0.133619   -0.163448
     19          6           0        2.981461    1.124576    0.376231
     20          6           0        4.298014    1.426842    0.736608
     21          1           0        6.337451    0.729424    0.839667
     22          1           0        5.811898   -1.500603   -0.127911
     23          1           0        3.456236   -2.055585   -0.778248
     24          1           0        2.172985    1.834041    0.504463
     25          1           0        4.524462    2.401710    1.158982
     26          7           0        1.328837   -0.465128   -0.548760
     27          8           0        0.471071    0.396811   -0.370059
     28          8           0        1.123460   -1.580627   -1.022173
 ---------------------------------------------------------------------

 SCF Done:  E(RHF) =  -868.337227305     A.U. after   16 cycles
 E2 =    -0.2601009876D+01 EUMP2 =    -0.87093823718080D+03

 The electronic state is 1-A.
 Alpha  occ. eigenvalues --  -20.60899 -20.60863 -20.59346 -20.59288 -15.85912
 Alpha  occ. eigenvalues --  -15.84366 -11.31278 -11.29573 -11.27876 -11.27820
 Alpha  occ. eigenvalues --  -11.27593 -11.26882 -11.26841 -11.26299 -11.26162
 Alpha  occ. eigenvalues --  -11.26095 -11.25355 -11.25233  -1.59959  -1.58385
 Alpha  occ. eigenvalues --   -1.39508  -1.37948  -1.19453  -1.17789  -1.08850
 Alpha  occ. eigenvalues --   -1.07255  -1.04856  -1.03237  -0.95686  -0.94110
 Alpha  occ. eigenvalues --   -0.86254  -0.84675  -0.82515  -0.80977  -0.77566
 Alpha  occ. eigenvalues --   -0.76001  -0.72141  -0.71277  -0.70623  -0.70562
 Alpha  occ. eigenvalues --   -0.69668  -0.69049  -0.65107  -0.64862  -0.63524
 Alpha  occ. eigenvalues --   -0.63342  -0.62205  -0.60639  -0.55363  -0.53861
 Alpha  occ. eigenvalues --   -0.53185  -0.52953  -0.51580  -0.51415  -0.48893
 Alpha  occ. eigenvalues --   -0.48791  -0.47375  -0.47353  -0.44919  -0.43387
 Alpha  occ. eigenvalues --   -0.37436  -0.36460  -0.35758  -0.34741
 Alpha virt. eigenvalues --    0.04961   0.06585   0.11196   0.12856   0.16449
 Alpha virt. eigenvalues --    0.18069   0.21330   0.22637   0.27231   0.28228
 Alpha virt. eigenvalues --    0.28517   0.29543   0.30880   0.32087   0.32448

 Mulliken charges:
               1
     1  C   -0.169801
     2  C   -0.218836
     3  C   -0.170155
     4  C    0.169060
     5  C   -0.151624
     6  C   -0.213959
     7  H    0.217310
     8  H    0.214621
     9  H    0.269218
    10  H    0.274473
    11  H    0.216819
    12  N    0.488287
    13  O   -0.458219
    14  O   -0.469119
    15  C   -0.170669
    16  C   -0.218497
    17  C   -0.170254
    18  C    0.158466
    19  C   -0.171260
    20  C   -0.218465
    21  H    0.225811
    22  H    0.224415
    23  H    0.277792
    24  H    0.273291
    25  H    0.222480
    26  N    0.488268
    27  O   -0.464796
    28  O   -0.454659
 Sum of Mulliken charges =  -0.00000

 Dipole moment (field-independent basis, Debye):
    X=              5.3789    Y=              5.9559    Z=             -0.1458  Tot=              8.0266
 Quadrupole moment (field-independent basis, Debye-Ang):
   XX=            -80.9819   YY=           -103.6465   ZZ=           -101.7230
   XY=            -13.8283   XZ=              6.4465   YZ=              3.8148

 Normal termination of Gaussian 16 at Wed May  5 21:05:56 2021.
