 Gaussian 16, Revision A.03,
 Gaussian 16:  EM64L-G16RevA.03 25-Dec-2016

 -------------
 #p 6-31g* mp2
 -------------

 ------------------------------------------------------
 Input file generated by CHIRIPA (05-May-2021 14:57:23)
 ------------------------------------------------------
 Symbolic Z-matrix:
 Charge =  0 Multiplicity = 1

                         Standard orientation:
 ---------------------------------------------------------------------
 Center     Atomic      Atomic             Coordinates (Angstroms)
 Number     Number       Type             X           Y           Z
 ---------------------------------------------------------------------
      1          6           0       -5.257264    1.145332   -0.577614
      2          6           0       -4.058537    1.428181   -1.240615
      3          6           0       -2.907172    0.680686   -0.975740
      4          6           0       -2.990683   -0.347104   -0.037676
      5          6           0       -4.170213   -0.653217    0.639298
      6          6           0       -5.309185    0.107366    0.358576
      7          1           0       -6.146858    1.731087   -0.789530
      8          1           0       -4.015275    2.233690   -1.968164
      9          1           0       -1.966106    0.878213   -1.474534
     10          1           0       -4.182366   -1.462389    1.359375
     11          1           0       -6.238764   -0.114546    0.874989
     12          7           0       -1.778344   -1.145371    0.251124
     13          8           0       -1.878066   -2.045621    1.081932
     14          8           0       -0.751347   -0.855688   -0.358792
     15          6           0        2.767009    2.563880    0.904958
     16          6           0        3.670984    2.339025   -0.138492
     17          6           0        3.913422    1.042072   -0.600754
     18          6           0        3.231432   -0.011489    0.006029
     19          6           0        2.324866    0.180285    1.047496
     20          6           0        2.098016    1.485693    1.493585
     21          1           0        2.584731    3.574669    1.257774
     22          1           0        4.191963    3.174448   -0.597507
     23          1           0        4.608032    0.839537   -1.406927
     24          1           0        1.820591   -0.672643    1.485260
     25          1           0        1.395429    1.657336    2.304115
     26          7           0        3.479839   -1.388990   -0.474786
     27          8           0        2.866288   -2.300179    0.076511
     28          8           0        4.283389   -1.531404   -1.393841
 ---------------------------------------------------------------------

 SCF Done:  E(RHF) =  -868.337557285     A.U. after   16 cycles
 E2 =    -0.2599974927D+01 EUMP2 =    -0.87093753221210D+03

 The electronic state is 1-A.
 Alpha  occ. eigenvalues --  -20.61004 -20.60993 -20.59601 -20.59515 -15.86037
 Alpha  occ. eigenvalues --  -15.84618 -11.31412 -11.30085 -11.27980 -11.27974
 Alpha  occ. eigenvalues --  -11.27723 -11.26997 -11.26984 -11.26811 -11.26625
 Alpha  occ. eigenvalues --  -11.26612 -11.25860 -11.25763  -1.60070  -1.58631
 Alpha  occ. eigenvalues --   -1.39621  -1.38178  -1.19586  -1.18326  -1.08979
 Alpha  occ. eigenvalues --   -1.07724  -1.04987  -1.03756  -0.95810  -0.94523
 Alpha  occ. eigenvalues --   -0.86383  -0.85156  -0.82639  -0.81360  -0.77687
 Alpha  occ. eigenvalues --   -0.76352  -0.72251  -0.71406  -0.70849  -0.70687
 Alpha  occ. eigenvalues --   -0.69941  -0.69474  -0.65236  -0.64985  -0.63997
 Alpha  occ. eigenvalues --   -0.63796  -0.62330  -0.61089  -0.55485  -0.54331
 Alpha  occ. eigenvalues --   -0.53322  -0.53075  -0.52084  -0.51871  -0.49002
 Alpha  occ. eigenvalues --   -0.48996  -0.47633  -0.47571  -0.45023  -0.43557
 Alpha  occ. eigenvalues --   -0.37572  -0.36594  -0.36365  -0.35328
 Alpha virt. eigenvalues --    0.04806   0.06217   0.11061   0.12307   0.16326
 Alpha virt. eigenvalues --    0.17616   0.21217   0.22271   0.27126   0.28083
 Alpha virt. eigenvalues --    0.28191   0.29236   0.30782   0.31769   0.32344

 Mulliken charges:
               1
     1  C   -0.170824
     2  C   -0.218809
     3  C   -0.171671
     4  C    0.157468
     5  C   -0.171217
     6  C   -0.218654
     7  H    0.226068
     8  H    0.223568
     9  H    0.276348
    10  H    0.276361
    11  H    0.224138
    12  N    0.486801
    13  O   -0.458100
    14  O   -0.459600
    15  C   -0.172262
    16  C   -0.220814
    17  C   -0.171882
    18  C    0.156185
    19  C   -0.154690
    20  C   -0.222950
    21  H    0.219747
    22  H    0.218132
    23  H    0.272422
    24  H    0.286082
    25  H    0.218970
    26  N    0.488456
    27  O   -0.451036
    28  O   -0.468235
 Sum of Mulliken charges =  -0.00000

 Dipole moment (field-independent basis, Debye):
    X=             -5.4526    Y=              7.3499    Z=              0.7191  Tot=              9.1798
 Quadrupole moment (field-independent basis, Debye-Ang):
   XX=            -83.3894   YY=           -106.3032   ZZ=           -101.3348
   XY=             10.9815   XZ=              4.4846   YZ=             -3.5033

 Normal termination of Gaussian 16 at Wed May  5 21:03:21 2021.
