 Gaussian 16, Revision A.03,
 Gaussian 16:  EM64L-G16RevA.03 25-Dec-2016

 -------------
 #p 6-31g* mp2
 -------------

 ------------------------------------------------------
 Input file generated by CHIRIPA (05-May-2021 14:51:08)
 ------------------------------------------------------
 Symbolic Z-matrix:
 Charge =  0 Multiplicity = 1

                         Standard orientation:
 ---------------------------------------------------------------------
 Center     Atomic      Atomic             Coordinates (Angstroms)
 Number     Number       Type             X           Y           Z
 ---------------------------------------------------------------------
      1          6           0        2.932397    0.669980   -0.185620
      2          6           0        2.596553    2.067517    0.335997
      3          6           0        1.123617    2.431165    0.146222
      4          1           0        2.673158    0.611310   -1.251593
      5          1           0        2.302236   -0.067616    0.330368
      6          1           0        3.228136    2.802120   -0.179829
      7          1           0        2.856800    2.122927    1.400806
      8          1           0        0.480165    1.720708    0.675203
      9          1           0        0.853610    2.403761   -0.914413
     10          1           0        0.905581    3.434204    0.526001
     11          6           0        4.401233    0.291969   -0.002979
     12          6           0        4.737077   -1.105568   -0.524597
     13          6           0        6.210013   -1.469216   -0.334821
     14          1           0        5.031395    1.029565   -0.518967
     15          1           0        4.660472    0.350640    1.062993
     16          1           0        4.476830   -1.160978   -1.589405
     17          1           0        4.105495   -1.840171   -0.008771
     18          1           0        6.480020   -1.441811    0.725813
     19          1           0        6.853466   -0.758759   -0.863802
     20          1           0        6.428049   -2.472255   -0.714601
     21          6           0       -2.930696   -0.292923    0.173024
     22          6           0       -2.047755   -1.465517    0.601307
     23          6           0       -0.577832   -1.073564    0.754583
     24          1           0       -2.556549    0.111514   -0.777444
     25          1           0       -2.840739    0.514222    0.913174
     26          1           0       -2.140421   -2.270751   -0.138712
     27          1           0       -2.424163   -1.867332    1.550769
     28          1           0       -0.465427   -0.286774    1.507529
     29          1           0       -0.180074   -0.692487   -0.191551
     30          1           0        0.035279   -1.926732    1.061275
     31          6           0       -4.402934   -0.669026    0.015576
     32          6           0       -5.285875    0.503568   -0.412707
     33          6           0       -6.755798    0.111615   -0.565983
     34          1           0       -4.492891   -1.476171   -0.724574
     35          1           0       -4.777080   -1.073464    0.966043
     36          1           0       -4.909467    0.905382   -1.362170
     37          1           0       -5.193209    1.308802    0.327311
     38          1           0       -7.153556   -0.269463    0.380150
     39          1           0       -6.868203   -0.675175   -1.318929
     40          1           0       -7.368909    0.964782   -0.872675
 ---------------------------------------------------------------------

 SCF Done:  E(RHF) =  -470.732233590     A.U. after   11 cycles
 E2 =    -0.1583705845D+01 EUMP2 =    -0.47231593943516D+03

 The electronic state is 1-A.
 Alpha  occ. eigenvalues --  -11.21620 -11.21596 -11.21551 -11.21496 -11.21409
 Alpha  occ. eigenvalues --  -11.21349 -11.21312 -11.21227 -11.21100 -11.21068
 Alpha  occ. eigenvalues --  -11.21034 -11.20887  -1.08444  -1.08340  -1.03568
 Alpha  occ. eigenvalues --   -1.03430  -0.96014  -0.95886  -0.87040  -0.86907
 Alpha  occ. eigenvalues --   -0.79722  -0.79437  -0.78296  -0.78091  -0.65069
 Alpha  occ. eigenvalues --   -0.64979  -0.60970  -0.60847  -0.59396  -0.59266
 Alpha  occ. eigenvalues --   -0.57710  -0.57418  -0.55372  -0.55113  -0.52730
 Alpha  occ. eigenvalues --   -0.52610  -0.52506  -0.52238  -0.50031  -0.49754
 Alpha  occ. eigenvalues --   -0.48195  -0.47626  -0.46666  -0.46501  -0.45938
 Alpha  occ. eigenvalues --   -0.45722  -0.45650  -0.45317  -0.43785  -0.43694
 Alpha virt. eigenvalues --    0.22028   0.22963   0.23631   0.24857   0.25848
 Alpha virt. eigenvalues --    0.26344   0.26952   0.27322   0.28175   0.29460
 Alpha virt. eigenvalues --    0.29970   0.31402   0.31681   0.31875   0.32187

 Mulliken charges:
               1
     1  C   -0.305334
     2  C   -0.298648
     3  C   -0.481872
     4  H    0.147952
     5  H    0.159830
     6  H    0.151149
     7  H    0.150989
     8  H    0.163492
     9  H    0.153421
    10  H    0.158830
    11  C   -0.297874
    12  C   -0.299483
    13  C   -0.475627
    14  H    0.149127
    15  H    0.149301
    16  H    0.151629
    17  H    0.151754
    18  H    0.155077
    19  H    0.155104
    20  H    0.159991
    21  C   -0.298713
    22  C   -0.300808
    23  C   -0.479939
    24  H    0.150370
    25  H    0.149634
    26  H    0.152091
    27  H    0.151693
    28  H    0.156232
    29  H    0.160865
    30  H    0.159533
    31  C   -0.298250
    32  C   -0.299632
    33  C   -0.475723
    34  H    0.149521
    35  H    0.149581
    36  H    0.152081
    37  H    0.152084
    38  H    0.155135
    39  H    0.155143
    40  H    0.160295
 Sum of Mulliken charges =  -0.00000

 Dipole moment (field-independent basis, Debye):
    X=             -0.0512    Y=             -0.0405    Z=              0.0093  Tot=              0.0660
 Quadrupole moment (field-independent basis, Debye-Ang):
   XX=            -87.2204   YY=            -84.9605   ZZ=            -82.9866
   XY=              0.2294   XZ=             -0.5520   YZ=             -0.1011

 Normal termination of Gaussian 16 at Wed May  5 19:41:04 2021.
