 Gaussian 16, Revision A.03,
 Gaussian 16:  EM64L-G16RevA.03 25-Dec-2016

 -------------
 #p 6-31g* mp2
 -------------

 ------------------------------------------------------
 Input file generated by CHIRIPA (05-May-2021 14:51:11)
 ------------------------------------------------------
 Symbolic Z-matrix:
 Charge =  0 Multiplicity = 1

                         Standard orientation:
 ---------------------------------------------------------------------
 Center     Atomic      Atomic             Coordinates (Angstroms)
 Number     Number       Type             X           Y           Z
 ---------------------------------------------------------------------
      1          6           0        2.336912    0.036096   -0.758164
      2          6           0        3.285438   -1.141986   -0.533655
      3          6           0        3.050299   -2.286510   -1.519845
      4          1           0        1.299487   -0.315386   -0.673581
      5          1           0        2.458994    0.405436   -1.785821
      6          1           0        3.162595   -1.508112    0.493709
      7          1           0        4.320729   -0.787620   -0.618594
      8          1           0        3.192549   -1.943070   -2.549610
      9          1           0        2.027835   -2.667655   -1.430987
     10          1           0        3.739078   -3.118129   -1.341366
     11          6           0        2.559676    1.188160    0.220025
     12          6           0        1.611149    2.366242   -0.004485
     13          6           0        1.846288    3.510765    0.981705
     14          1           0        2.437594    0.818820    1.247681
     15          1           0        3.597101    1.539642    0.135441
     16          1           0        0.575859    2.011876    0.080454
     17          1           0        1.733993    2.732367   -1.031849
     18          1           0        2.868753    3.891911    0.892847
     19          1           0        1.704039    3.167326    2.011470
     20          1           0        1.157510    4.342384    0.803226
     21          6           0       -3.055637   -0.148990    0.277381
     22          6           0       -3.546983    0.231788   -1.119606
     23          6           0       -4.762548    1.158663   -1.086466
     24          1           0       -3.873654   -0.634245    0.827218
     25          1           0       -2.805397    0.765727    0.832420
     26          1           0       -3.794911   -0.683445   -1.672324
     27          1           0       -2.727644    0.716021   -1.666248
     28          1           0       -4.524327    2.087694   -0.558495
     29          1           0       -5.597658    0.680277   -0.564604
     30          1           0       -5.097136    1.418210   -2.095697
     31          6           0       -1.840951   -1.075267    0.260760
     32          6           0       -1.349604   -1.456044    1.657746
     33          6           0       -0.134040   -2.382918    1.624606
     34          1           0       -2.091191   -1.989984   -0.294279
     35          1           0       -1.022934   -0.590011   -0.289077
     36          1           0       -2.168945   -1.940276    2.204388
     37          1           0       -1.101678   -0.540811    2.210464
     38          1           0        0.701070   -1.904532    1.102745
     39          1           0       -0.372261   -3.311949    1.096635
     40          1           0        0.200548   -2.642465    2.633837
 ---------------------------------------------------------------------

 SCF Done:  E(RHF) =  -470.732558160     A.U. after   11 cycles
 E2 =    -0.1585033863D+01 EUMP2 =    -0.47231759202209D+03

 The electronic state is 1-A.
 Alpha  occ. eigenvalues --  -11.21674 -11.21669 -11.21623 -11.21607 -11.21455
 Alpha  occ. eigenvalues --  -11.21444 -11.21394 -11.21374 -11.21125 -11.21114
 Alpha  occ. eigenvalues --  -11.21085 -11.21045  -1.08532  -1.08436  -1.03607
 Alpha  occ. eigenvalues --   -1.03536  -0.96029  -0.96008  -0.87055  -0.87018
 Alpha  occ. eigenvalues --   -0.79646  -0.79626  -0.78421  -0.78183  -0.65493
 Alpha  occ. eigenvalues --   -0.64817  -0.61157  -0.60801  -0.59416  -0.59350
 Alpha  occ. eigenvalues --   -0.57653  -0.57595  -0.55316  -0.55301  -0.52721
 Alpha  occ. eigenvalues --   -0.52698  -0.52491  -0.52387  -0.50073  -0.49880
 Alpha  occ. eigenvalues --   -0.48074  -0.47850  -0.46762  -0.46672  -0.46296
 Alpha  occ. eigenvalues --   -0.45800  -0.45763  -0.45110  -0.43829  -0.43816
 Alpha virt. eigenvalues --    0.19334   0.22165   0.24178   0.24622   0.25356
 Alpha virt. eigenvalues --    0.26477   0.27166   0.27726   0.28397   0.30276
 Alpha virt. eigenvalues --    0.31111   0.31430   0.31664   0.31897   0.32259

 Mulliken charges:
               1
     1  C   -0.310225
     2  C   -0.301974
     3  C   -0.476739
     4  H    0.158672
     5  H    0.150427
     6  H    0.153438
     7  H    0.152809
     8  H    0.155006
     9  H    0.156817
    10  H    0.160423
    11  C   -0.298259
    12  C   -0.301190
    13  C   -0.475729
    14  H    0.149677
    15  H    0.150297
    16  H    0.151925
    17  H    0.152261
    18  H    0.155604
    19  H    0.155253
    20  H    0.160319
    21  C   -0.297795
    22  C   -0.299956
    23  C   -0.475749
    24  H    0.149961
    25  H    0.149451
    26  H    0.152061
    27  H    0.152430
    28  H    0.155269
    29  H    0.155185
    30  H    0.160421
    31  C   -0.307863
    32  C   -0.299281
    33  C   -0.485302
    34  H    0.149811
    35  H    0.157519
    36  H    0.152532
    37  H    0.151440
    38  H    0.165056
    39  H    0.155535
    40  H    0.160464
 Sum of Mulliken charges =  -0.00000

 Dipole moment (field-independent basis, Debye):
    X=              0.0030    Y=             -0.0040    Z=             -0.0093  Tot=              0.0106
 Quadrupole moment (field-independent basis, Debye-Ang):
   XX=            -84.6563   YY=            -85.1860   ZZ=            -84.8090
   XY=              1.3532   XZ=             -0.5655   YZ=             -0.7505

 Normal termination of Gaussian 16 at Wed May  5 16:45:16 2021.
