 Gaussian 16, Revision A.03,
 Gaussian 16:  EM64L-G16RevA.03 25-Dec-2016

 -------------
 #p 6-31g* mp2
 -------------

 ------------------------------------------------------
 Input file generated by CHIRIPA (05-May-2021 14:51:13)
 ------------------------------------------------------
 Symbolic Z-matrix:
 Charge =  0 Multiplicity = 1

                         Standard orientation:
 ---------------------------------------------------------------------
 Center     Atomic      Atomic             Coordinates (Angstroms)
 Number     Number       Type             X           Y           Z
 ---------------------------------------------------------------------
      1          6           0        3.326965   -0.072003    0.012467
      2          6           0        4.448578   -0.094583   -1.026504
      3          6           0        5.231571    1.217622   -1.079742
      4          1           0        2.642030    0.756382   -0.214659
      5          1           0        3.756781    0.139959    1.001266
      6          1           0        4.016947   -0.307810   -2.012833
      7          1           0        5.130818   -0.923128   -0.796990
      8          1           0        5.688907    1.433007   -0.108632
      9          1           0        4.568707    2.051822   -1.331383
     10          1           0        6.028419    1.179531   -1.829036
     11          6           0        2.535122   -1.376793    0.077565
     12          6           0        1.413510   -1.354214    1.116536
     13          6           0        0.630517   -2.666418    1.169774
     14          1           0        2.105307   -1.588756   -0.911235
     15          1           0        3.220058   -2.205178    0.304691
     16          1           0        0.731270   -0.525668    0.887022
     17          1           0        1.845141   -1.140986    2.102865
     18          1           0        1.293381   -3.500618    1.421415
     19          1           0        0.173181   -2.881803    0.198664
     20          1           0       -0.166332   -2.628327    1.919068
     21          6           0       -3.413276    0.140627    0.055466
     22          6           0       -4.175175   -0.241869   -1.213860
     23          6           0       -5.135965   -1.411310   -0.996868
     24          1           0       -2.853949   -0.733066    0.417071
     25          1           0       -4.134064    0.398473    0.843740
     26          1           0       -3.453140   -0.497582   -1.999921
     27          1           0       -4.732602    0.632890   -1.572592
     28          1           0       -5.878355   -1.163034   -0.231481
     29          1           0       -4.591623   -2.299930   -0.661237
     30          1           0       -5.670134   -1.668071   -1.916976
     31          6           0       -2.448812    1.308168   -0.145498
     32          6           0       -1.686912    1.690665    1.123828
     33          6           0       -0.726123    2.860106    0.906836
     34          1           0       -1.728024    1.050323   -0.933772
     35          1           0       -3.008139    2.181862   -0.507103
     36          1           0       -1.129486    0.815906    1.482561
     37          1           0       -2.408948    1.946378    1.909889
     38          1           0       -1.270465    3.748726    0.571206
     39          1           0        0.016268    2.611831    0.141449
     40          1           0       -0.191954    3.116867    1.826944
 ---------------------------------------------------------------------

 SCF Done:  E(RHF) =  -470.733364480     A.U. after   11 cycles
 E2 =    -0.1583294802D+01 EUMP2 =    -0.47231665928136D+03

 The electronic state is 1-A.
 Alpha  occ. eigenvalues --  -11.21642 -11.21625 -11.21610 -11.21591 -11.21444
 Alpha  occ. eigenvalues --  -11.21420 -11.21384 -11.21359 -11.21144 -11.21098
 Alpha  occ. eigenvalues --  -11.21082 -11.21072  -1.08482  -1.08433  -1.03586
 Alpha  occ. eigenvalues --   -1.03527  -0.96020  -0.95990  -0.87039  -0.87002
 Alpha  occ. eigenvalues --   -0.79691  -0.79552  -0.78314  -0.78226  -0.65258
 Alpha  occ. eigenvalues --   -0.64946  -0.61117  -0.60807  -0.59406  -0.59333
 Alpha  occ. eigenvalues --   -0.57642  -0.57587  -0.55327  -0.55263  -0.52715
 Alpha  occ. eigenvalues --   -0.52680  -0.52443  -0.52415  -0.50043  -0.49865
 Alpha  occ. eigenvalues --   -0.48065  -0.47858  -0.46873  -0.46443  -0.45962
 Alpha  occ. eigenvalues --   -0.45780  -0.45741  -0.45492  -0.43823  -0.43793
 Alpha virt. eigenvalues --    0.19775   0.22905   0.23761   0.24191   0.26048
 Alpha virt. eigenvalues --    0.26427   0.27039   0.27618   0.28968   0.29162
 Alpha virt. eigenvalues --    0.30766   0.31437   0.31620   0.31763   0.31977

 Mulliken charges:
               1
     1  C   -0.299441
     2  C   -0.299699
     3  C   -0.475734
     4  H    0.150364
     5  H    0.149877
     6  H    0.151835
     7  H    0.152066
     8  H    0.155309
     9  H    0.155347
    10  H    0.160315
    11  C   -0.297694
    12  C   -0.307518
    13  C   -0.476307
    14  H    0.149159
    15  H    0.149912
    16  H    0.159286
    17  H    0.152288
    18  H    0.155860
    19  H    0.154816
    20  H    0.160484
    21  C   -0.299148
    22  C   -0.299555
    23  C   -0.475799
    24  H    0.150626
    25  H    0.149632
    26  H    0.151643
    27  H    0.151941
    28  H    0.155203
    29  H    0.155474
    30  H    0.160227
    31  C   -0.298369
    32  C   -0.306126
    33  C   -0.476614
    34  H    0.148680
    35  H    0.149885
    36  H    0.157962
    37  H    0.152452
    38  H    0.155412
    39  H    0.154986
    40  H    0.160963
 Sum of Mulliken charges =  -0.00000

 Dipole moment (field-independent basis, Debye):
    X=              0.0103    Y=             -0.0030    Z=              0.0192  Tot=              0.0220
 Quadrupole moment (field-independent basis, Debye-Ang):
   XX=            -84.7251   YY=            -85.6935   ZZ=            -84.2378
   XY=             -1.9362   XZ=              0.3844   YZ=              0.0480

 Normal termination of Gaussian 16 at Thu May  6 05:33:37 2021.
