 Gaussian 16, Revision A.03,
 Gaussian 16:  EM64L-G16RevA.03 25-Dec-2016

 -------------
 #p 6-31g* mp2
 -------------

 ------------------------------------------------------
 Input file generated by CHIRIPA (05-May-2021 14:57:22)
 ------------------------------------------------------
 Symbolic Z-matrix:
 Charge =  0 Multiplicity = 1

                         Standard orientation:
 ---------------------------------------------------------------------
 Center     Atomic      Atomic             Coordinates (Angstroms)
 Number     Number       Type             X           Y           Z
 ---------------------------------------------------------------------
      1          6           0       -2.594561    2.270458   -0.538049
      2          6           0       -2.070960    1.596180    0.569973
      3          6           0       -2.479982    0.292544    0.866252
      4          6           0       -3.418478   -0.309348    0.029448
      5          6           0       -3.958564    0.336242   -1.081773
      6          6           0       -3.535034    1.639449   -1.358938
      7          1           0       -2.271188    3.282987   -0.760781
      8          1           0       -1.340439    2.083751    1.209237
      9          1           0       -2.090871   -0.252587    1.717629
     10          1           0       -4.685341   -0.175910   -1.700573
     11          1           0       -3.943372    2.160678   -2.220115
     12          7           0       -3.859171   -1.689222    0.332987
     13          8           0       -4.687205   -2.197440   -0.419815
     14          8           0       -3.368208   -2.236422    1.317957
     15          6           0        1.830684    1.810905    1.060216
     16          6           0        2.627286    0.998358    1.873674
     17          6           0        3.470543    0.037059    1.308546
     18          6           0        3.492327   -0.085223   -0.079929
     19          6           0        2.710613    0.709379   -0.917079
     20          6           0        1.874813    1.664081   -0.330114
     21          1           0        1.178519    2.555103    1.507704
     22          1           0        2.595067    1.110164    2.953724
     23          1           0        4.097799   -0.605186    1.914755
     24          1           0        2.764349    0.574534   -1.990554
     25          1           0        1.257267    2.293732   -0.964323
     26          7           0        4.381099   -1.099415   -0.689764
     27          8           0        4.382039   -1.187398   -1.915690
     28          8           0        5.059949   -1.787153    0.069720
 ---------------------------------------------------------------------

 SCF Done:  E(RHF) =  -868.336159798     A.U. after   16 cycles
 E2 =    -0.2600713606D+01 EUMP2 =    -0.87093687340429D+03

 The electronic state is 1-A.
 Alpha  occ. eigenvalues --  -20.61162 -20.61156 -20.61073 -20.61067 -15.86222
 Alpha  occ. eigenvalues --  -15.86131 -11.31747 -11.31665 -11.28362 -11.28310
 Alpha  occ. eigenvalues --  -11.28236 -11.28219 -11.28188 -11.28149 -11.27502
 Alpha  occ. eigenvalues --  -11.27377 -11.27375 -11.27333  -1.60233  -1.60142
 Alpha  occ. eigenvalues --   -1.39782  -1.39691  -1.19952  -1.19861  -1.09343
 Alpha  occ. eigenvalues --   -1.09254  -1.05383  -1.05277  -0.96134  -0.96063
 Alpha  occ. eigenvalues --   -0.86806  -0.86674  -0.82981  -0.82862  -0.77976
 Alpha  occ. eigenvalues --   -0.77865  -0.72439  -0.72349  -0.71556  -0.71464
 Alpha  occ. eigenvalues --   -0.71110  -0.71053  -0.65620  -0.65562  -0.65454
 Alpha  occ. eigenvalues --   -0.65235  -0.62737  -0.62610  -0.56024  -0.55814
 Alpha  occ. eigenvalues --   -0.53793  -0.53596  -0.53394  -0.53376  -0.49211
 Alpha  occ. eigenvalues --   -0.49181  -0.49121  -0.49091  -0.45151  -0.45059
 Alpha  occ. eigenvalues --   -0.38100  -0.37830  -0.37018  -0.36738
 Alpha virt. eigenvalues --    0.04513   0.04677   0.10359   0.11039   0.15823
 Alpha virt. eigenvalues --    0.16100   0.18708   0.22004   0.25027   0.26256
 Alpha virt. eigenvalues --    0.27824   0.28827   0.29682   0.31554   0.32224

 Mulliken charges:
               1
     1  C   -0.174976
     2  C   -0.216472
     3  C   -0.169193
     4  C    0.159352
     5  C   -0.169846
     6  C   -0.217978
     7  H    0.222385
     8  H    0.214819
     9  H    0.276894
    10  H    0.278054
    11  H    0.225242
    12  N    0.488104
    13  O   -0.458302
    14  O   -0.458841
    15  C   -0.175351
    16  C   -0.218444
    17  C   -0.169652
    18  C    0.160160
    19  C   -0.170142
    20  C   -0.213700
    21  H    0.216902
    22  H    0.224654
    23  H    0.278257
    24  H    0.277311
    25  H    0.219707
    26  N    0.488050
    27  O   -0.458849
    28  O   -0.458145
 Sum of Mulliken charges =  -0.00000

 Dipole moment (field-independent basis, Debye):
    X=             -1.5506    Y=              8.1664    Z=              0.9939  Tot=              8.3715
 Quadrupole moment (field-independent basis, Debye-Ang):
   XX=           -135.0075   YY=           -109.8615   ZZ=            -98.1769
   XY=             -4.9483   XZ=             16.0965   YZ=             -1.7412

 Normal termination of Gaussian 16 at Fri May  7 01:43:24 2021.
