 Gaussian 16, Revision A.03,
 Gaussian 16:  EM64L-G16RevA.03 25-Dec-2016

 -------------
 #p 6-31g* mp2
 -------------

 ------------------------------------------------------
 Input file generated by CHIRIPA (05-May-2021 14:51:14)
 ------------------------------------------------------
 Symbolic Z-matrix:
 Charge =  0 Multiplicity = 1

                         Standard orientation:
 ---------------------------------------------------------------------
 Center     Atomic      Atomic             Coordinates (Angstroms)
 Number     Number       Type             X           Y           Z
 ---------------------------------------------------------------------
      1          6           0        3.133290    0.022923   -0.235731
      2          6           0        4.662199    0.039001   -0.222997
      3          6           0        5.247601    1.212917   -1.008502
      4          1           0        2.782026   -0.018464   -1.275849
      5          1           0        2.760111    0.967872    0.182843
      6          1           0        5.032377   -0.906267   -0.640194
      7          1           0        5.009866    0.080161    0.817219
      8          1           0        4.906503    2.165128   -0.589517
      9          1           0        4.929142    1.173095   -2.055211
     10          1           0        6.341815    1.205034   -0.986265
     11          6           0        2.533197   -1.144783    0.545344
     12          6           0        1.004287   -1.160861    0.532611
     13          6           0        0.418885   -2.334778    1.318116
     14          1           0        2.906375   -2.089732    0.126770
     15          1           0        2.884460   -1.103397    1.585463
     16          1           0        0.656621   -1.202021   -0.507605
     17          1           0        0.634109   -0.215593    0.949808
     18          1           0        0.737344   -2.294955    2.364824
     19          1           0        0.759983   -3.286988    0.899130
     20          1           0       -0.675329   -2.326894    1.295879
     21          6           0       -2.794898   -0.193091   -0.038984
     22          6           0       -3.644528   -1.001283   -1.020278
     23          6           0       -3.557427   -2.508084   -0.775823
     24          1           0       -1.748396   -0.518531   -0.115577
     25          1           0       -3.118004   -0.418350    0.986812
     26          1           0       -3.320839   -0.773518   -2.043979
     27          1           0       -4.689098   -0.673747   -0.941476
     28          1           0       -3.899844   -2.754902    0.234342
     29          1           0       -2.523811   -2.855239   -0.874426
     30          1           0       -4.172340   -3.066612   -1.488415
     31          6           0       -2.871588    1.314950   -0.270629
     32          6           0       -2.021958    2.123143    0.710664
     33          6           0       -2.109059    3.629944    0.466209
     34          1           0       -2.548483    1.540210   -1.296425
     35          1           0       -3.918091    1.640391   -0.194036
     36          1           0       -0.977389    1.795607    0.631863
     37          1           0       -2.345647    1.895378    1.734366
     38          1           0       -3.142676    3.977099    0.564812
     39          1           0       -1.766642    3.876762   -0.543955
     40          1           0       -1.494146    4.188472    1.178802
 ---------------------------------------------------------------------

 SCF Done:  E(RHF) =  -470.732431211     A.U. after   11 cycles
 E2 =    -0.1584652703D+01 EUMP2 =    -0.47231708391479D+03

 The electronic state is 1-A.
 Alpha  occ. eigenvalues --  -11.21650 -11.21631 -11.21583 -11.21572 -11.21445
 Alpha  occ. eigenvalues --  -11.21385 -11.21351 -11.21252 -11.21095 -11.21067
 Alpha  occ. eigenvalues --  -11.21064 -11.21034  -1.08496  -1.08378  -1.03576
 Alpha  occ. eigenvalues --   -1.03505  -0.96019  -0.95946  -0.87019  -0.86977
 Alpha  occ. eigenvalues --   -0.79664  -0.79574  -0.78440  -0.78076  -0.65105
 Alpha  occ. eigenvalues --   -0.65048  -0.61050  -0.60837  -0.59485  -0.59243
 Alpha  occ. eigenvalues --   -0.57718  -0.57495  -0.55288  -0.55238  -0.52730
 Alpha  occ. eigenvalues --   -0.52633  -0.52482  -0.52340  -0.49988  -0.49863
 Alpha  occ. eigenvalues --   -0.48074  -0.47813  -0.46796  -0.46496  -0.46119
 Alpha  occ. eigenvalues --   -0.45762  -0.45689  -0.45253  -0.43806  -0.43753
 Alpha virt. eigenvalues --    0.21095   0.22847   0.23288   0.24238   0.25892
 Alpha virt. eigenvalues --    0.26385   0.26985   0.27307   0.28023   0.29737
 Alpha virt. eigenvalues --    0.30323   0.31070   0.31523   0.31949   0.32141

 Mulliken charges:
               1
     1  C   -0.298507
     2  C   -0.299665
     3  C   -0.475742
     4  H    0.149348
     5  H    0.149189
     6  H    0.152074
     7  H    0.152113
     8  H    0.155273
     9  H    0.155133
    10  H    0.160398
    11  C   -0.297031
    12  C   -0.308020
    13  C   -0.481007
    14  H    0.149724
    15  H    0.149984
    16  H    0.150291
    17  H    0.158194
    18  H    0.155284
    19  H    0.154805
    20  H    0.166907
    21  C   -0.311334
    22  C   -0.298771
    23  C   -0.477951
    24  H    0.166405
    25  H    0.148176
    26  H    0.151319
    27  H    0.151676
    28  H    0.155040
    29  H    0.156889
    30  H    0.160350
    31  C   -0.297063
    32  C   -0.304557
    33  C   -0.475448
    34  H    0.149079
    35  H    0.149335
    36  H    0.156193
    37  H    0.151534
    38  H    0.155257
    39  H    0.155279
    40  H    0.159847
 Sum of Mulliken charges =  -0.00000

 Dipole moment (field-independent basis, Debye):
    X=              0.0268    Y=             -0.0105    Z=              0.0075  Tot=              0.0298
 Quadrupole moment (field-independent basis, Debye-Ang):
   XX=            -84.6147   YY=            -86.3877   ZZ=            -83.9242
   XY=             -0.5131   XZ=             -0.2152   YZ=              0.9948

 Normal termination of Gaussian 16 at Thu May  6 04:00:44 2021.
