 Gaussian 16, Revision A.03,
 Gaussian 16:  EM64L-G16RevA.03 25-Dec-2016

 -------------
 #p 6-31g* mp2
 -------------

 ------------------------------------------------------
 Input file generated by CHIRIPA (05-May-2021 14:57:21)
 ------------------------------------------------------
 Symbolic Z-matrix:
 Charge =  0 Multiplicity = 1

                         Standard orientation:
 ---------------------------------------------------------------------
 Center     Atomic      Atomic             Coordinates (Angstroms)
 Number     Number       Type             X           Y           Z
 ---------------------------------------------------------------------
      1          6           0       -5.705348    1.816683    0.341417
      2          6           0       -5.989109    0.477024    0.626573
      3          6           0       -5.040595   -0.518762    0.375020
      4          6           0       -3.813042   -0.137656   -0.164574
      5          6           0       -3.500526    1.188484   -0.459493
      6          6           0       -4.464150    2.167519   -0.199752
      7          1           0       -6.448046    2.583728    0.540010
      8          1           0       -6.952199    0.201641    1.046890
      9          1           0       -5.233979   -1.563467    0.586239
     10          1           0       -2.531617    1.432241   -0.878082
     11          1           0       -4.241022    3.207121   -0.422207
     12          7           0       -2.800894   -1.182983   -0.435216
     13          8           0       -1.726892   -0.821260   -0.910940
     14          8           0       -3.100740   -2.344241   -0.166497
     15          6           0        1.792370   -1.227430    0.517526
     16          6           0        2.241234   -1.005213   -0.788484
     17          6           0        3.451721   -0.345377   -1.020614
     18          6           0        4.191334    0.080688    0.081535
     19          6           0        3.770914   -0.125794    1.394508
     20          6           0        2.557295   -0.787786    1.602941
     21          1           0        0.850819   -1.740844    0.688645
     22          1           0        1.649264   -1.345540   -1.633349
     23          1           0        3.822857   -0.160183   -2.021304
     24          1           0        4.382946    0.225118    2.216516
     25          1           0        2.211181   -0.958983    2.618293
     26          7           0        5.474481    0.780369   -0.151666
     27          8           0        6.107569    1.145891    0.836377
     28          8           0        5.822826    0.950008   -1.318077
 ---------------------------------------------------------------------

 SCF Done:  E(RHF) =  -868.340676928     A.U. after   16 cycles
 E2 =    -0.2598259672D+01 EUMP2 =    -0.87093893660038D+03

 The electronic state is 1-A.
 Alpha  occ. eigenvalues --  -20.61897 -20.61877 -20.60100 -20.60093 -15.86904
 Alpha  occ. eigenvalues --  -15.85145 -11.31942 -11.30282 -11.28470 -11.28463
 Alpha  occ. eigenvalues --  -11.28147 -11.27408 -11.27394 -11.26873 -11.26792
 Alpha  occ. eigenvalues --  -11.26317 -11.25787 -11.25601  -1.60956  -1.59182
 Alpha  occ. eigenvalues --   -1.40514  -1.38741  -1.20084  -1.18413  -1.09541
 Alpha  occ. eigenvalues --   -1.07803  -1.05433  -1.03786  -0.96429  -0.94685
 Alpha  occ. eigenvalues --   -0.86846  -0.85160  -0.83270  -0.81540  -0.78353
 Alpha  occ. eigenvalues --   -0.76656  -0.73143  -0.72258  -0.71366  -0.71181
 Alpha  occ. eigenvalues --   -0.70505  -0.69399  -0.65737  -0.65428  -0.64036
 Alpha  occ. eigenvalues --   -0.63741  -0.62781  -0.61140  -0.55943  -0.54139
 Alpha  occ. eigenvalues --   -0.53780  -0.53516  -0.52130  -0.51844  -0.49908
 Alpha  occ. eigenvalues --   -0.49868  -0.48137  -0.48099  -0.45982  -0.44200
 Alpha  occ. eigenvalues --   -0.38045  -0.37022  -0.36312  -0.35415
 Alpha virt. eigenvalues --    0.04130   0.05878   0.10637   0.12258   0.15695
 Alpha virt. eigenvalues --    0.17461   0.20823   0.22595   0.26765   0.27669
 Alpha virt. eigenvalues --    0.28351   0.29516   0.30463   0.31905   0.32260

 Mulliken charges:
               1
     1  C   -0.169595
     2  C   -0.218634
     3  C   -0.170640
     4  C    0.156966
     5  C   -0.170706
     6  C   -0.218599
     7  H    0.228394
     8  H    0.225656
     9  H    0.276118
    10  H    0.276427
    11  H    0.226395
    12  N    0.488774
    13  O   -0.469213
    14  O   -0.458731
    15  C   -0.170812
    16  C   -0.219621
    17  C   -0.173908
    18  C    0.156914
    19  C   -0.172806
    20  C   -0.221185
    21  H    0.240076
    22  H    0.233593
    23  H    0.272395
    24  H    0.271559
    25  H    0.219529
    26  N    0.488250
    27  O   -0.463702
    28  O   -0.462894
 Sum of Mulliken charges =  -0.00000

 Dipole moment (field-independent basis, Debye):
    X=             -8.7103    Y=              1.1775    Z=              1.7159  Tot=              8.9555
 Quadrupole moment (field-independent basis, Debye-Ang):
   XX=           -115.0259   YY=           -104.4905   ZZ=           -100.5045
   XY=            -22.5240   XZ=             -0.9084   YZ=             -1.7096

 Normal termination of Gaussian 16 at Wed May  5 20:53:16 2021.
