 Gaussian 16, Revision A.03,
 Gaussian 16:  EM64L-G16RevA.03 25-Dec-2016

 -------------
 #p 6-31g* mp2
 -------------

 ------------------------------------------------------
 Input file generated by CHIRIPA (05-May-2021 14:53:18)
 ------------------------------------------------------
 Symbolic Z-matrix:
 Charge =  0 Multiplicity = 1

                         Standard orientation:
 ---------------------------------------------------------------------
 Center     Atomic      Atomic             Coordinates (Angstroms)
 Number     Number       Type             X           Y           Z
 ---------------------------------------------------------------------
      1          6           0        3.258107    0.548480    0.217131
      2          6           0        3.116891    1.997323   -0.250733
      3          6           0        1.867605    2.679662    0.307381
      4          1           0        2.364904   -0.015999   -0.083697
      5          1           0        3.286714    0.526272    1.315350
      6          1           0        3.089951    2.016914   -1.347778
      7          1           0        4.010620    2.558372    0.051077
      8          1           0        1.890546    2.689644    1.401902
      9          1           0        0.964646    2.145110   -0.004901
     10          1           0        1.786385    3.714455   -0.039703
     11          6           0        4.502236   -0.147085   -0.332469
     12          6           0        4.643451   -1.595928    0.135395
     13          6           0        5.892737   -2.278267   -0.422719
     14          1           0        4.473629   -0.124877   -1.430688
     15          1           0        5.395438    0.417394   -0.031641
     16          1           0        3.749723   -2.156978   -0.166414
     17          1           0        4.670391   -1.615520    1.232440
     18          1           0        6.795697   -1.743716   -0.110437
     19          1           0        5.869797   -2.288250   -1.517239
     20          1           0        5.973957   -3.313060   -0.075635
     21          6           0       -2.297753    2.257256    0.036864
     22          6           0       -3.350121    1.842665   -0.786031
     23          6           0       -3.765026    0.507604   -0.789670
     24          6           0       -3.102308   -0.390176    0.045846
     25          6           0       -2.050544   -0.007774    0.877018
     26          6           0       -1.652461    1.332344    0.864304
     27          1           0       -1.981979    3.296328    0.033340
     28          1           0       -3.853094    2.558768   -1.429660
     29          1           0       -4.576852    0.159583   -1.416757
     30          1           0       -1.568447   -0.744751    1.507786
     31          1           0       -0.834877    1.651485    1.504421
     32          7           0       -3.532645   -1.806223    0.050650
     33          8           0       -2.932502   -2.577640    0.795887
     34          8           0       -4.461938   -2.117889   -0.690914
 ---------------------------------------------------------------------

 SCF Done:  E(RHF) =  -669.535114696     A.U. after   15 cycles
 E2 =    -0.2091885397D+01 EUMP2 =    -0.67162700009355D+03

 The electronic state is 1-A.
 Alpha  occ. eigenvalues --  -20.60765 -20.60760 -15.85817 -11.31186 -11.27752
 Alpha  occ. eigenvalues --  -11.27734 -11.27474 -11.26764 -11.26693 -11.22228
 Alpha  occ. eigenvalues --  -11.21951 -11.21878 -11.21808 -11.21695 -11.21208
 Alpha  occ. eigenvalues --   -1.59840  -1.39394  -1.19356  -1.08866  -1.08745
 Alpha  occ. eigenvalues --   -1.04759  -1.03986  -0.96470  -0.95580  -0.87510
 Alpha  occ. eigenvalues --   -0.86144  -0.82411  -0.80078  -0.78648  -0.77458
 Alpha  occ. eigenvalues --   -0.72035  -0.71164  -0.70448  -0.65496  -0.65001
 Alpha  occ. eigenvalues --   -0.64771  -0.62132  -0.61365  -0.59845  -0.58055
 Alpha  occ. eigenvalues --   -0.55771  -0.55241  -0.53275  -0.53132  -0.52992
 Alpha  occ. eigenvalues --   -0.52582  -0.50396  -0.48804  -0.48791  -0.48349
 Alpha  occ. eigenvalues --   -0.47080  -0.46194  -0.46089  -0.44799  -0.44230
 Alpha  occ. eigenvalues --   -0.37311  -0.36335
 Alpha virt. eigenvalues --    0.05063   0.11159   0.16545   0.20941   0.22550
 Alpha virt. eigenvalues --    0.23979   0.25968   0.26383   0.27141   0.28110
 Alpha virt. eigenvalues --    0.28958   0.30233   0.31293   0.31594   0.31789

 Mulliken charges:
               1
     1  C   -0.299836
     2  C   -0.298081
     3  C   -0.487245
     4  H    0.150819
     5  H    0.148206
     6  H    0.154522
     7  H    0.153951
     8  H    0.151412
     9  H    0.159171
    10  H    0.159911
    11  C   -0.298600
    12  C   -0.300521
    13  C   -0.476054
    14  H    0.150804
    15  H    0.150066
    16  H    0.154388
    17  H    0.151886
    18  H    0.154919
    19  H    0.155837
    20  H    0.162086
    21  C   -0.172070
    22  C   -0.218490
    23  C   -0.171066
    24  C    0.158525
    25  C   -0.173770
    26  C   -0.220541
    27  H    0.227057
    28  H    0.223433
    29  H    0.275551
    30  H    0.275958
    31  H    0.230575
    32  N    0.488063
    33  O   -0.460382
    34  O   -0.460482
 Sum of Mulliken charges =  -0.00000

 Dipole moment (field-independent basis, Debye):
    X=              1.6052    Y=              4.9436    Z=             -0.0626  Tot=              5.1981
 Quadrupole moment (field-independent basis, Debye-Ang):
   XX=           -102.1667   YY=            -99.4289   ZZ=            -92.3674
   XY=            -16.5752   XZ=              3.4818   YZ=             -0.6297

 Normal termination of Gaussian 16 at Thu May  6 01:14:31 2021.
