 Gaussian 16, Revision A.03,
 Gaussian 16:  EM64L-G16RevA.03 25-Dec-2016

 -------------
 #p 6-31g* mp2
 -------------

 ------------------------------------------------------
 Input file generated by CHIRIPA (05-May-2021 14:55:22)
 ------------------------------------------------------
 Symbolic Z-matrix:
 Charge =  0 Multiplicity = 1

                         Standard orientation:
 ---------------------------------------------------------------------
 Center     Atomic      Atomic             Coordinates (Angstroms)
 Number     Number       Type             X           Y           Z
 ---------------------------------------------------------------------
      1          6           0       -1.409892   -1.364212    2.132343
      2          6           0       -0.611959   -1.318485    0.984418
      3          6           0       -1.112508   -0.786122   -0.207466
      4          6           0       -2.421276   -0.306176   -0.215837
      5          6           0       -3.240983   -0.337850    0.911269
      6          6           0       -2.719548   -0.874612    2.092176
      7          1           0       -1.012941   -1.779472    3.053964
      8          1           0        0.405500   -1.697988    1.012686
      9          1           0       -0.516575   -0.738470   -1.110799
     10          1           0       -4.251412    0.048112    0.852246
     11          1           0       -3.341519   -0.908840    2.982134
     12          7           0       -2.962240    0.259741   -1.471821
     13          8           0       -4.118495    0.676110   -1.453156
     14          8           0       -2.219750    0.276221   -2.451144
     15          6           0        3.436336    0.143854   -0.483480
     16          6           0        3.633783   -1.333523   -0.142370
     17          6           0        4.538856   -2.055052   -1.141385
     18          1           0        3.010317    0.226826   -1.492721
     19          1           0        4.416423    0.639590   -0.516191
     20          1           0        2.653507   -1.826025   -0.108952
     21          1           0        4.059204   -1.412995    0.866252
     22          1           0        5.529612   -1.590050   -1.169239
     23          1           0        4.115929   -2.005428   -2.149984
     24          1           0        4.666392   -3.109797   -0.878502
     25          6           0        2.533887    0.878729    0.506101
     26          6           0        2.336441    2.356106    0.164990
     27          6           0        1.431368    3.077635    1.164005
     28          1           0        1.553800    0.382992    0.538811
     29          1           0        2.959906    0.795757    1.515343
     30          1           0        1.911020    2.435577   -0.843632
     31          1           0        3.316717    2.848608    0.131573
     32          1           0        1.854295    3.028011    2.172604
     33          1           0        0.440611    2.612632    1.191859
     34          1           0        1.303831    4.132380    0.901122
 ---------------------------------------------------------------------

 SCF Done:  E(RHF) =  -669.534421626     A.U. after   15 cycles
 E2 =    -0.2093842470D+01 EUMP2 =    -0.67162826409557D+03

 The electronic state is 1-A.
 Alpha  occ. eigenvalues --  -20.60817 -20.60811 -15.85871 -11.31253 -11.27817
 Alpha  occ. eigenvalues --  -11.27805 -11.27532 -11.26826 -11.26784 -11.22417
 Alpha  occ. eigenvalues --  -11.21914 -11.21841 -11.21768 -11.21627 -11.21227
 Alpha  occ. eigenvalues --   -1.59892  -1.39445  -1.19426  -1.08951  -1.08802
 Alpha  occ. eigenvalues --   -1.04836  -1.03978  -0.96403  -0.95643  -0.87422
 Alpha  occ. eigenvalues --   -0.86221  -0.82494  -0.80080  -0.78787  -0.77505
 Alpha  occ. eigenvalues --   -0.72088  -0.71216  -0.70518  -0.65683  -0.65053
 Alpha  occ. eigenvalues --   -0.64789  -0.62160  -0.61384  -0.59786  -0.58019
 Alpha  occ. eigenvalues --   -0.55692  -0.55307  -0.53218  -0.53124  -0.52907
 Alpha  occ. eigenvalues --   -0.52781  -0.50357  -0.48852  -0.48842  -0.48377
 Alpha  occ. eigenvalues --   -0.47129  -0.46251  -0.46178  -0.44846  -0.44233
 Alpha  occ. eigenvalues --   -0.37390  -0.36342
 Alpha virt. eigenvalues --    0.04975   0.11193   0.16335   0.19441   0.22816
 Alpha virt. eigenvalues --    0.23758   0.25134   0.26221   0.27361   0.28342
 Alpha virt. eigenvalues --    0.30043   0.30188   0.31313   0.31510   0.32412

 Mulliken charges:
               1
     1  C   -0.173262
     2  C   -0.222306
     3  C   -0.172356
     4  C    0.158070
     5  C   -0.171235
     6  C   -0.218345
     7  H    0.226767
     8  H    0.233222
     9  H    0.275568
    10  H    0.275893
    11  H    0.223821
    12  N    0.488169
    13  O   -0.460092
    14  O   -0.460515
    15  C   -0.299735
    16  C   -0.302875
    17  C   -0.475647
    18  H    0.152576
    19  H    0.153167
    20  H    0.141727
    21  H    0.152788
    22  H    0.158489
    23  H    0.158302
    24  H    0.160794
    25  C   -0.307501
    26  C   -0.299962
    27  C   -0.476702
    28  H    0.151225
    29  H    0.147580
    30  H    0.156763
    31  H    0.152683
    32  H    0.152851
    33  H    0.157131
    34  H    0.162949
 Sum of Mulliken charges =  -0.00000

 Dipole moment (field-independent basis, Debye):
    X=              1.9430    Y=             -1.9388    Z=              4.3917  Tot=              5.1789
 Quadrupole moment (field-independent basis, Debye-Ang):
   XX=            -99.5881   YY=            -94.3870   ZZ=            -96.1238
   XY=              4.0066   XZ=            -12.9925   YZ=             -0.8559

 Normal termination of Gaussian 16 at Thu May  6 17:32:04 2021.
