 Gaussian 16, Revision A.03,
 Gaussian 16:  EM64L-G16RevA.03 25-Dec-2016

 -------------
 #p 6-31g* mp2
 -------------

 ------------------------------------------------------
 Input file generated by CHIRIPA (05-May-2021 14:57:23)
 ------------------------------------------------------
 Symbolic Z-matrix:
 Charge =  0 Multiplicity = 1

                         Standard orientation:
 ---------------------------------------------------------------------
 Center     Atomic      Atomic             Coordinates (Angstroms)
 Number     Number       Type             X           Y           Z
 ---------------------------------------------------------------------
      1          6           0        2.158705    2.508374   -0.938642
      2          6           0        2.221952    2.125337    0.405159
      3          6           0        2.357203    0.778244    0.753865
      4          6           0        2.426490   -0.163613   -0.271510
      5          6           0        2.366287    0.186586   -1.619482
      6          6           0        2.230947    1.539485   -1.944900
      7          1           0        2.053604    3.557084   -1.200480
      8          1           0        2.166096    2.875619    1.188743
      9          1           0        2.408648    0.453976    1.786155
     10          1           0        2.424588   -0.584207   -2.378361
     11          1           0        2.182089    1.834049   -2.989357
     12          7           0        2.569721   -1.592793    0.085322
     13          8           0        2.628549   -2.403257   -0.836808
     14          8           0        2.620445   -1.875458    1.280380
     15          6           0       -3.989072   -0.513124   -1.581557
     16          6           0       -4.008880    0.722609   -0.926506
     17          6           0       -3.134553    0.978098    0.134073
     18          6           0       -2.249537   -0.029280    0.515154
     19          6           0       -2.205683   -1.270625   -0.117642
     20          6           0       -3.089124   -1.504050   -1.175750
     21          1           0       -4.671810   -0.703024   -2.404481
     22          1           0       -4.706717    1.494033   -1.239511
     23          1           0       -3.128606    1.925802    0.658705
     24          1           0       -1.498716   -2.020035    0.217021
     25          1           0       -3.071510   -2.464675   -1.682636
     26          7           0       -1.319101    0.229516    1.636633
     27          8           0       -0.548965   -0.674520    1.953250
     28          8           0       -1.377581    1.331495    2.177796
 ---------------------------------------------------------------------

 SCF Done:  E(RHF) =  -868.339013054     A.U. after   16 cycles
 E2 =    -0.2601477911D+01 EUMP2 =    -0.87094049096499D+03

 The electronic state is 1-A.
 Alpha  occ. eigenvalues --  -20.60968 -20.60912 -20.60071 -20.59952 -15.85943
 Alpha  occ. eigenvalues --  -15.85055 -11.31230 -11.30412 -11.27832 -11.27727
 Alpha  occ. eigenvalues --  -11.27537 -11.27112 -11.26848 -11.26829 -11.26819
 Alpha  occ. eigenvalues --  -11.26748 -11.26130 -11.25930  -1.60004  -1.59084
 Alpha  occ. eigenvalues --   -1.39559  -1.38631  -1.19400  -1.18621  -1.08819
 Alpha  occ. eigenvalues --   -1.08025  -1.04785  -1.04006  -0.95665  -0.94850
 Alpha  occ. eigenvalues --   -0.86190  -0.85403  -0.82492  -0.81672  -0.77550
 Alpha  occ. eigenvalues --   -0.76699  -0.72187  -0.71361  -0.71276  -0.70512
 Alpha  occ. eigenvalues --   -0.70355  -0.69728  -0.65053  -0.64788  -0.64264
 Alpha  occ. eigenvalues --   -0.64005  -0.62124  -0.61325  -0.55305  -0.54555
 Alpha  occ. eigenvalues --   -0.53130  -0.52872  -0.52373  -0.52086  -0.48966
 Alpha  occ. eigenvalues --   -0.48933  -0.48067  -0.48015  -0.45028  -0.43986
 Alpha  occ. eigenvalues --   -0.37395  -0.36636  -0.36384  -0.35588
 Alpha virt. eigenvalues --    0.04948   0.05825   0.11258   0.12062   0.16465
 Alpha virt. eigenvalues --    0.17280   0.21415   0.22143   0.27348   0.28087
 Alpha virt. eigenvalues --    0.28296   0.29070   0.30944   0.31610   0.32555

 Mulliken charges:
               1
     1  C   -0.172695
     2  C   -0.219377
     3  C   -0.163095
     4  C    0.154115
     5  C   -0.174110
     6  C   -0.220337
     7  H    0.222260
     8  H    0.227563
     9  H    0.287049
    10  H    0.270863
    11  H    0.218494
    12  N    0.488063
    13  O   -0.471121
    14  O   -0.449584
    15  C   -0.171018
    16  C   -0.219171
    17  C   -0.171563
    18  C    0.158826
    19  C   -0.172433
    20  C   -0.219134
    21  H    0.225550
    22  H    0.222215
    23  H    0.273189
    24  H    0.282660
    25  H    0.226439
    26  N    0.488371
    27  O   -0.455577
    28  O   -0.466444
 Sum of Mulliken charges =  -0.00000

 Dipole moment (field-independent basis, Debye):
    X=             -3.8411    Y=              3.9913    Z=             -4.8469  Tot=              7.3605
 Quadrupole moment (field-independent basis, Debye-Ang):
   XX=            -93.5240   YY=           -102.7967   ZZ=           -104.3192
   XY=             12.8741   XZ=              5.1992   YZ=              0.3597

 Normal termination of Gaussian 16 at Wed May  5 17:51:02 2021.
