 Gaussian 16, Revision A.03,
 Gaussian 16:  EM64L-G16RevA.03 25-Dec-2016

 -------------
 #p 6-31g* mp2
 -------------

 ------------------------------------------------------
 Input file generated by CHIRIPA (05-May-2021 14:55:25)
 ------------------------------------------------------
 Symbolic Z-matrix:
 Charge =  0 Multiplicity = 1

                         Standard orientation:
 ---------------------------------------------------------------------
 Center     Atomic      Atomic             Coordinates (Angstroms)
 Number     Number       Type             X           Y           Z
 ---------------------------------------------------------------------
      1          6           0       -4.230886    0.245993   -1.815955
      2          6           0       -4.362844   -0.965363   -1.129133
      3          6           0       -3.531107   -1.261150   -0.045034
      4          6           0       -2.573855   -0.318488    0.326917
      5          6           0       -2.417871    0.897133   -0.337331
      6          6           0       -3.260532    1.171743   -1.418563
      7          1           0       -4.881242    0.467542   -2.656995
      8          1           0       -5.115552   -1.686192   -1.435535
      9          1           0       -3.611636   -2.191250    0.504372
     10          1           0       -1.658240    1.595892   -0.008523
     11          1           0       -3.155784    2.113304   -1.950103
     12          7           0       -1.687550   -0.620414    1.473086
     13          8           0       -0.852057    0.226787    1.781044
     14          8           0       -1.845140   -1.698549    2.041794
     15          6           0        4.146521    0.069812   -0.433621
     16          6           0        4.188094   -1.457261   -0.499206
     17          6           0        5.524916   -1.990623   -1.015176
     18          1           0        4.344743    0.478956   -1.433749
     19          1           0        4.958989    0.424231    0.215745
     20          1           0        3.374934   -1.808763   -1.147151
     21          1           0        3.989560   -1.862821    0.501155
     22          1           0        6.344951   -1.668215   -0.365410
     23          1           0        5.726833   -1.613849   -2.023081
     24          1           0        5.532738   -3.084375   -1.053965
     25          6           0        2.816498    0.618127    0.080304
     26          6           0        2.774924    2.145201    0.145888
     27          6           0        1.438102    2.678562    0.661859
     28          1           0        2.004029    0.263709   -0.569063
     29          1           0        2.618275    0.208983    1.080432
     30          1           0        2.973459    2.550760   -0.854472
     31          1           0        3.588084    2.496702    0.793834
     32          1           0        1.236185    2.301789    1.669765
     33          1           0        0.618067    2.356154    0.012094
     34          1           0        1.430280    3.772315    0.700647
 ---------------------------------------------------------------------

 SCF Done:  E(RHF) =  -669.535354389     A.U. after   15 cycles
 E2 =    -0.2092121280D+01 EUMP2 =    -0.67162747566899D+03

 The electronic state is 1-A.
 Alpha  occ. eigenvalues --  -20.60817 -20.60812 -15.85858 -11.31211 -11.27781
 Alpha  occ. eigenvalues --  -11.27752 -11.27525 -11.26798 -11.26785 -11.21082
 Alpha  occ. eigenvalues --  -11.21037 -11.20830 -11.20663 -11.20631 -11.20433
 Alpha  occ. eigenvalues --   -1.59886  -1.39440  -1.19384  -1.08784  -1.07834
 Alpha  occ. eigenvalues --   -1.04785  -1.02979  -0.95636  -0.95411  -0.86452
 Alpha  occ. eigenvalues --   -0.86180  -0.82456  -0.79061  -0.77683  -0.77423
 Alpha  occ. eigenvalues --   -0.72086  -0.71201  -0.70500  -0.65039  -0.64807
 Alpha  occ. eigenvalues --   -0.64466  -0.62157  -0.60379  -0.58789  -0.57020
 Alpha  occ. eigenvalues --   -0.55306  -0.54708  -0.53116  -0.52898  -0.52154
 Alpha  occ. eigenvalues --   -0.51806  -0.49364  -0.48847  -0.48836  -0.47323
 Alpha  occ. eigenvalues --   -0.46076  -0.45249  -0.45082  -0.44739  -0.43226
 Alpha  occ. eigenvalues --   -0.37367  -0.36387
 Alpha virt. eigenvalues --    0.05009   0.11229   0.16508   0.20961   0.23439
 Alpha virt. eigenvalues --    0.24540   0.26044   0.27438   0.27698   0.28230
 Alpha virt. eigenvalues --    0.29444   0.30750   0.31498   0.32230   0.32449

 Mulliken charges:
               1
     1  C   -0.170496
     2  C   -0.218847
     3  C   -0.170232
     4  C    0.155685
     5  C   -0.176764
     6  C   -0.221328
     7  H    0.225685
     8  H    0.223508
     9  H    0.275631
    10  H    0.287779
    11  H    0.223924
    12  N    0.490686
    13  O   -0.463456
    14  O   -0.460220
    15  C   -0.298296
    16  C   -0.299293
    17  C   -0.475364
    18  H    0.145854
    19  H    0.148601
    20  H    0.150233
    21  H    0.155724
    22  H    0.154797
    23  H    0.153069
    24  H    0.159320
    25  C   -0.297179
    26  C   -0.300306
    27  C   -0.475415
    28  H    0.145326
    29  H    0.162485
    30  H    0.146091
    31  H    0.151265
    32  H    0.176527
    33  H    0.142213
    34  H    0.152789
 Sum of Mulliken charges =  -0.00000

 Dipole moment (field-independent basis, Debye):
    X=             -3.2130    Y=              0.9801    Z=             -3.8309  Tot=              5.0951
 Quadrupole moment (field-independent basis, Debye-Ang):
   XX=            -79.3630   YY=            -92.5265   ZZ=            -97.1360
   XY=              0.9440   XZ=             10.5233   YZ=              0.9559

 Normal termination of Gaussian 16 at Thu May  6 14:23:45 2021.
