 Gaussian 16, Revision A.03,
 Gaussian 16:  EM64L-G16RevA.03 25-Dec-2016

 -------------
 #p 6-31g* mp2
 -------------

 ------------------------------------------------------
 Input file generated by CHIRIPA (05-May-2021 14:57:24)
 ------------------------------------------------------
 Symbolic Z-matrix:
 Charge =  0 Multiplicity = 1

                         Standard orientation:
 ---------------------------------------------------------------------
 Center     Atomic      Atomic             Coordinates (Angstroms)
 Number     Number       Type             X           Y           Z
 ---------------------------------------------------------------------
      1          6           0       -4.823164    2.120715    0.409303
      2          6           0       -5.466269    0.895408    0.205441
      3          6           0       -4.728600   -0.250197   -0.107581
      4          6           0       -3.343172   -0.133885   -0.209320
      5          6           0       -2.673403    1.072653   -0.011920
      6          6           0       -3.431237    2.205278    0.300164
      7          1           0       -5.404035    3.005607    0.652101
      8          1           0       -6.547129    0.826770    0.289552
      9          1           0       -5.200857   -1.211376   -0.270444
     10          1           0       -1.594600    1.109830   -0.102587
     11          1           0       -2.929109    3.155548    0.457957
     12          7           0       -2.551561   -1.339814   -0.540206
     13          8           0       -1.332134   -1.210964   -0.624079
     14          8           0       -3.165511   -2.391037   -0.709416
     15          6           0        5.022931    1.460905   -1.124916
     16          6           0        4.224659    0.539150   -1.810225
     17          6           0        3.362568   -0.311197   -1.111471
     18          6           0        3.323859   -0.212374    0.278502
     19          6           0        4.106746    0.695575    0.989844
     20          6           0        4.961536    1.536044    0.270472
     21          1           0        5.689788    2.117638   -1.675734
     22          1           0        4.270262    0.478580   -2.893875
     23          1           0        2.733586   -1.033984   -1.616822
     24          1           0        4.039398    0.732601    2.070359
     25          1           0        5.580333    2.250927    0.805333
     26          7           0        2.415067   -1.107369    1.029156
     27          8           0        2.399445   -1.000589    2.253490
     28          8           0        1.735586   -1.898698    0.378972
 ---------------------------------------------------------------------

 SCF Done:  E(RHF) =  -868.335793534     A.U. after   16 cycles
 E2 =    -0.2600264005D+01 EUMP2 =    -0.87093605753891D+03

 The electronic state is 1-A.
 Alpha  occ. eigenvalues --  -20.60039 -20.60010 -20.59967 -20.59847 -15.85059
 Alpha  occ. eigenvalues --  -15.84970 -11.30688 -11.30651 -11.27299 -11.27297
 Alpha  occ. eigenvalues --  -11.27288 -11.27199 -11.27091 -11.27082 -11.26377
 Alpha  occ. eigenvalues --  -11.26374 -11.26361 -11.26321  -1.59076  -1.59002
 Alpha  occ. eigenvalues --   -1.38627  -1.38536  -1.18888  -1.18862  -1.08237
 Alpha  occ. eigenvalues --   -1.08203  -1.04333  -1.04304  -0.95037  -0.94968
 Alpha  occ. eigenvalues --   -0.85720  -0.85686  -0.81886  -0.81772  -0.76881
 Alpha  occ. eigenvalues --   -0.76778  -0.71381  -0.71080  -0.70428  -0.70303
 Alpha  occ. eigenvalues --   -0.70001  -0.69960  -0.64545  -0.64490  -0.64345
 Alpha  occ. eigenvalues --   -0.64309  -0.61683  -0.61635  -0.54833  -0.54807
 Alpha  occ. eigenvalues --   -0.52646  -0.52631  -0.52435  -0.52394  -0.48084
 Alpha  occ. eigenvalues --   -0.48030  -0.47947  -0.47928  -0.44073  -0.43739
 Alpha  occ. eigenvalues --   -0.36889  -0.36869  -0.35947  -0.35928
 Alpha virt. eigenvalues --    0.05623   0.05798   0.11704   0.11722   0.17061
 Alpha virt. eigenvalues --    0.17225   0.21771   0.21845   0.27664   0.27731
 Alpha virt. eigenvalues --    0.28660   0.28804   0.31253   0.31404   0.32891

 Mulliken charges:
               1
     1  C   -0.171626
     2  C   -0.218461
     3  C   -0.171157
     4  C    0.159730
     5  C   -0.169862
     6  C   -0.218345
     7  H    0.223566
     8  H    0.221944
     9  H    0.275345
    10  H    0.274037
    11  H    0.220980
    12  N    0.488249
    13  O   -0.451905
    14  O   -0.462855
    15  C   -0.172225
    16  C   -0.219546
    17  C   -0.171274
    18  C    0.157303
    19  C   -0.172910
    20  C   -0.219233
    21  H    0.223158
    22  H    0.222520
    23  H    0.282560
    24  H    0.273828
    25  H    0.220774
    26  N    0.485914
    27  O   -0.468241
    28  O   -0.442268
 Sum of Mulliken charges =  -0.00000

 Dipole moment (field-independent basis, Debye):
    X=              0.3595    Y=              7.1306    Z=             -1.5695  Tot=              7.3101
 Quadrupole moment (field-independent basis, Debye-Ang):
   XX=            -63.4525   YY=           -106.1223   ZZ=           -104.4343
   XY=             -0.9287   XZ=             -9.9908   YZ=              2.6738

 Normal termination of Gaussian 16 at Thu May  6 08:13:58 2021.
