 Gaussian 16, Revision A.03,
 Gaussian 16:  EM64L-G16RevA.03 25-Dec-2016

 -------------
 #p 6-31g* mp2
 -------------

 ------------------------------------------------------
 Input file generated by CHIRIPA (05-May-2021 14:51:11)
 ------------------------------------------------------
 Symbolic Z-matrix:
 Charge =  0 Multiplicity = 1

                         Standard orientation:
 ---------------------------------------------------------------------
 Center     Atomic      Atomic             Coordinates (Angstroms)
 Number     Number       Type             X           Y           Z
 ---------------------------------------------------------------------
      1          6           0        3.064643    0.808277   -0.442187
      2          6           0        3.987791    1.700740    0.388048
      3          6           0        3.799587    3.187996    0.087311
      4          1           0        3.247921    0.994098   -1.509344
      5          1           0        2.020868    1.092938   -0.250101
      6          1           0        5.029458    1.413560    0.195503
      7          1           0        3.802429    1.512634    1.453352
      8          1           0        2.770253    3.496231    0.297224
      9          1           0        4.004254    3.396593   -0.967772
     10          1           0        4.469262    3.807696    0.691768
     11          6           0        3.241025   -0.681311   -0.152800
     12          6           0        2.317876   -1.573774   -0.983035
     13          6           0        2.506080   -3.061031   -0.682298
     14          1           0        4.284799   -0.965972   -0.344886
     15          1           0        3.057747   -0.867132    0.914358
     16          1           0        2.503238   -1.385668   -2.048339
     17          1           0        1.276209   -1.286594   -0.790490
     18          1           0        2.301414   -3.269628    0.372785
     19          1           0        3.535414   -3.369265   -0.892211
     20          1           0        1.836405   -3.680730   -1.286754
     21          6           0       -2.751034   -0.331312    0.889318
     22          6           0       -1.313426   -0.705182    0.526701
     23          6           0       -0.522328   -1.239381    1.721101
     24          1           0       -2.736686    0.422660    1.688233
     25          1           0       -3.259185   -1.214008    1.301661
     26          1           0       -0.808556    0.177598    0.113880
     27          1           0       -1.331195   -1.458211   -0.271576
     28          1           0       -1.000491   -2.135217    2.130292
     29          1           0       -0.474881   -0.490114    2.517938
     30          1           0        0.502546   -1.500458    1.439444
     31          6           0       -3.554633    0.204347   -0.294331
     32          6           0       -4.992241    0.578216    0.068286
     33          6           0       -5.783339    1.112415   -1.126114
     34          1           0       -3.046482    1.087042   -0.706675
     35          1           0       -3.568981   -0.549626   -1.093247
     36          1           0       -4.974472    1.331245    0.866563
     37          1           0       -5.497112   -0.304564    0.481108
     38          1           0       -5.830786    0.363148   -1.922951
     39          1           0       -5.305176    2.008252   -1.535305
     40          1           0       -6.808213    1.373492   -0.844457
 ---------------------------------------------------------------------

 SCF Done:  E(RHF) =  -470.732402368     A.U. after   11 cycles
 E2 =    -0.1584485770D+01 EUMP2 =    -0.47231688813874D+03

 The electronic state is 1-A.
 Alpha  occ. eigenvalues --  -11.21692 -11.21630 -11.21596 -11.21498 -11.21456
 Alpha  occ. eigenvalues --  -11.21394 -11.21393 -11.21334 -11.21112 -11.21091
 Alpha  occ. eigenvalues --  -11.21076 -11.21054  -1.08508  -1.08399  -1.03641
 Alpha  occ. eigenvalues --   -1.03469  -0.96044  -0.95961  -0.87054  -0.86980
 Alpha  occ. eigenvalues --   -0.79711  -0.79536  -0.78367  -0.78155  -0.65171
 Alpha  occ. eigenvalues --   -0.65087  -0.61153  -0.60970  -0.59355  -0.59237
 Alpha  occ. eigenvalues --   -0.57631  -0.57525  -0.55377  -0.55190  -0.52714
 Alpha  occ. eigenvalues --   -0.52658  -0.52461  -0.52377  -0.49993  -0.49878
 Alpha  occ. eigenvalues --   -0.47996  -0.47874  -0.46717  -0.46588  -0.45980
 Alpha  occ. eigenvalues --   -0.45764  -0.45753  -0.45495  -0.43823  -0.43766
 Alpha virt. eigenvalues --    0.20232   0.23083   0.23661   0.24549   0.25908
 Alpha virt. eigenvalues --    0.26401   0.26654   0.27760   0.28032   0.29408
 Alpha virt. eigenvalues --    0.30516   0.30935   0.31530   0.31788   0.32227

 Mulliken charges:
               1
     1  C   -0.300248
     2  C   -0.299694
     3  C   -0.475654
     4  H    0.149795
     5  H    0.151036
     6  H    0.152034
     7  H    0.152178
     8  H    0.154819
     9  H    0.155188
    10  H    0.160285
    11  C   -0.299702
    12  C   -0.311857
    13  C   -0.476628
    14  H    0.149817
    15  H    0.150080
    16  H    0.152674
    17  H    0.164556
    18  H    0.155444
    19  H    0.155372
    20  H    0.160033
    21  C   -0.298074
    22  C   -0.303588
    23  C   -0.484016
    24  H    0.149788
    25  H    0.149946
    26  H    0.153189
    27  H    0.152900
    28  H    0.155856
    29  H    0.155085
    30  H    0.168883
    31  C   -0.298422
    32  C   -0.299722
    33  C   -0.475735
    34  H    0.149630
    35  H    0.149859
    36  H    0.151981
    37  H    0.152016
    38  H    0.155264
    39  H    0.155275
    40  H    0.160360
 Sum of Mulliken charges =  -0.00000

 Dipole moment (field-independent basis, Debye):
    X=             -0.0334    Y=             -0.0007    Z=             -0.0035  Tot=              0.0336
 Quadrupole moment (field-independent basis, Debye-Ang):
   XX=            -84.6949   YY=            -85.2927   ZZ=            -84.8289
   XY=              0.6021   XZ=             -0.9645   YZ=              0.6787

 Normal termination of Gaussian 16 at Wed May  5 21:28:49 2021.
