 Gaussian 16, Revision A.03,
 Gaussian 16:  EM64L-G16RevA.03 25-Dec-2016

 -------------
 #p 6-31g* mp2
 -------------

 ------------------------------------------------------
 Input file generated by CHIRIPA (05-May-2021 14:51:12)
 ------------------------------------------------------
 Symbolic Z-matrix:
 Charge =  0 Multiplicity = 1

                         Standard orientation:
 ---------------------------------------------------------------------
 Center     Atomic      Atomic             Coordinates (Angstroms)
 Number     Number       Type             X           Y           Z
 ---------------------------------------------------------------------
      1          6           0        3.907663   -0.015774    0.359662
      2          6           0        2.680213   -0.778039   -0.140643
      3          6           0        1.378056   -0.278074    0.485631
      4          1           0        3.966753   -0.105726    1.452988
      5          1           0        3.781124    1.053480    0.140393
      6          1           0        2.809649   -1.845719    0.078266
      7          1           0        2.624144   -0.686422   -1.232924
      8          1           0        1.221964    0.780969    0.256146
      9          1           0        1.408523   -0.384915    1.574785
     10          1           0        0.513410   -0.836761    0.113992
     11          6           0        5.217077   -0.504099   -0.257347
     12          6           0        6.444527    0.258165    0.242957
     13          6           0        7.746683   -0.241799   -0.383316
     14          1           0        5.343616   -1.573353   -0.038078
     15          1           0        5.157986   -0.414148   -1.350673
     16          1           0        6.500595    0.166549    1.335239
     17          1           0        6.315091    1.325846    0.024049
     18          1           0        7.716217   -0.134959   -1.472471
     19          1           0        7.902775   -1.300843   -0.153831
     20          1           0        8.611330    0.316888   -0.011678
     21          6           0       -3.801774    0.269434    0.018382
     22          6           0       -3.193041    1.659486   -0.169198
     23          6           0       -1.670671    1.662239   -0.027151
     24          1           0       -3.523851   -0.114910    1.009332
     25          1           0       -3.362644   -0.417919   -0.717896
     26          1           0       -3.634204    2.344335    0.566310
     27          1           0       -3.472604    2.040646   -1.159742
     28          1           0       -1.213213    1.001286   -0.770437
     29          1           0       -1.375731    1.306700    0.965423
     30          1           0       -1.256420    2.665866   -0.164951
     31          6           0       -5.322966    0.250439   -0.120696
     32          6           0       -5.931699   -1.139612    0.066883
     33          6           0       -7.454068   -1.142365   -0.075163
     34          1           0       -5.762096    0.937793    0.615582
     35          1           0       -5.600888    0.634783   -1.111647
     36          1           0       -5.652136   -1.520772    1.057427
     37          1           0       -5.490536   -1.824461   -0.668626
     38          1           0       -7.749009   -0.786826   -1.067737
     39          1           0       -7.911527   -0.481412    0.668123
     40          1           0       -7.868321   -2.145992    0.062636
 ---------------------------------------------------------------------

 SCF Done:  E(RHF) =  -470.732555753     A.U. after   11 cycles
 E2 =    -0.1582632091D+01 EUMP2 =    -0.47231518784330D+03

 The electronic state is 1-A.
 Alpha  occ. eigenvalues --  -11.21583 -11.21575 -11.21527 -11.21518 -11.21374
 Alpha  occ. eigenvalues --  -11.21362 -11.21314 -11.21301 -11.21057 -11.21051
 Alpha  occ. eigenvalues --  -11.20937 -11.20914  -1.08398  -1.08376  -1.03520
 Alpha  occ. eigenvalues --   -1.03439  -0.96024  -0.95837  -0.87107  -0.86793
 Alpha  occ. eigenvalues --   -0.79694  -0.79401  -0.78231  -0.78166  -0.65030
 Alpha  occ. eigenvalues --   -0.65007  -0.60919  -0.60841  -0.59379  -0.59242
 Alpha  occ. eigenvalues --   -0.57567  -0.57517  -0.55294  -0.55152  -0.52859
 Alpha  occ. eigenvalues --   -0.52646  -0.52353  -0.52105  -0.49940  -0.49783
 Alpha  occ. eigenvalues --   -0.47921  -0.47775  -0.46613  -0.46522  -0.45799
 Alpha  occ. eigenvalues --   -0.45707  -0.45669  -0.45614  -0.43740  -0.43696
 Alpha virt. eigenvalues --    0.22479   0.22986   0.23643   0.24792   0.26522
 Alpha virt. eigenvalues --    0.26604   0.26814   0.27430   0.27721   0.29238
 Alpha virt. eigenvalues --    0.30422   0.30976   0.31607   0.32019   0.32080

 Mulliken charges:
               1
     1  C   -0.298381
     2  C   -0.300685
     3  C   -0.476977
     4  H    0.149444
     5  H    0.149509
     6  H    0.151238
     7  H    0.151257
     8  H    0.161012
     9  H    0.153407
    10  H    0.160782
    11  C   -0.298176
    12  C   -0.299593
    13  C   -0.475669
    14  H    0.149421
    15  H    0.149500
    16  H    0.151864
    17  H    0.151865
    18  H    0.155116
    19  H    0.155129
    20  H    0.160151
    21  C   -0.298165
    22  C   -0.300969
    23  C   -0.476547
    24  H    0.149707
    25  H    0.148895
    26  H    0.151384
    27  H    0.151265
    28  H    0.157735
    29  H    0.158372
    30  H    0.158281
    31  C   -0.298155
    32  C   -0.299605
    33  C   -0.475682
    34  H    0.149521
    35  H    0.149555
    36  H    0.151915
    37  H    0.151802
    38  H    0.155136
    39  H    0.155166
    40  H    0.160172
 Sum of Mulliken charges =  -0.00000

 Dipole moment (field-independent basis, Debye):
    X=             -0.0030    Y=              0.0116    Z=              0.0089  Tot=              0.0149
 Quadrupole moment (field-independent basis, Debye-Ang):
   XX=            -87.3463   YY=            -84.4677   ZZ=            -83.3179
   XY=              0.0629   XZ=              0.2561   YZ=             -0.4356

 Normal termination of Gaussian 16 at Thu May  6 00:43:03 2021.
