 Gaussian 16, Revision A.03,
 Gaussian 16:  EM64L-G16RevA.03 25-Dec-2016

 -------------
 #p 6-31g* mp2
 -------------

 ------------------------------------------------------
 Input file generated by CHIRIPA (05-May-2021 14:55:19)
 ------------------------------------------------------
 Symbolic Z-matrix:
 Charge =  0 Multiplicity = 1

                         Standard orientation:
 ---------------------------------------------------------------------
 Center     Atomic      Atomic             Coordinates (Angstroms)
 Number     Number       Type             X           Y           Z
 ---------------------------------------------------------------------
      1          6           0       -5.280105   -0.441918    0.460925
      2          6           0       -4.871833    0.835337    0.062862
      3          6           0       -3.534915    1.084501   -0.261355
      4          6           0       -2.628856    0.028526   -0.176139
      5          6           0       -3.004824   -1.254936    0.217134
      6          6           0       -4.346943   -1.481146    0.536657
      7          1           0       -6.320674   -0.626560    0.710962
      8          1           0       -5.594349    1.644317    0.003145
      9          1           0       -3.191665    2.063691   -0.572458
     10          1           0       -2.261513   -2.041323    0.267148
     11          1           0       -4.661163   -2.474088    0.845490
     12          7           0       -1.210768    0.280155   -0.516889
     13          8           0       -0.432007   -0.667084   -0.433780
     14          8           0       -0.904884    1.419855   -0.860625
     15          6           0        3.892963    0.726848   -0.009392
     16          6           0        3.035106    1.806807    0.650724
     17          6           0        3.505440    3.222447    0.315245
     18          1           0        4.937327    0.852536    0.307548
     19          1           0        3.877370    0.870927   -1.098609
     20          1           0        3.051194    1.659900    1.738279
     21          1           0        1.992630    1.678416    0.332327
     22          1           0        3.472614    3.393281   -0.765653
     23          1           0        4.537193    3.374661    0.648288
     24          1           0        2.878223    3.978715    0.797445
     25          6           0        3.435226   -0.693706    0.316539
     26          6           0        4.293083   -1.773666   -0.343578
     27          6           0        3.822749   -3.189305   -0.008098
     28          1           0        3.450818   -0.837786    1.405755
     29          1           0        2.390861   -0.819395   -0.000400
     30          1           0        5.335558   -1.645275   -0.025181
     31          1           0        4.276995   -1.626760   -1.431133
     32          1           0        2.790996   -3.341520   -0.341142
     33          1           0        3.855574   -3.360140    1.072799
     34          1           0        4.449966   -3.945574   -0.490299
 ---------------------------------------------------------------------

 SCF Done:  E(RHF) =  -669.537193192     A.U. after   15 cycles
 E2 =    -0.2091939404D+01 EUMP2 =    -0.67162913259530D+03

 The electronic state is 1-A.
 Alpha  occ. eigenvalues --  -20.61201 -20.61196 -15.86191 -11.31426 -11.27973
 Alpha  occ. eigenvalues --  -11.27969 -11.27696 -11.26959 -11.26949 -11.20353
 Alpha  occ. eigenvalues --  -11.20031 -11.19970 -11.19877 -11.19779 -11.19662
 Alpha  occ. eigenvalues --   -1.60229  -1.39789  -1.19581  -1.09003  -1.06938
 Alpha  occ. eigenvalues --   -1.04962  -1.02174  -0.95858  -0.94645  -0.86367
 Alpha  occ. eigenvalues --   -0.85676  -0.82697  -0.78233  -0.77760  -0.76726
 Alpha  occ. eigenvalues --   -0.72406  -0.71527  -0.70689  -0.65238  -0.64966
 Alpha  occ. eigenvalues --   -0.63549  -0.62309  -0.59565  -0.58028  -0.56257
 Alpha  occ. eigenvalues --   -0.55472  -0.53930  -0.53299  -0.53052  -0.51403
 Alpha  occ. eigenvalues --   -0.51088  -0.49221  -0.49180  -0.48577  -0.46566
 Alpha  occ. eigenvalues --   -0.45323  -0.45103  -0.44314  -0.44023  -0.42385
 Alpha  occ. eigenvalues --   -0.37554  -0.36558
 Alpha virt. eigenvalues --    0.04743   0.11099   0.16257   0.21230   0.24374
 Alpha virt. eigenvalues --    0.25567   0.27169   0.27914   0.28267   0.29027
 Alpha virt. eigenvalues --    0.29451   0.30872   0.32294   0.32651   0.33065

 Mulliken charges:
               1
     1  C   -0.170220
     2  C   -0.218660
     3  C   -0.170176
     4  C    0.157970
     5  C   -0.170511
     6  C   -0.218618
     7  H    0.226519
     8  H    0.224306
     9  H    0.276193
    10  H    0.276155
    11  H    0.224374
    12  N    0.491199
    13  O   -0.460908
    14  O   -0.458731
    15  C   -0.295298
    16  C   -0.307734
    17  C   -0.473748
    18  H    0.141690
    19  H    0.149157
    20  H    0.143781
    21  H    0.174762
    22  H    0.155201
    23  H    0.148938
    24  H    0.156007
    25  C   -0.312574
    26  C   -0.297568
    27  C   -0.475364
    28  H    0.141341
    29  H    0.181249
    30  H    0.146305
    31  H    0.150716
    32  H    0.158169
    33  H    0.151296
    34  H    0.154783
 Sum of Mulliken charges =  -0.00000

 Dipole moment (field-independent basis, Debye):
    X=             -5.5721    Y=             -0.8957    Z=              1.0815  Tot=              5.7463
 Quadrupole moment (field-independent basis, Debye-Ang):
   XX=            -70.2960   YY=            -92.2355   ZZ=            -95.4250
   XY=              0.8078   XZ=             -2.0391   YZ=             -0.9338

 Normal termination of Gaussian 16 at Thu May  6 06:06:15 2021.
