 Gaussian 16, Revision A.03,
 Gaussian 16:  EM64L-G16RevA.03 25-Dec-2016

 -------------
 #p 6-31g* mp2
 -------------

 ------------------------------------------------------
 Input file generated by CHIRIPA (05-May-2021 14:57:24)
 ------------------------------------------------------
 Symbolic Z-matrix:
 Charge =  0 Multiplicity = 1

                         Standard orientation:
 ---------------------------------------------------------------------
 Center     Atomic      Atomic             Coordinates (Angstroms)
 Number     Number       Type             X           Y           Z
 ---------------------------------------------------------------------
      1          6           0        1.649698    1.878643   -0.236837
      2          6           0        1.465718    0.661692   -0.901445
      3          6           0        2.483016   -0.297079   -0.921783
      4          6           0        3.676856   -0.004485   -0.264193
      5          6           0        3.890451    1.198707    0.406625
      6          6           0        2.859344    2.142800    0.413929
      7          1           0        0.854073    2.617738   -0.226100
      8          1           0        0.527342    0.453824   -1.407690
      9          1           0        2.367314   -1.247395   -1.428665
     10          1           0        4.836944    1.377261    0.902295
     11          1           0        3.005027    3.087041    0.930873
     12          7           0        4.761133   -1.011723   -0.278826
     13          8           0        5.803560   -0.729752    0.308094
     14          8           0        4.548031   -2.064096   -0.876937
     15          6           0       -1.450061   -0.277946    1.730686
     16          6           0       -1.770511    0.912273    1.069466
     17          6           0       -2.902874    0.988257    0.253055
     18          6           0       -3.696157   -0.150264    0.119774
     19          6           0       -3.403325   -1.350527    0.765459
     20          6           0       -2.266051   -1.403562    1.576843
     21          1           0       -0.568507   -0.328059    2.362942
     22          1           0       -1.138626    1.788018    1.187094
     23          1           0       -3.174288    1.896962   -0.270402
     24          1           0       -4.052428   -2.206904    0.628716
     25          1           0       -2.019630   -2.329235    2.089144
     26          7           0       -4.897537   -0.081971   -0.741863
     27          8           0       -5.580202   -1.099031   -0.842832
     28          8           0       -5.133766    0.987325   -1.299932
 ---------------------------------------------------------------------

 SCF Done:  E(RHF) =  -868.337056208     A.U. after   16 cycles
 E2 =    -0.2601139678D+01 EUMP2 =    -0.87093819588597D+03

 The electronic state is 1-A.
 Alpha  occ. eigenvalues --  -20.61354 -20.61342 -20.61328 -20.61322 -15.86411
 Alpha  occ. eigenvalues --  -15.86381 -11.31880 -11.31869 -11.28526 -11.28424
 Alpha  occ. eigenvalues --  -11.28415 -11.28375 -11.28239 -11.28178 -11.27559
 Alpha  occ. eigenvalues --  -11.27515 -11.27427 -11.27408  -1.60426  -1.60401
 Alpha  occ. eigenvalues --   -1.39977  -1.39950  -1.20081  -1.20035  -1.09476
 Alpha  occ. eigenvalues --   -1.09390  -1.05510  -1.05427  -0.96264  -0.96229
 Alpha  occ. eigenvalues --   -0.86919  -0.86791  -0.83114  -0.83029  -0.78137
 Alpha  occ. eigenvalues --   -0.78062  -0.72622  -0.72594  -0.71757  -0.71728
 Alpha  occ. eigenvalues --   -0.71219  -0.71115  -0.65718  -0.65702  -0.65549
 Alpha  occ. eigenvalues --   -0.65345  -0.62851  -0.62750  -0.56082  -0.55861
 Alpha  occ. eigenvalues --   -0.54016  -0.53712  -0.53500  -0.53447  -0.49391
 Alpha  occ. eigenvalues --   -0.49373  -0.49362  -0.49345  -0.45360  -0.45328
 Alpha  occ. eigenvalues --   -0.38380  -0.37840  -0.37196  -0.36827
 Alpha virt. eigenvalues --    0.04342   0.04458   0.10083   0.11047   0.15584
 Alpha virt. eigenvalues --    0.15976   0.19464   0.21635   0.25236   0.26730
 Alpha virt. eigenvalues --    0.27740   0.28529   0.29733   0.31624   0.31930

 Mulliken charges:
               1
     1  C   -0.178704
     2  C   -0.215892
     3  C   -0.173583
     4  C    0.159039
     5  C   -0.171916
     6  C   -0.219461
     7  H    0.220707
     8  H    0.229716
     9  H    0.277954
    10  H    0.277255
    11  H    0.224476
    12  N    0.487751
    13  O   -0.458931
    14  O   -0.458611
    15  C   -0.169557
    16  C   -0.222157
    17  C   -0.175682
    18  C    0.158509
    19  C   -0.170147
    20  C   -0.219643
    21  H    0.230733
    22  H    0.217788
    23  H    0.274491
    24  H    0.278372
    25  H    0.227665
    26  N    0.488047
    27  O   -0.457782
    28  O   -0.460437
 Sum of Mulliken charges =  -0.00000

 Dipole moment (field-independent basis, Debye):
    X=              0.4274    Y=              3.0833    Z=              3.1069  Tot=              4.3980
 Quadrupole moment (field-independent basis, Debye-Ang):
   XX=           -162.8475   YY=            -98.8460   ZZ=           -103.5178
   XY=             16.7925   XZ=             -8.1481   YZ=             -0.8103

 Normal termination of Gaussian 16 at Fri May  7 04:59:06 2021.
