 Gaussian 16, Revision A.03,
 Gaussian 16:  EM64L-G16RevA.03 25-Dec-2016

 -------------
 #p 6-31g* mp2
 -------------

 ------------------------------------------------------
 Input file generated by CHIRIPA (05-May-2021 14:55:24)
 ------------------------------------------------------
 Symbolic Z-matrix:
 Charge =  0 Multiplicity = 1

                         Standard orientation:
 ---------------------------------------------------------------------
 Center     Atomic      Atomic             Coordinates (Angstroms)
 Number     Number       Type             X           Y           Z
 ---------------------------------------------------------------------
      1          6           0        2.233854    1.764141    0.313764
      2          6           0        2.045937    0.402944    0.575204
      3          6           0        3.090697   -0.506915    0.387640
      4          6           0        4.315718   -0.018853   -0.064477
      5          6           0        4.534040    1.331387   -0.333693
      6          6           0        3.475118    2.223209   -0.139052
      7          1           0        1.416758    2.463935    0.462217
      8          1           0        1.083036    0.043588    0.926956
      9          1           0        2.972656   -1.565962    0.582329
     10          1           0        5.505292    1.659709   -0.683396
     11          1           0        3.623933    3.279781   -0.342898
     12          7           0        5.429256   -0.972532   -0.266788
     13          8           0        6.498889   -0.517304   -0.665898
     14          8           0        5.211328   -2.157196   -0.022419
     15          6           0       -4.649078   -0.585242    0.123814
     16          6           0       -3.440679    0.258782    0.530481
     17          6           0       -2.167613   -0.571990    0.694547
     18          1           0       -4.813815   -1.366000    0.878945
     19          1           0       -4.424749   -1.104095   -0.818451
     20          1           0       -3.667736    0.776971    1.470981
     21          1           0       -3.278916    1.037741   -0.225609
     22          1           0       -1.913758   -1.077138   -0.242995
     23          1           0       -2.304787   -1.339390    1.463235
     24          1           0       -1.316239    0.051224    0.985452
     25          6           0       -5.929337    0.231131   -0.044113
     26          6           0       -7.137737   -0.612894   -0.450780
     27          6           0       -8.410801    0.217878   -0.614846
     28          1           0       -6.153667    0.749983    0.898152
     29          1           0       -5.764601    1.011889   -0.799245
     30          1           0       -7.299499   -1.391853    0.305310
     31          1           0       -6.910679   -1.131083   -1.391281
     32          1           0       -8.273629    0.985277   -1.383535
     33          1           0       -8.664659    0.723026    0.322696
     34          1           0       -9.262176   -0.405336   -0.905751
 ---------------------------------------------------------------------

 SCF Done:  E(RHF) =  -669.535507201     A.U. after   15 cycles
 E2 =    -0.2090651334D+01 EUMP2 =    -0.67162615853459D+03

 The electronic state is 1-A.
 Alpha  occ. eigenvalues --  -20.60719 -20.60714 -15.85772 -11.31129 -11.27699
 Alpha  occ. eigenvalues --  -11.27683 -11.27438 -11.26719 -11.26669 -11.22437
 Alpha  occ. eigenvalues --  -11.22165 -11.22021 -11.22008 -11.21880 -11.21421
 Alpha  occ. eigenvalues --   -1.59795  -1.39348  -1.19299  -1.09039  -1.08698
 Alpha  occ. eigenvalues --   -1.04700  -1.04179  -0.96645  -0.95534  -0.87672
 Alpha  occ. eigenvalues --   -0.86100  -0.82365  -0.80250  -0.78814  -0.77414
 Alpha  occ. eigenvalues --   -0.71991  -0.71118  -0.70413  -0.65660  -0.64952
 Alpha  occ. eigenvalues --   -0.64736  -0.62086  -0.61561  -0.60038  -0.58237
 Alpha  occ. eigenvalues --   -0.55909  -0.55211  -0.53481  -0.53085  -0.53031
 Alpha  occ. eigenvalues --   -0.52655  -0.50564  -0.48752  -0.48746  -0.48557
 Alpha  occ. eigenvalues --   -0.47257  -0.46367  -0.46263  -0.44756  -0.44428
 Alpha  occ. eigenvalues --   -0.37284  -0.36301
 Alpha virt. eigenvalues --    0.05119   0.11342   0.16613   0.20059   0.22429
 Alpha virt. eigenvalues --    0.23793   0.25719   0.26092   0.26913   0.28120
 Alpha virt. eigenvalues --    0.28331   0.30232   0.30802   0.31425   0.31890

 Mulliken charges:
               1
     1  C   -0.172938
     2  C   -0.225066
     3  C   -0.172758
     4  C    0.158962
     5  C   -0.171425
     6  C   -0.218557
     7  H    0.224915
     8  H    0.234020
     9  H    0.276185
    10  H    0.275358
    11  H    0.223122
    12  N    0.487966
    13  O   -0.460684
    14  O   -0.460442
    15  C   -0.299495
    16  C   -0.299212
    17  C   -0.480077
    18  H    0.151335
    19  H    0.151299
    20  H    0.153192
    21  H    0.152044
    22  H    0.159551
    23  H    0.159769
    24  H    0.149599
    25  C   -0.298726
    26  C   -0.300148
    27  C   -0.476019
    28  H    0.150007
    29  H    0.149943
    30  H    0.152800
    31  H    0.152856
    32  H    0.155454
    33  H    0.155493
    34  H    0.161677
 Sum of Mulliken charges =  -0.00000

 Dipole moment (field-independent basis, Debye):
    X=             -4.1645    Y=              3.3213    Z=              0.6911  Tot=              5.3714
 Quadrupole moment (field-independent basis, Debye-Ang):
   XX=           -127.4814   YY=            -92.4934   ZZ=            -94.2976
   XY=             17.8351   XZ=              1.9689   YZ=             -1.6305

 Normal termination of Gaussian 16 at Thu May  6 07:56:12 2021.
