 Gaussian 16, Revision A.03,
 Gaussian 16:  EM64L-G16RevA.03 25-Dec-2016

 -------------
 #p 6-31g* mp2
 -------------

 ------------------------------------------------------
 Input file generated by CHIRIPA (05-May-2021 14:53:12)
 ------------------------------------------------------
 Symbolic Z-matrix:
 Charge =  0 Multiplicity = 1

                         Standard orientation:
 ---------------------------------------------------------------------
 Center     Atomic      Atomic             Coordinates (Angstroms)
 Number     Number       Type             X           Y           Z
 ---------------------------------------------------------------------
      1          6           0       -2.786872    0.708546   -0.107441
      2          6           0       -2.527729    1.628739   -1.300787
      3          6           0       -1.355540    2.582513   -1.068229
      4          1           0       -2.981555    1.320556    0.783899
      5          1           0       -1.877651    0.128857    0.103920
      6          1           0       -3.437608    2.205516   -1.510701
      7          1           0       -2.333830    1.014466   -2.189431
      8          1           0       -0.434063    2.021866   -0.880726
      9          1           0       -1.544113    3.219684   -0.198140
     10          1           0       -1.187892    3.231092   -1.933734
     11          6           0       -3.955703   -0.250792   -0.324774
     12          6           0       -4.214846   -1.170985    0.868572
     13          6           0       -5.387035   -2.124759    0.636014
     14          1           0       -4.864924    0.328897   -0.536135
     15          1           0       -3.761021   -0.862802   -1.216114
     16          1           0       -4.408745   -0.556712    1.757216
     17          1           0       -3.304967   -1.747762    1.078486
     18          1           0       -5.198462   -2.761930   -0.234075
     19          1           0       -6.308512   -1.564112    0.448511
     20          1           0       -5.554683   -2.773338    1.501519
     21          6           0        2.073145    1.601655    1.866336
     22          6           0        1.986821    1.885706    0.499448
     23          6           0        2.295085    0.906886   -0.449992
     24          6           0        2.688022   -0.350939    0.004726
     25          6           0        2.783632   -0.664575    1.359636
     26          6           0        2.470573    0.329663    2.291318
     27          1           0        1.831816    2.368014    2.596986
     28          1           0        1.678452    2.872672    0.166506
     29          1           0        2.236729    1.099762   -1.514327
     30          1           0        3.093983   -1.657683    1.661028
     31          1           0        2.538502    0.106234    3.352218
     32          7           0        3.016905   -1.395333   -0.991004
     33          8           0        3.360589   -2.495668   -0.564647
     34          8           0        2.924772   -1.093818   -2.178958
 ---------------------------------------------------------------------

 SCF Done:  E(RHF) =  -669.534701803     A.U. after   15 cycles
 E2 =    -0.2092522460D+01 EUMP2 =    -0.67162722426319D+03

 The electronic state is 1-A.
 Alpha  occ. eigenvalues --  -20.60812 -20.60807 -15.85866 -11.31243 -11.27792
 Alpha  occ. eigenvalues --  -11.27786 -11.27518 -11.26821 -11.26779 -11.21886
 Alpha  occ. eigenvalues --  -11.21712 -11.21599 -11.21527 -11.21490 -11.21130
 Alpha  occ. eigenvalues --   -1.59888  -1.39441  -1.19414  -1.08801  -1.08620
 Alpha  occ. eigenvalues --   -1.04826  -1.03751  -0.96227  -0.95633  -0.87263
 Alpha  occ. eigenvalues --   -0.86199  -0.82473  -0.79835  -0.78425  -0.77510
 Alpha  occ. eigenvalues --   -0.72082  -0.71213  -0.70504  -0.65261  -0.65054
 Alpha  occ. eigenvalues --   -0.64808  -0.62193  -0.61138  -0.59591  -0.57831
 Alpha  occ. eigenvalues --   -0.55553  -0.55290  -0.53268  -0.52987  -0.52874
 Alpha  occ. eigenvalues --   -0.52497  -0.50153  -0.48843  -0.48837  -0.48134
 Alpha  occ. eigenvalues --   -0.46844  -0.45972  -0.45875  -0.44843  -0.44002
 Alpha  occ. eigenvalues --   -0.37381  -0.36333
 Alpha virt. eigenvalues --    0.04981   0.11217   0.16378   0.21120   0.22726
 Alpha virt. eigenvalues --    0.24172   0.26302   0.26472   0.27412   0.28156
 Alpha virt. eigenvalues --    0.28741   0.30507   0.31254   0.31570   0.32067

 Mulliken charges:
               1
     1  C   -0.298797
     2  C   -0.298971
     3  C   -0.485155
     4  H    0.146861
     5  H    0.151899
     6  H    0.152543
     7  H    0.155984
     8  H    0.158587
     9  H    0.150701
    10  H    0.159568
    11  C   -0.298855
    12  C   -0.299819
    13  C   -0.475911
    14  H    0.149347
    15  H    0.152434
    16  H    0.150208
    17  H    0.152874
    18  H    0.156982
    19  H    0.154948
    20  H    0.160289
    21  C   -0.172167
    22  C   -0.217222
    23  C   -0.172882
    24  C    0.158169
    25  C   -0.171626
    26  C   -0.218256
    27  H    0.226069
    28  H    0.228773
    29  H    0.276507
    30  H    0.275693
    31  H    0.223739
    32  N    0.488031
    33  O   -0.460274
    34  O   -0.460271
 Sum of Mulliken charges =  -0.00000

 Dipole moment (field-independent basis, Debye):
    X=             -1.1520    Y=              3.6182    Z=              3.5234  Tot=              5.1801
 Quadrupole moment (field-independent basis, Debye-Ang):
   XX=           -101.7815   YY=            -95.9496   ZZ=            -92.0594
   XY=              8.8306   XZ=             10.2576   YZ=             -3.5391

 Normal termination of Gaussian 16 at Wed May  5 18:33:11 2021.
