 Gaussian 16, Revision A.03,
 Gaussian 16:  EM64L-G16RevA.03 25-Dec-2016

 -------------
 #p 6-31g* mp2
 -------------

 ------------------------------------------------------
 Input file generated by CHIRIPA (05-May-2021 14:51:11)
 ------------------------------------------------------
 Symbolic Z-matrix:
 Charge =  0 Multiplicity = 1

                         Standard orientation:
 ---------------------------------------------------------------------
 Center     Atomic      Atomic             Coordinates (Angstroms)
 Number     Number       Type             X           Y           Z
 ---------------------------------------------------------------------
      1          6           0        5.454306    0.338081    0.196529
      2          6           0        6.343188   -0.825156   -0.244780
      3          6           0        7.801621   -0.648518    0.178971
      4          1           0        5.849171    1.273027   -0.224069
      5          1           0        5.509964    0.438885    1.289295
      6          1           0        6.284788   -0.924611   -1.336254
      7          1           0        5.946050   -1.757465    0.176760
      8          1           0        7.879672   -0.571559    1.268276
      9          1           0        8.220335    0.266027   -0.253334
     10          1           0        8.419214   -1.491354   -0.146709
     11          6           0        3.993425    0.176010   -0.219751
     12          6           0        3.104543    1.339247    0.221559
     13          6           0        1.646109    1.162609   -0.202192
     14          1           0        3.937767    0.075206   -1.312516
     15          1           0        3.598559   -0.758935    0.200847
     16          1           0        3.501681    2.271556   -0.199981
     17          1           0        3.162942    1.438702    1.313032
     18          1           0        1.227395    0.248064    0.230113
     19          1           0        1.568058    1.085651   -1.291498
     20          1           0        1.028517    2.005445    0.123487
     21          6           0       -5.390126   -0.215613    0.382840
     22          6           0       -6.561351    0.182297   -0.515984
     23          6           0       -7.887403    0.260936    0.241114
     24          1           0       -5.606649   -1.187107    0.847880
     25          1           0       -5.302835    0.510823    1.202637
     26          1           0       -6.645544   -0.543899   -1.334621
     27          1           0       -6.341931    1.152867   -0.979087
     28          1           0       -7.827554    0.999296    1.047243
     29          1           0       -8.132893   -0.707111    0.689689
     30          1           0       -8.711056    0.546938   -0.420445
     31          6           0       -4.057604   -0.298478   -0.359619
     32          6           0       -2.886379   -0.696388    0.539205
     33          6           0       -1.560328   -0.775028   -0.217892
     34          1           0       -4.144895   -1.024914   -1.179415
     35          1           0       -3.841081    0.673017   -0.824658
     36          1           0       -3.105799   -1.666958    1.002308
     37          1           0       -2.802187    0.029808    1.357842
     38          1           0       -1.314838    0.193020   -0.666468
     39          1           0       -1.620176   -1.513387   -1.024021
     40          1           0       -0.736675   -1.061030    0.443666
 ---------------------------------------------------------------------

 SCF Done:  E(RHF) =  -470.732468373     A.U. after   11 cycles
 E2 =    -0.1582623208D+01 EUMP2 =    -0.47231509158080D+03

 The electronic state is 1-A.
 Alpha  occ. eigenvalues --  -11.21584 -11.21577 -11.21549 -11.21525 -11.21378
 Alpha  occ. eigenvalues --  -11.21367 -11.21318 -11.21307 -11.21058 -11.21053
 Alpha  occ. eigenvalues --  -11.20968 -11.20929  -1.08404  -1.08382  -1.03524
 Alpha  occ. eigenvalues --   -1.03451  -0.96023  -0.95855  -0.87099  -0.86819
 Alpha  occ. eigenvalues --   -0.79676  -0.79433  -0.78229  -0.78182  -0.65041
 Alpha  occ. eigenvalues --   -0.65011  -0.60954  -0.60843  -0.59353  -0.59289
 Alpha  occ. eigenvalues --   -0.57603  -0.57501  -0.55339  -0.55135  -0.52857
 Alpha  occ. eigenvalues --   -0.52610  -0.52360  -0.52178  -0.49964  -0.49744
 Alpha  occ. eigenvalues --   -0.47880  -0.47844  -0.46634  -0.46516  -0.45788
 Alpha  occ. eigenvalues --   -0.45717  -0.45672  -0.45651  -0.43745  -0.43689
 Alpha virt. eigenvalues --    0.22503   0.22985   0.23661   0.24813   0.26374
 Alpha virt. eigenvalues --    0.26546   0.26957   0.27421   0.27669   0.29089
 Alpha virt. eigenvalues --    0.29408   0.31213   0.31681   0.31871   0.32260

 Mulliken charges:
               1
     1  C   -0.298192
     2  C   -0.299600
     3  C   -0.475675
     4  H    0.149593
     5  H    0.149370
     6  H    0.151908
     7  H    0.151858
     8  H    0.155118
     9  H    0.155140
    10  H    0.160167
    11  C   -0.298101
    12  C   -0.300726
    13  C   -0.477838
    14  H    0.149536
    15  H    0.149255
    16  H    0.151219
    17  H    0.151294
    18  H    0.161656
    19  H    0.154486
    20  H    0.158432
    21  C   -0.298229
    22  C   -0.299613
    23  C   -0.475680
    24  H    0.149566
    25  H    0.149446
    26  H    0.151889
    27  H    0.151912
    28  H    0.155144
    29  H    0.155138
    30  H    0.160192
    31  C   -0.298633
    32  C   -0.299739
    33  C   -0.477949
    34  H    0.149437
    35  H    0.149713
    36  H    0.151352
    37  H    0.151761
    38  H    0.160826
    39  H    0.154352
    40  H    0.160216
 Sum of Mulliken charges =  -0.00000

 Dipole moment (field-independent basis, Debye):
    X=             -0.0197    Y=             -0.0082    Z=             -0.0115  Tot=              0.0242
 Quadrupole moment (field-independent basis, Debye-Ang):
   XX=            -87.2590   YY=            -83.6436   ZZ=            -84.2007
   XY=              0.3170   XZ=              0.0311   YZ=             -0.2731

 Normal termination of Gaussian 16 at Wed May  5 21:27:10 2021.
