 Gaussian 16, Revision A.03,
 Gaussian 16:  EM64L-G16RevA.03 25-Dec-2016

 -------------
 #p 6-31g* mp2
 -------------

 ------------------------------------------------------
 Input file generated by CHIRIPA (05-May-2021 14:51:13)
 ------------------------------------------------------
 Symbolic Z-matrix:
 Charge =  0 Multiplicity = 1

                         Standard orientation:
 ---------------------------------------------------------------------
 Center     Atomic      Atomic             Coordinates (Angstroms)
 Number     Number       Type             X           Y           Z
 ---------------------------------------------------------------------
      1          6           0       -3.055714   -0.177056   -0.093184
      2          6           0       -4.352601   -0.979524    0.016885
      3          6           0       -4.132264   -2.484020   -0.143542
      4          1           0       -2.588621   -0.378906   -1.066850
      5          1           0       -2.349140   -0.528674    0.671350
      6          1           0       -5.057025   -0.625554   -0.746730
      7          1           0       -4.816759   -0.775592    0.990325
      8          1           0       -3.449524   -2.857642    0.626441
      9          1           0       -3.691156   -2.706752   -1.120484
     10          1           0       -5.072326   -3.038453   -0.061403
     11          6           0       -3.259683    1.328625    0.065081
     12          6           0       -1.962796    2.131093   -0.044988
     13          6           0       -2.183134    3.635589    0.115439
     14          1           0       -3.966258    1.680243   -0.699453
     15          1           0       -3.726776    1.530475    1.038748
     16          1           0       -1.498638    1.927161   -1.018428
     17          1           0       -1.258372    1.777123    0.718627
     18          1           0       -2.624242    3.858321    1.092381
     19          1           0       -2.865873    4.009212   -0.654544
     20          1           0       -1.243071    4.190022    0.033301
     21          6           0        2.727000   -1.185407    0.176199
     22          6           0        1.243608   -0.979101   -0.131970
     23          6           0        0.394933   -2.207452    0.197725
     24          1           0        3.095941   -2.050782   -0.391210
     25          1           0        2.841888   -1.436901    1.239658
     26          1           0        1.131678   -0.726712   -1.194226
     27          1           0        0.878201   -0.113999    0.436091
     28          1           0        0.476945   -2.458460    1.260208
     29          1           0        0.731862   -3.074654   -0.379371
     30          1           0       -0.662044   -2.038095   -0.030260
     31          6           0        3.588397    0.033837   -0.148096
     32          6           0        5.071790   -0.172469    0.160073
     33          6           0        5.920464    1.055883   -0.169622
     34          1           0        3.473510    0.285333   -1.211555
     35          1           0        3.219456    0.899213    0.419312
     36          1           0        5.437196   -1.037570   -0.407987
     37          1           0        5.183719   -0.424857    1.222330
     38          1           0        5.583535    1.923085    0.407474
     39          1           0        5.838453    1.306891   -1.232106
     40          1           0        6.977442    0.886526    0.058362
 ---------------------------------------------------------------------

 SCF Done:  E(RHF) =  -470.732800460     A.U. after   11 cycles
 E2 =    -0.1583811539D+01 EUMP2 =    -0.47231661199908D+03

 The electronic state is 1-A.
 Alpha  occ. eigenvalues --  -11.21624 -11.21610 -11.21575 -11.21516 -11.21421
 Alpha  occ. eigenvalues --  -11.21361 -11.21360 -11.21299 -11.21089 -11.21081
 Alpha  occ. eigenvalues --  -11.21053 -11.20897  -1.08467  -1.08370  -1.03553
 Alpha  occ. eigenvalues --   -1.03467  -0.96008  -0.95912  -0.87032  -0.86925
 Alpha  occ. eigenvalues --   -0.79667  -0.79479  -0.78320  -0.78165  -0.65119
 Alpha  occ. eigenvalues --   -0.64985  -0.60949  -0.60869  -0.59476  -0.59213
 Alpha  occ. eigenvalues --   -0.57685  -0.57466  -0.55296  -0.55200  -0.52754
 Alpha  occ. eigenvalues --   -0.52628  -0.52476  -0.52247  -0.49951  -0.49854
 Alpha  occ. eigenvalues --   -0.48103  -0.47677  -0.46704  -0.46516  -0.45842
 Alpha  occ. eigenvalues --   -0.45769  -0.45690  -0.45555  -0.43805  -0.43666
 Alpha virt. eigenvalues --    0.21366   0.23154   0.23414   0.24126   0.25702
 Alpha virt. eigenvalues --    0.26411   0.27083   0.27413   0.27883   0.29491
 Alpha virt. eigenvalues --    0.30618   0.31287   0.31542   0.31648   0.32390

 Mulliken charges:
               1
     1  C   -0.303633
     2  C   -0.299221
     3  C   -0.477815
     4  H    0.150187
     5  H    0.154759
     6  H    0.151927
     7  H    0.151903
     8  H    0.156909
     9  H    0.155412
    10  H    0.160627
    11  C   -0.297726
    12  C   -0.301542
    13  C   -0.475784
    14  H    0.149552
    15  H    0.149498
    16  H    0.152913
    17  H    0.153472
    18  H    0.155026
    19  H    0.155259
    20  H    0.160393
    21  C   -0.298098
    22  C   -0.301405
    23  C   -0.484636
    24  H    0.149553
    25  H    0.149122
    26  H    0.151254
    27  H    0.154248
    28  H    0.153060
    29  H    0.154252
    30  H    0.171006
    31  C   -0.298078
    32  C   -0.299587
    33  C   -0.475659
    34  H    0.149369
    35  H    0.149419
    36  H    0.151898
    37  H    0.151809
    38  H    0.155090
    39  H    0.155115
    40  H    0.160152
 Sum of Mulliken charges =  -0.00000

 Dipole moment (field-independent basis, Debye):
    X=             -0.0609    Y=              0.0156    Z=             -0.0051  Tot=              0.0631
 Quadrupole moment (field-independent basis, Debye-Ang):
   XX=            -85.3352   YY=            -86.6075   ZZ=            -82.8755
   XY=             -0.5835   XZ=              0.1130   YZ=              0.3100

 Normal termination of Gaussian 16 at Thu May  6 00:48:52 2021.
