 Gaussian 16, Revision A.03,
 Gaussian 16:  EM64L-G16RevA.03 25-Dec-2016

 -------------
 #p 6-31g* mp2
 -------------

 ------------------------------------------------------
 Input file generated by CHIRIPA (05-May-2021 14:55:24)
 ------------------------------------------------------
 Symbolic Z-matrix:
 Charge =  0 Multiplicity = 1

                         Standard orientation:
 ---------------------------------------------------------------------
 Center     Atomic      Atomic             Coordinates (Angstroms)
 Number     Number       Type             X           Y           Z
 ---------------------------------------------------------------------
      1          6           0       -2.193512    2.252707    0.331303
      2          6           0       -3.018178    2.123383   -0.791071
      3          6           0       -3.758523    0.955535   -0.997387
      4          6           0       -3.649897   -0.067741   -0.056963
      5          6           0       -2.837026    0.031050    1.071209
      6          6           0       -2.105722    1.207970    1.257228
      7          1           0       -1.621905    3.163443    0.483690
      8          1           0       -3.088313    2.933110   -1.511812
      9          1           0       -4.404686    0.828895   -1.857534
     10          1           0       -2.787733   -0.793300    1.772233
     11          1           0       -1.466086    1.305624    2.129795
     12          7           0       -4.428881   -1.308892   -0.264637
     13          8           0       -4.315770   -2.195900    0.578607
     14          8           0       -5.137809   -1.371196   -1.266723
     15          6           0        3.866794   -0.494525    0.295309
     16          6           0        2.651556    0.430407    0.219926
     17          6           0        1.377344   -0.222776    0.756145
     18          1           0        3.656985   -1.412045   -0.271333
     19          1           0        4.021825   -0.800426    1.339237
     20          1           0        2.499694    0.735577   -0.823351
     21          1           0        2.864354    1.345914    0.786654
     22          1           0        1.504423   -0.511889    1.804412
     23          1           0        1.137689   -1.125692    0.185261
     24          1           0        0.521051    0.455909    0.692811
     25          6           0        5.148273    0.144278   -0.237106
     26          6           0        6.363511   -0.780653   -0.161722
     27          6           0        7.637723   -0.127472   -0.697940
     28          1           0        4.993242    0.450180   -1.281033
     29          1           0        5.358081    1.061798    0.329537
     30          1           0        6.150712   -1.696160   -0.728450
     31          1           0        6.515374   -1.085825    0.881554
     32          1           0        7.877377    0.775445   -0.127056
     33          1           0        7.510645    0.161642   -1.746209
     34          1           0        8.494015   -0.806155   -0.634607
 ---------------------------------------------------------------------

 SCF Done:  E(RHF) =  -669.534927600     A.U. after   15 cycles
 E2 =    -0.2091901518D+01 EUMP2 =    -0.67162682911834D+03

 The electronic state is 1-A.
 Alpha  occ. eigenvalues --  -20.60781 -20.60776 -15.85834 -11.31220 -11.27781
 Alpha  occ. eigenvalues --  -11.27773 -11.27536 -11.26811 -11.26788 -11.22016
 Alpha  occ. eigenvalues --  -11.21819 -11.21698 -11.21631 -11.21426 -11.21267
 Alpha  occ. eigenvalues --   -1.59856  -1.39408  -1.19399  -1.08797  -1.08728
 Alpha  occ. eigenvalues --   -1.04807  -1.03838  -0.96288  -0.95619  -0.87316
 Alpha  occ. eigenvalues --   -0.86197  -0.82449  -0.79911  -0.78540  -0.77491
 Alpha  occ. eigenvalues --   -0.72053  -0.71178  -0.70497  -0.65362  -0.65049
 Alpha  occ. eigenvalues --   -0.64820  -0.62159  -0.61235  -0.59684  -0.57913
 Alpha  occ. eigenvalues --   -0.55568  -0.55301  -0.53506  -0.52921  -0.52775
 Alpha  occ. eigenvalues --   -0.52505  -0.50224  -0.48814  -0.48806  -0.48220
 Alpha  occ. eigenvalues --   -0.46941  -0.46082  -0.46004  -0.44810  -0.44106
 Alpha  occ. eigenvalues --   -0.37356  -0.36336
 Alpha virt. eigenvalues --    0.05034   0.11155   0.16505   0.21131   0.22629
 Alpha virt. eigenvalues --    0.24082   0.26335   0.26767   0.27208   0.28199
 Alpha virt. eigenvalues --    0.28442   0.30834   0.31177   0.31703   0.31919

 Mulliken charges:
               1
     1  C   -0.171776
     2  C   -0.218020
     3  C   -0.170976
     4  C    0.158548
     5  C   -0.169814
     6  C   -0.218763
     7  H    0.226176
     8  H    0.223665
     9  H    0.275729
    10  H    0.276381
    11  H    0.226165
    12  N    0.488049
    13  O   -0.460066
    14  O   -0.460390
    15  C   -0.298589
    16  C   -0.298815
    17  C   -0.483801
    18  H    0.151812
    19  H    0.149633
    20  H    0.152396
    21  H    0.148122
    22  H    0.151486
    23  H    0.159871
    24  H    0.162197
    25  C   -0.298334
    26  C   -0.299901
    27  C   -0.475825
    28  H    0.149647
    29  H    0.148674
    30  H    0.153046
    31  H    0.152174
    32  H    0.154810
    33  H    0.155355
    34  H    0.161136
 Sum of Mulliken charges =  -0.00000

 Dipole moment (field-independent basis, Debye):
    X=              2.7201    Y=              4.3520    Z=              0.7033  Tot=              5.1801
 Quadrupole moment (field-independent basis, Debye-Ang):
   XX=           -115.5814   YY=            -95.1824   ZZ=            -90.7597
   XY=            -17.4715   XZ=             -0.5668   YZ=             -1.6913

 Normal termination of Gaussian 16 at Thu May  6 09:30:42 2021.
