 Gaussian 16, Revision A.03,
 Gaussian 16:  EM64L-G16RevA.03 25-Dec-2016

 -------------
 #p 6-31g* mp2
 -------------

 ------------------------------------------------------
 Input file generated by CHIRIPA (05-May-2021 14:55:22)
 ------------------------------------------------------
 Symbolic Z-matrix:
 Charge =  0 Multiplicity = 1

                         Standard orientation:
 ---------------------------------------------------------------------
 Center     Atomic      Atomic             Coordinates (Angstroms)
 Number     Number       Type             X           Y           Z
 ---------------------------------------------------------------------
      1          6           0        1.989569    1.965767   -1.188977
      2          6           0        3.236935    1.553981   -1.669634
      3          6           0        3.875540    0.437384   -1.121964
      4          6           0        3.235248   -0.247168   -0.090119
      5          6           0        1.992601    0.138359    0.410367
      6          6           0        1.372471    1.257890   -0.152338
      7          1           0        1.500661    2.834306   -1.620260
      8          1           0        3.718536    2.101811   -2.474611
      9          1           0        4.841327    0.096758   -1.475018
     10          1           0        1.537331   -0.427943    1.213766
     11          1           0        0.403762    1.575400    0.222944
     12          7           0        3.901532   -1.430812    0.497633
     13          8           0        3.316484   -2.016852    1.405881
     14          8           0        4.996195   -1.750101    0.038937
     15          6           0       -3.642798    0.236650    0.892449
     16          6           0       -2.705699    1.439193    0.775311
     17          6           0       -1.997273    1.766866    2.090058
     18          1           0       -4.389541    0.436439    1.673093
     19          1           0       -3.066687   -0.637070    1.227270
     20          1           0       -3.283143    2.310049    0.439480
     21          1           0       -1.961217    1.236595   -0.005276
     22          1           0       -1.397064    0.915446    2.426856
     23          1           0       -2.726501    1.994999    2.874140
     24          1           0       -1.332413    2.629709    1.983650
     25          6           0       -4.358321   -0.103302   -0.413761
     26          6           0       -5.295419   -1.305844   -0.296624
     27          6           0       -6.003844   -1.633519   -1.611370
     28          1           0       -4.934432    0.770418   -0.748582
     29          1           0       -3.611578   -0.303092   -1.194405
     30          1           0       -6.039902   -1.103247    0.483964
     31          1           0       -4.717976   -2.176701    0.039207
     32          1           0       -5.274618   -1.861651   -2.395452
     33          1           0       -6.604055   -0.782099   -1.948169
     34          1           0       -6.668705   -2.496361   -1.504962
 ---------------------------------------------------------------------

 SCF Done:  E(RHF) =  -669.535390282     A.U. after   15 cycles
 E2 =    -0.2091588345D+01 EUMP2 =    -0.67162697862737D+03

 The electronic state is 1-A.
 Alpha  occ. eigenvalues --  -20.60740 -20.60734 -15.85792 -11.31148 -11.27717
 Alpha  occ. eigenvalues --  -11.27705 -11.27446 -11.26731 -11.26656 -11.22602
 Alpha  occ. eigenvalues --  -11.22133 -11.22072 -11.21989 -11.21897 -11.21381
 Alpha  occ. eigenvalues --   -1.59815  -1.39369  -1.19315  -1.09096  -1.08711
 Alpha  occ. eigenvalues --   -1.04720  -1.04219  -0.96658  -0.95550  -0.87669
 Alpha  occ. eigenvalues --   -0.86116  -0.82382  -0.80302  -0.78857  -0.77434
 Alpha  occ. eigenvalues --   -0.72011  -0.71138  -0.70428  -0.65795  -0.64965
 Alpha  occ. eigenvalues --   -0.64720  -0.62224  -0.61465  -0.60041  -0.58251
 Alpha  occ. eigenvalues --   -0.55943  -0.55199  -0.53380  -0.53100  -0.53040
 Alpha  occ. eigenvalues --   -0.52732  -0.50598  -0.48772  -0.48767  -0.48600
 Alpha  occ. eigenvalues --   -0.47333  -0.46401  -0.46292  -0.44777  -0.44448
 Alpha  occ. eigenvalues --   -0.37297  -0.36314
 Alpha virt. eigenvalues --    0.05098   0.11277   0.16561   0.19485   0.22720
 Alpha virt. eigenvalues --    0.23779   0.25799   0.26269   0.26694   0.28018
 Alpha virt. eigenvalues --    0.29115   0.30420   0.31073   0.31137   0.31927

 Mulliken charges:
               1
     1  C   -0.173327
     2  C   -0.218367
     3  C   -0.171235
     4  C    0.158917
     5  C   -0.174526
     6  C   -0.228551
     7  H    0.225833
     8  H    0.223167
     9  H    0.275414
    10  H    0.275128
    11  H    0.240722
    12  N    0.488128
    13  O   -0.460647
    14  O   -0.460607
    15  C   -0.298032
    16  C   -0.306477
    17  C   -0.482525
    18  H    0.152737
    19  H    0.151865
    20  H    0.155392
    21  H    0.146334
    22  H    0.155394
    23  H    0.164402
    24  H    0.156712
    25  C   -0.299088
    26  C   -0.300451
    27  C   -0.476149
    28  H    0.149787
    29  H    0.150043
    30  H    0.152871
    31  H    0.154078
    32  H    0.155806
    33  H    0.155101
    34  H    0.162151
 Sum of Mulliken charges =  -0.00000

 Dipole moment (field-independent basis, Debye):
    X=             -2.5716    Y=              4.1429    Z=             -2.0310  Tot=              5.2822
 Quadrupole moment (field-independent basis, Debye-Ang):
   XX=           -106.2562   YY=            -97.1768   ZZ=            -93.4290
   XY=             14.0920   XZ=            -10.2774   YZ=             -0.4506

 Normal termination of Gaussian 16 at Wed May  5 20:40:46 2021.
