 Gaussian 16, Revision A.03,
 Gaussian 16:  EM64L-G16RevA.03 25-Dec-2016

 -------------
 #p 6-31g* mp2
 -------------

 ------------------------------------------------------
 Input file generated by CHIRIPA (05-May-2021 14:57:24)
 ------------------------------------------------------
 Symbolic Z-matrix:
 Charge =  0 Multiplicity = 1

                         Standard orientation:
 ---------------------------------------------------------------------
 Center     Atomic      Atomic             Coordinates (Angstroms)
 Number     Number       Type             X           Y           Z
 ---------------------------------------------------------------------
      1          6           0       -4.755776    1.898214   -0.449751
      2          6           0       -5.350844    0.669173   -0.752859
      3          6           0       -4.692024   -0.529356   -0.462973
      4          6           0       -3.433572   -0.461585    0.132844
      5          6           0       -2.814481    0.747281    0.446942
      6          6           0       -3.491723    1.933283    0.148128
      7          1           0       -5.274719    2.824394   -0.678410
      8          1           0       -6.332436    0.638900   -1.217192
      9          1           0       -5.129577   -1.494654   -0.686947
     10          1           0       -1.835049    0.745463    0.909682
     11          1           0       -3.027161    2.886325    0.384645
     12          7           0       -2.726358   -1.723783    0.444459
     13          8           0       -1.618448   -1.637064    0.969484
     14          8           0       -3.293345   -2.775912    0.157778
     15          6           0        2.287930    2.416835    0.223496
     16          6           0        1.591039    1.226670   -0.009681
     17          6           0        2.280030    0.022185   -0.180139
     18          6           0        3.672155    0.044422   -0.110970
     19          6           0        4.394929    1.213854    0.119932
     20          6           0        3.685187    2.406647    0.287446
     21          1           0        1.744645    3.347966    0.354768
     22          1           0        0.505911    1.231587   -0.059849
     23          1           0        1.765620   -0.913635   -0.361908
     24          1           0        5.476637    1.177389    0.164627
     25          1           0        4.229032    3.329432    0.468403
     26          7           0        4.412542   -1.224523   -0.289868
     27          8           0        5.639008   -1.178283   -0.224442
     28          8           0        3.752373   -2.241334   -0.492126
 ---------------------------------------------------------------------

 SCF Done:  E(RHF) =  -868.337146157     A.U. after   16 cycles
 E2 =    -0.2599859404D+01 EUMP2 =    -0.87093700556105D+03

 The electronic state is 1-A.
 Alpha  occ. eigenvalues --  -20.61419 -20.61372 -20.60389 -20.60360 -15.86451
 Alpha  occ. eigenvalues --  -15.85435 -11.31908 -11.30890 -11.28565 -11.28407
 Alpha  occ. eigenvalues --  -11.28180 -11.27557 -11.27536 -11.27437 -11.27422
 Alpha  occ. eigenvalues --  -11.27380 -11.26602 -11.26584  -1.60464  -1.59453
 Alpha  occ. eigenvalues --   -1.40020  -1.39001  -1.20071  -1.19111  -1.09437
 Alpha  occ. eigenvalues --   -1.08514  -1.05498  -1.04523  -0.96266  -0.95314
 Alpha  occ. eigenvalues --   -0.86886  -0.85940  -0.83102  -0.82139  -0.78157
 Alpha  occ. eigenvalues --   -0.77142  -0.72661  -0.71789  -0.71653  -0.71175
 Alpha  occ. eigenvalues --   -0.70778  -0.70250  -0.65723  -0.65514  -0.64772
 Alpha  occ. eigenvalues --   -0.64574  -0.62864  -0.61832  -0.55960  -0.55101
 Alpha  occ. eigenvalues --   -0.53802  -0.53605  -0.52858  -0.52606  -0.49427
 Alpha  occ. eigenvalues --   -0.49411  -0.48429  -0.48392  -0.45406  -0.44384
 Alpha  occ. eigenvalues --   -0.38024  -0.37146  -0.37099  -0.36119
 Alpha virt. eigenvalues --    0.04355   0.05389   0.10489   0.11486   0.15872
 Alpha virt. eigenvalues --    0.16794   0.19383   0.21979   0.25120   0.27111
 Alpha virt. eigenvalues --    0.28449   0.29066   0.30193   0.30973   0.32524

 Mulliken charges:
               1
     1  C   -0.170422
     2  C   -0.217487
     3  C   -0.169835
     4  C    0.160501
     5  C   -0.178926
     6  C   -0.218157
     7  H    0.227672
     8  H    0.226503
     9  H    0.278508
    10  H    0.272961
    11  H    0.220947
    12  N    0.488189
    13  O   -0.464286
    14  O   -0.454484
    15  C   -0.171430
    16  C   -0.221303
    17  C   -0.169692
    18  C    0.157829
    19  C   -0.170488
    20  C   -0.218948
    21  H    0.219818
    22  H    0.218453
    23  H    0.287619
    24  H    0.275237
    25  H    0.221743
    26  N    0.487772
    27  O   -0.462606
    28  O   -0.455686
 Sum of Mulliken charges =  -0.00000

 Dipole moment (field-independent basis, Debye):
    X=             -5.3638    Y=              8.6522    Z=             -0.5362  Tot=             10.1940
 Quadrupole moment (field-independent basis, Debye-Ang):
   XX=            -99.2883   YY=           -106.9312   ZZ=           -106.1344
   XY=              6.6414   XZ=              8.6048   YZ=              2.0736

 Normal termination of Gaussian 16 at Thu May  6 05:05:56 2021.
