 Gaussian 16, Revision A.03,
 Gaussian 16:  EM64L-G16RevA.03 25-Dec-2016

 -------------
 #p 6-31g* mp2
 -------------

 ------------------------------------------------------
 Input file generated by CHIRIPA (05-May-2021 14:57:22)
 ------------------------------------------------------
 Symbolic Z-matrix:
 Charge =  0 Multiplicity = 1

                         Standard orientation:
 ---------------------------------------------------------------------
 Center     Atomic      Atomic             Coordinates (Angstroms)
 Number     Number       Type             X           Y           Z
 ---------------------------------------------------------------------
      1          6           0        2.453278    2.155816    0.462234
      2          6           0        3.504206    1.802281    1.314926
      3          6           0        4.248658    0.642245    1.081141
      4          6           0        3.913372   -0.144673   -0.019601
      5          6           0        2.872048    0.180825   -0.887349
      6          6           0        2.141103    1.345388   -0.634249
      7          1           0        1.880216    3.058718    0.651346
      8          1           0        3.748888    2.429771    2.167236
      9          1           0        5.067318    0.344958    1.725217
     10          1           0        2.651779   -0.464697   -1.728896
     11          1           0        1.325470    1.617475   -1.298143
     12          7           0        4.694340   -1.375147   -0.277323
     13          8           0        4.378993   -2.051530   -1.253898
     14          8           0        5.607023   -1.639912    0.502130
     15          6           0       -5.924829   -1.278047    0.522455
     16          6           0       -4.689701   -1.875996    0.793445
     17          6           0       -3.497508   -1.209334    0.495471
     18          6           0       -3.577756    0.059814   -0.075595
     19          6           0       -4.792944    0.682030   -0.357470
     20          6           0       -5.972425   -0.003190   -0.051127
     21          1           0       -6.846015   -1.803134    0.757179
     22          1           0       -4.649701   -2.865971    1.238859
     23          1           0       -2.527724   -1.648894    0.694779
     24          1           0       -4.800826    1.669884   -0.801878
     25          1           0       -6.930218    0.463633   -0.262681
     26          7           0       -2.322363    0.775402   -0.395477
     27          8           0       -2.420069    1.892679   -0.898252
     28          8           0       -1.264453    0.205453   -0.137369
 ---------------------------------------------------------------------

 SCF Done:  E(RHF) =  -868.340213469     A.U. after   16 cycles
 E2 =    -0.2598633218D+01 EUMP2 =    -0.87093884668701D+03

 The electronic state is 1-A.
 Alpha  occ. eigenvalues --  -20.61640 -20.61620 -20.59882 -20.59874 -15.86639
 Alpha  occ. eigenvalues --  -15.84919 -11.31728 -11.30009 -11.28274 -11.28245
 Alpha  occ. eigenvalues --  -11.27956 -11.27222 -11.27197 -11.26568 -11.26419
 Alpha  occ. eigenvalues --  -11.26129 -11.25575 -11.25262  -1.60702  -1.58961
 Alpha  occ. eigenvalues --   -1.40255  -1.38522  -1.19876  -1.18118  -1.09327
 Alpha  occ. eigenvalues --   -1.07558  -1.05234  -1.03459  -0.96206  -0.94453
 Alpha  occ. eigenvalues --   -0.86645  -0.84867  -0.83042  -0.81288  -0.78122
 Alpha  occ. eigenvalues --   -0.76379  -0.72869  -0.71996  -0.71148  -0.70978
 Alpha  occ. eigenvalues --   -0.70279  -0.69225  -0.65529  -0.65234  -0.63760
 Alpha  occ. eigenvalues --   -0.63433  -0.62581  -0.60813  -0.55748  -0.53963
 Alpha  occ. eigenvalues --   -0.53582  -0.53319  -0.51829  -0.51549  -0.49647
 Alpha  occ. eigenvalues --   -0.49594  -0.47917  -0.47872  -0.45717  -0.43991
 Alpha  occ. eigenvalues --   -0.37842  -0.36824  -0.36071  -0.35019
 Alpha virt. eigenvalues --    0.04387   0.06113   0.10834   0.12625   0.15941
 Alpha virt. eigenvalues --    0.17708   0.21017   0.22770   0.26946   0.27888
 Alpha virt. eigenvalues --    0.28739   0.29542   0.30607   0.32101   0.32365

 Mulliken charges:
               1
     1  C   -0.172580
     2  C   -0.219196
     3  C   -0.174440
     4  C    0.157304
     5  C   -0.173788
     6  C   -0.204621
     7  H    0.225904
     8  H    0.218170
     9  H    0.270450
    10  H    0.272655
    11  H    0.237542
    12  N    0.488100
    13  O   -0.463177
    14  O   -0.464621
    15  C   -0.169783
    16  C   -0.218633
    17  C   -0.170585
    18  C    0.157420
    19  C   -0.170706
    20  C   -0.218650
    21  H    0.227705
    22  H    0.226118
    23  H    0.277646
    24  H    0.275267
    25  H    0.224854
    26  N    0.488763
    27  O   -0.464662
    28  O   -0.462459
 Sum of Mulliken charges =  -0.00000

 Dipole moment (field-independent basis, Debye):
    X=             -7.7548    Y=              1.8376    Z=              1.9641  Tot=              8.2080
 Quadrupole moment (field-independent basis, Debye-Ang):
   XX=            -93.6667   YY=           -104.1471   ZZ=           -102.3843
   XY=             25.1285   XZ=              3.0453   YZ=             -0.9244

 Normal termination of Gaussian 16 at Fri May  7 00:10:27 2021.
