 Gaussian 16, Revision A.03,
 Gaussian 16:  EM64L-G16RevA.03 25-Dec-2016

 -------------
 #p 6-31g* mp2
 -------------

 ------------------------------------------------------
 Input file generated by CHIRIPA (05-May-2021 14:51:11)
 ------------------------------------------------------
 Symbolic Z-matrix:
 Charge =  0 Multiplicity = 1

                         Standard orientation:
 ---------------------------------------------------------------------
 Center     Atomic      Atomic             Coordinates (Angstroms)
 Number     Number       Type             X           Y           Z
 ---------------------------------------------------------------------
      1          6           0        3.146587   -0.409166   -0.158113
      2          6           0        3.453468   -1.855742   -0.546993
      3          6           0        2.207820   -2.742346   -0.556311
      4          1           0        2.677168   -0.394870    0.835056
      5          1           0        2.407463    0.002721   -0.859141
      6          1           0        4.192829   -2.264334    0.153731
      7          1           0        3.922386   -1.866581   -1.539271
      8          1           0        1.469066   -2.361290   -1.268799
      9          1           0        1.741045   -2.761304    0.433822
     10          1           0        2.450083   -3.772111   -0.836943
     11          6           0        4.381858    0.489525   -0.144299
     12          6           0        4.074977    1.936101    0.244581
     13          6           0        5.320625    2.822705    0.253898
     14          1           0        5.120982    0.077638    0.556728
     15          1           0        4.851277    0.475229   -1.137468
     16          1           0        3.606059    1.946940    1.236858
     17          1           0        3.335616    2.344693   -0.456143
     18          1           0        5.787400    2.841663   -0.736234
     19          1           0        6.059379    2.441649    0.966386
     20          1           0        5.078362    3.852470    0.534531
     21          6           0       -4.458972    0.221142    0.331391
     22          6           0       -5.086745    1.081169   -0.765986
     23          6           0       -6.476477    1.596563   -0.390737
     24          1           0       -5.121141   -0.628764    0.546186
     25          1           0       -4.395211    0.809485    1.257233
     26          1           0       -5.148033    0.491827   -1.689856
     27          1           0       -4.422913    1.929021   -0.978328
     28          1           0       -6.428868    2.206992    0.516848
     29          1           0       -7.158108    0.761632   -0.198723
     30          1           0       -6.906679    2.208979   -1.189318
     31          6           0       -3.069474   -0.301501   -0.028979
     32          6           0       -2.441699   -1.161528    1.068399
     33          6           0       -1.051969   -1.676922    0.693149
     34          1           0       -3.133234   -0.889844   -0.954820
     35          1           0       -2.407304    0.548405   -0.243774
     36          1           0       -3.105532   -2.009381    1.280740
     37          1           0       -2.380411   -0.572186    1.992268
     38          1           0       -0.370337   -0.841991    0.501136
     39          1           0       -1.099577   -2.287351   -0.214436
     40          1           0       -0.621766   -2.289339    1.491729
 ---------------------------------------------------------------------

 SCF Done:  E(RHF) =  -470.732698628     A.U. after   11 cycles
 E2 =    -0.1583036823D+01 EUMP2 =    -0.47231573545177D+03

 The electronic state is 1-A.
 Alpha  occ. eigenvalues --  -11.21598 -11.21587 -11.21527 -11.21524 -11.21380
 Alpha  occ. eigenvalues --  -11.21378 -11.21319 -11.21318 -11.21068 -11.21060
 Alpha  occ. eigenvalues --  -11.20970 -11.20883  -1.08410  -1.08383  -1.03530
 Alpha  occ. eigenvalues --   -1.03441  -0.96016  -0.95854  -0.87082  -0.86827
 Alpha  occ. eigenvalues --   -0.79711  -0.79403  -0.78262  -0.78148  -0.65037
 Alpha  occ. eigenvalues --   -0.65018  -0.60914  -0.60860  -0.59347  -0.59279
 Alpha  occ. eigenvalues --   -0.57619  -0.57485  -0.55255  -0.55187  -0.52837
 Alpha  occ. eigenvalues --   -0.52616  -0.52446  -0.52096  -0.49906  -0.49825
 Alpha  occ. eigenvalues --   -0.48070  -0.47649  -0.46626  -0.46541  -0.45875
 Alpha  occ. eigenvalues --   -0.45696  -0.45662  -0.45566  -0.43742  -0.43712
 Alpha virt. eigenvalues --    0.22054   0.23048   0.23544   0.24872   0.26382
 Alpha virt. eigenvalues --    0.26463   0.26533   0.27457   0.27753   0.29382
 Alpha virt. eigenvalues --    0.29851   0.30319   0.31580   0.32020   0.32373

 Mulliken charges:
               1
     1  C   -0.299329
     2  C   -0.299857
     3  C   -0.478202
     4  H    0.150316
     5  H    0.149400
     6  H    0.151263
     7  H    0.151261
     8  H    0.156484
     9  H    0.161035
    10  H    0.158458
    11  C   -0.298187
    12  C   -0.299633
    13  C   -0.475663
    14  H    0.149532
    15  H    0.149676
    16  H    0.151729
    17  H    0.151664
    18  H    0.155219
    19  H    0.155216
    20  H    0.160132
    21  C   -0.298174
    22  C   -0.299593
    23  C   -0.475678
    24  H    0.149623
    25  H    0.149475
    26  H    0.151835
    27  H    0.151841
    28  H    0.155160
    29  H    0.155167
    30  H    0.160171
    31  C   -0.298378
    32  C   -0.301393
    33  C   -0.475897
    34  H    0.149225
    35  H    0.149449
    36  H    0.151522
    37  H    0.151303
    38  H    0.158395
    39  H    0.156763
    40  H    0.158669
 Sum of Mulliken charges =  -0.00000

 Dipole moment (field-independent basis, Debye):
    X=              0.0010    Y=             -0.0151    Z=              0.0015  Tot=              0.0152
 Quadrupole moment (field-independent basis, Debye-Ang):
   XX=            -86.4858   YY=            -84.8541   ZZ=            -83.6828
   XY=              0.1942   XZ=              0.4814   YZ=              0.0047

 Normal termination of Gaussian 16 at Wed May  5 16:43:45 2021.
