 Gaussian 16, Revision A.03,
 Gaussian 16:  EM64L-G16RevA.03 25-Dec-2016

 -------------
 #p 6-31g* mp2
 -------------

 ------------------------------------------------------
 Input file generated by CHIRIPA (05-May-2021 14:57:27)
 ------------------------------------------------------
 Symbolic Z-matrix:
 Charge =  0 Multiplicity = 1

                         Standard orientation:
 ---------------------------------------------------------------------
 Center     Atomic      Atomic             Coordinates (Angstroms)
 Number     Number       Type             X           Y           Z
 ---------------------------------------------------------------------
      1          6           0       -4.396685   -2.249390    0.102272
      2          6           0       -5.411891   -1.288720    0.047597
      3          6           0       -5.098791    0.070694   -0.044655
      4          6           0       -3.753880    0.435719   -0.080152
      5          6           0       -2.719801   -0.497657   -0.027437
      6          6           0       -3.056243   -1.851495    0.064646
      7          1           0       -4.648975   -3.303250    0.173870
      8          1           0       -6.453765   -1.594826    0.076634
      9          1           0       -5.864785    0.835382   -0.088533
     10          1           0       -1.690367   -0.161906   -0.058321
     11          1           0       -2.265730   -2.595366    0.106945
     12          7           0       -3.410059    1.871918   -0.177726
     13          8           0       -2.217460    2.167662   -0.207362
     14          8           0       -4.339683    2.674671   -0.222721
     15          6           0        1.467779   -1.055967    0.442227
     16          6           0        2.128901   -0.354969    1.456150
     17          6           0        3.427103    0.124446    1.257705
     18          6           0        4.037036   -0.116169    0.027512
     19          6           0        3.404588   -0.811230   -1.002144
     20          6           0        2.106606   -1.281463   -0.781526
     21          1           0        0.459390   -1.424823    0.604996
     22          1           0        1.635235   -0.178371    2.407545
     23          1           0        3.962079    0.670102    2.025481
     24          1           0        3.922571   -0.971729   -1.939881
     25          1           0        1.595598   -1.825557   -1.570752
     26          7           0        5.411267    0.386506   -0.194309
     27          8           0        5.926776    0.161402   -1.287111
     28          8           0        5.946862    0.996088    0.728830
 ---------------------------------------------------------------------

 SCF Done:  E(RHF) =  -868.336499446     A.U. after   16 cycles
 E2 =    -0.2600156923D+01 EUMP2 =    -0.87093665636959D+03

 The electronic state is 1-A.
 Alpha  occ. eigenvalues --  -20.61386 -20.61378 -20.60825 -20.60818 -15.86444
 Alpha  occ. eigenvalues --  -15.85879 -11.31956 -11.31356 -11.28623 -11.28490
 Alpha  occ. eigenvalues --  -11.28289 -11.27917 -11.27882 -11.27843 -11.27681
 Alpha  occ. eigenvalues --  -11.27512 -11.27055 -11.26989  -1.60459  -1.59895
 Alpha  occ. eigenvalues --   -1.40008  -1.39445  -1.20143  -1.19538  -1.09499
 Alpha  occ. eigenvalues --   -1.08953  -1.05590  -1.04944  -0.96315  -0.95768
 Alpha  occ. eigenvalues --   -0.86966  -0.86361  -0.83165  -0.82583  -0.78194
 Alpha  occ. eigenvalues --   -0.77579  -0.72658  -0.72100  -0.71787  -0.71299
 Alpha  occ. eigenvalues --   -0.71214  -0.70711  -0.65799  -0.65600  -0.65211
 Alpha  occ. eigenvalues --   -0.64970  -0.62949  -0.62283  -0.56080  -0.55544
 Alpha  occ. eigenvalues --   -0.53880  -0.53697  -0.53251  -0.53056  -0.49428
 Alpha  occ. eigenvalues --   -0.49405  -0.48868  -0.48845  -0.45383  -0.44826
 Alpha  occ. eigenvalues --   -0.38102  -0.37567  -0.37196  -0.36513
 Alpha virt. eigenvalues --    0.04366   0.04894   0.10467   0.11127   0.15815
 Alpha virt. eigenvalues --    0.16189   0.18169   0.22048   0.24803   0.27094
 Alpha virt. eigenvalues --    0.27431   0.29572   0.29923   0.31485   0.32368

 Mulliken charges:
               1
     1  C   -0.170072
     2  C   -0.218306
     3  C   -0.169392
     4  C    0.159729
     5  C   -0.176640
     6  C   -0.220425
     7  H    0.227792
     8  H    0.226481
     9  H    0.278301
    10  H    0.273248
    11  H    0.217186
    12  N    0.487795
    13  O   -0.459740
    14  O   -0.457572
    15  C   -0.173092
    16  C   -0.215475
    17  C   -0.169533
    18  C    0.160298
    19  C   -0.169816
    20  C   -0.217064
    21  H    0.215359
    22  H    0.225944
    23  H    0.277585
    24  H    0.276696
    25  H    0.221222
    26  N    0.487962
    27  O   -0.459647
    28  O   -0.458826
 Sum of Mulliken charges =  -0.00000

 Dipole moment (field-independent basis, Debye):
    X=             -6.0903    Y=             -6.6819    Z=              1.1376  Tot=              9.1123
 Quadrupole moment (field-independent basis, Debye-Ang):
   XX=           -128.6764   YY=           -109.1485   ZZ=           -101.4297
   XY=             10.8785   XZ=              2.0288   YZ=              2.5268

 Normal termination of Gaussian 16 at Fri May  7 06:39:38 2021.
