 Gaussian 16, Revision A.03,
 Gaussian 16:  EM64L-G16RevA.03 25-Dec-2016

 -------------
 #p 6-31g* mp2
 -------------

 ------------------------------------------------------
 Input file generated by CHIRIPA (05-May-2021 14:57:25)
 ------------------------------------------------------
 Symbolic Z-matrix:
 Charge =  0 Multiplicity = 1

                         Standard orientation:
 ---------------------------------------------------------------------
 Center     Atomic      Atomic             Coordinates (Angstroms)
 Number     Number       Type             X           Y           Z
 ---------------------------------------------------------------------
      1          6           0       -2.720730    2.591912    0.635685
      2          6           0       -1.820006    1.707065    1.237567
      3          6           0       -1.900753    0.333608    0.989284
      4          6           0       -2.899100   -0.122624    0.129955
      5          6           0       -3.811195    0.733774   -0.484824
      6          6           0       -3.711703    2.103305   -0.222077
      7          1           0       -2.650722    3.657322    0.834175
      8          1           0       -1.049384    2.083695    1.904153
      9          1           0       -1.216397   -0.373645    1.441908
     10          1           0       -4.568653    0.328528   -1.144712
     11          1           0       -4.412575    2.788159   -0.690904
     12          7           0       -2.994506   -1.574563   -0.140547
     13          8           0       -3.883116   -1.951344   -0.901499
     14          8           0       -2.178870   -2.308320    0.413507
     15          6           0        2.318564   -2.549602    0.182904
     16          6           0        1.495139   -1.749951   -0.616503
     17          6           0        1.798381   -0.400666   -0.821495
     18          6           0        2.937981    0.118534   -0.209094
     19          6           0        3.778057   -0.652460    0.592861
     20          6           0        3.455390   -1.999275    0.783975
     21          1           0        2.075454   -3.596800    0.336756
     22          1           0        0.611622   -2.174651   -1.084555
     23          1           0        1.178277    0.241090   -1.435529
     24          1           0        4.652017   -0.200733    1.046242
     25          1           0        4.096692   -2.617915    1.405313
     26          7           0        3.269291    1.545654   -0.418763
     27          8           0        4.278999    1.979123    0.131903
     28          8           0        2.512992    2.203740   -1.129799
 ---------------------------------------------------------------------

 SCF Done:  E(RHF) =  -868.340379622     A.U. after   16 cycles
 E2 =    -0.2599457235D+01 EUMP2 =    -0.87093983685721D+03

 The electronic state is 1-A.
 Alpha  occ. eigenvalues --  -20.61412 -20.61365 -20.60881 -20.60872 -15.86414
 Alpha  occ. eigenvalues --  -15.85923 -11.31480 -11.31114 -11.28005 -11.27991
 Alpha  occ. eigenvalues --  -11.27657 -11.27639 -11.27603 -11.27239 -11.26935
 Alpha  occ. eigenvalues --  -11.26901 -11.26617 -11.26452  -1.60464  -1.59962
 Alpha  occ. eigenvalues --   -1.40024  -1.39518  -1.19616  -1.19246  -1.09055
 Alpha  occ. eigenvalues --   -1.08647  -1.04965  -1.04602  -0.95941  -0.95521
 Alpha  occ. eigenvalues --   -0.86369  -0.85982  -0.82783  -0.82351  -0.77880
 Alpha  occ. eigenvalues --   -0.77437  -0.72639  -0.72139  -0.71786  -0.71293
 Alpha  occ. eigenvalues --   -0.70688  -0.70292  -0.65260  -0.64945  -0.64866
 Alpha  occ. eigenvalues --   -0.64534  -0.62314  -0.61929  -0.55441  -0.55036
 Alpha  occ. eigenvalues --   -0.53337  -0.53081  -0.52907  -0.52640  -0.49410
 Alpha  occ. eigenvalues --   -0.49365  -0.48908  -0.48879  -0.45483  -0.44963
 Alpha  occ. eigenvalues --   -0.37564  -0.37191  -0.36643  -0.36121
 Alpha virt. eigenvalues --    0.04563   0.05087   0.11088   0.11427   0.16172
 Alpha virt. eigenvalues --    0.16616   0.21321   0.21782   0.27219   0.27581
 Alpha virt. eigenvalues --    0.28205   0.28610   0.30845   0.31450   0.32243

 Mulliken charges:
               1
     1  C   -0.168204
     2  C   -0.216786
     3  C   -0.174736
     4  C    0.154491
     5  C   -0.171339
     6  C   -0.218418
     7  H    0.230001
     8  H    0.228158
     9  H    0.275539
    10  H    0.275366
    11  H    0.225254
    12  N    0.487164
    13  O   -0.457517
    14  O   -0.467668
    15  C   -0.171688
    16  C   -0.219546
    17  C   -0.177760
    18  C    0.155984
    19  C   -0.173239
    20  C   -0.219407
    21  H    0.231607
    22  H    0.237799
    23  H    0.274430
    24  H    0.274005
    25  H    0.223317
    26  N    0.487526
    27  O   -0.461399
    28  O   -0.462934
 Sum of Mulliken charges =  -0.00000

 Dipole moment (field-independent basis, Debye):
    X=             -1.0054    Y=              0.0911    Z=              1.7023  Tot=              1.9791
 Quadrupole moment (field-independent basis, Debye-Ang):
   XX=           -108.1098   YY=           -107.5183   ZZ=           -102.4308
   XY=            -32.0585   XZ=              5.1394   YZ=              1.0407

 Normal termination of Gaussian 16 at Wed May  5 16:28:31 2021.
