 Gaussian 16, Revision A.03,
 Gaussian 16:  EM64L-G16RevA.03 25-Dec-2016

 -------------
 #p 6-31g* mp2
 -------------

 ------------------------------------------------------
 Input file generated by CHIRIPA (05-May-2021 14:53:12)
 ------------------------------------------------------
 Symbolic Z-matrix:
 Charge =  0 Multiplicity = 1

                         Standard orientation:
 ---------------------------------------------------------------------
 Center     Atomic      Atomic             Coordinates (Angstroms)
 Number     Number       Type             X           Y           Z
 ---------------------------------------------------------------------
      1          6           0       -4.830703    0.029378   -0.427471
      2          6           0       -5.537838    1.020272    0.497771
      3          6           0       -6.980270    1.298817    0.073985
      4          1           0       -4.843621    0.422099   -1.453409
      5          1           0       -5.396718   -0.912257   -0.446085
      6          1           0       -4.969904    1.959285    0.515713
      7          1           0       -5.523065    0.625236    1.521658
      8          1           0       -7.567101    0.374571    0.073984
      9          1           0       -7.010796    1.716200   -0.937677
     10          1           0       -7.466899    2.009658    0.749084
     11          6           0       -3.387861   -0.259238   -0.016816
     12          6           0       -2.680726   -1.250133   -0.942058
     13          6           0       -1.238294   -1.528678   -0.518272
     14          1           0       -2.821846    0.682396    0.001798
     15          1           0       -3.374942   -0.651960    1.009122
     16          1           0       -2.695498   -0.855097   -1.965945
     17          1           0       -3.248660   -2.189146   -0.960000
     18          1           0       -1.207768   -1.946061    0.493390
     19          1           0       -0.651463   -0.604432   -0.518270
     20          1           0       -0.751664   -2.239519   -1.193370
     21          6           0        4.367852    2.230037   -0.493917
     22          6           0        4.744911    1.017785   -1.081108
     23          6           0        4.110489   -0.174223   -0.718928
     24          6           0        3.098476   -0.117122    0.238078
     25          6           0        2.700277    1.074963    0.841122
     26          6           0        3.348536    2.254714    0.463635
     27          1           0        4.866061    3.151256   -0.781213
     28          1           0        5.536196    0.995614   -1.825030
     29          1           0        4.382519   -1.126572   -1.157617
     30          1           0        1.908019    1.065375    1.579805
     31          1           0        3.053625    3.194711    0.921322
     32          7           0        2.419518   -1.372559    0.629604
     33          8           0        1.530860   -1.295500    1.475172
     34          8           0        2.788865   -2.409859    0.083499
 ---------------------------------------------------------------------

 SCF Done:  E(RHF) =  -669.535727157     A.U. after   15 cycles
 E2 =    -0.2091567546D+01 EUMP2 =    -0.67162729470234D+03

 The electronic state is 1-A.
 Alpha  occ. eigenvalues --  -20.60826 -20.60795 -15.85840 -11.31223 -11.27789
 Alpha  occ. eigenvalues --  -11.27784 -11.27535 -11.26809 -11.26800 -11.21283
 Alpha  occ. eigenvalues --  -11.20951 -11.20824 -11.20820 -11.20765 -11.19865
 Alpha  occ. eigenvalues --   -1.59867  -1.39425  -1.19393  -1.08787  -1.07895
 Alpha  occ. eigenvalues --   -1.04797  -1.02923  -0.95627  -0.95341  -0.86357
 Alpha  occ. eigenvalues --   -0.86194  -0.82455  -0.79008  -0.77696  -0.77494
 Alpha  occ. eigenvalues --   -0.72071  -0.71172  -0.70501  -0.65048  -0.64801
 Alpha  occ. eigenvalues --   -0.64535  -0.62144  -0.60326  -0.58765  -0.56955
 Alpha  occ. eigenvalues --   -0.55300  -0.54635  -0.53128  -0.52890  -0.52027
 Alpha  occ. eigenvalues --   -0.51767  -0.49319  -0.48822  -0.48806  -0.47332
 Alpha  occ. eigenvalues --   -0.46055  -0.45324  -0.45152  -0.44622  -0.43184
 Alpha  occ. eigenvalues --   -0.37372  -0.36401
 Alpha virt. eigenvalues --    0.05023   0.11230   0.16493   0.21373   0.23346
 Alpha virt. eigenvalues --    0.24894   0.27070   0.27319   0.27906   0.28154
 Alpha virt. eigenvalues --    0.28747   0.30893   0.31836   0.32266   0.32545

 Mulliken charges:
               1
     1  C   -0.297648
     2  C   -0.299021
     3  C   -0.475338
     4  H    0.147803
     5  H    0.149542
     6  H    0.149688
     7  H    0.152257
     8  H    0.155346
     9  H    0.154188
    10  H    0.158844
    11  C   -0.296786
    12  C   -0.301671
    13  C   -0.472923
    14  H    0.145306
    15  H    0.151655
    16  H    0.146612
    17  H    0.150715
    18  H    0.171904
    19  H    0.144391
    20  H    0.160892
    21  C   -0.170795
    22  C   -0.218531
    23  C   -0.170915
    24  C    0.158715
    25  C   -0.171649
    26  C   -0.218564
    27  H    0.225690
    28  H    0.223569
    29  H    0.275734
    30  H    0.276007
    31  H    0.223562
    32  N    0.489107
    33  O   -0.457635
    34  O   -0.460052
 Sum of Mulliken charges =  -0.00000

 Dipole moment (field-independent basis, Debye):
    X=              2.5824    Y=              4.3108    Z=             -1.2718  Tot=              5.1836
 Quadrupole moment (field-independent basis, Debye-Ang):
   XX=            -80.4652   YY=            -94.2746   ZZ=            -93.6913
   XY=             12.7438   XZ=             -6.5787   YZ=              2.5490

 Normal termination of Gaussian 16 at Thu May  6 08:53:47 2021.
