 Gaussian 16, Revision A.03,
 Gaussian 16:  EM64L-G16RevA.03 25-Dec-2016

 -------------
 #p 6-31g* mp2
 -------------

 ------------------------------------------------------
 Input file generated by CHIRIPA (05-May-2021 14:51:09)
 ------------------------------------------------------
 Symbolic Z-matrix:
 Charge =  0 Multiplicity = 1

                         Standard orientation:
 ---------------------------------------------------------------------
 Center     Atomic      Atomic             Coordinates (Angstroms)
 Number     Number       Type             X           Y           Z
 ---------------------------------------------------------------------
      1          6           0        3.898554    0.375299    0.378601
      2          6           0        4.590160   -0.773134   -0.356768
      3          6           0        5.811035   -1.305700    0.393987
      4          1           0        4.619352    1.189731    0.533828
      5          1           0        3.595016    0.031961    1.377290
      6          1           0        4.891071   -0.428142   -1.354290
      7          1           0        3.867580   -1.584849   -0.510432
      8          1           0        5.523538   -1.676173    1.383278
      9          1           0        6.552844   -0.512894    0.534625
     10          1           0        6.290131   -2.126071   -0.149444
     11          6           0        2.676245    0.918393   -0.359462
     12          6           0        1.984638    2.066826    0.375906
     13          6           0        0.763764    2.599392   -0.374849
     14          1           0        2.979782    1.261731   -1.358151
     15          1           0        1.955446    0.103962   -0.514689
     16          1           0        2.707218    2.878541    0.529570
     17          1           0        1.683727    1.721834    1.373428
     18          1           0        0.021954    1.806587   -0.515487
     19          1           0        1.051260    2.969866   -1.364140
     20          1           0        0.284667    3.419763    0.168582
     21          6           0       -4.039361   -0.717108    0.104664
     22          6           0       -4.790596    0.612682    0.031932
     23          6           0       -6.293927    0.455750    0.262506
     24          1           0       -4.456061   -1.407636   -0.641310
     25          1           0       -4.214568   -1.175951    1.087599
     26          1           0       -4.612901    1.069540   -0.950066
     27          1           0       -4.371931    1.300188    0.778036
     28          1           0       -6.489247    0.022707    1.248875
     29          1           0       -6.731587   -0.209251   -0.489045
     30          1           0       -6.811387    1.418516    0.206162
     31          6           0       -2.535438   -0.576584   -0.123802
     32          6           0       -1.784202   -1.906374   -0.051071
     33          6           0       -0.280872   -1.749442   -0.281644
     34          1           0       -2.360230   -0.117742   -1.106737
     35          1           0       -2.118737    0.113944    0.622172
     36          1           0       -2.202868   -2.593880   -0.797174
     37          1           0       -1.961897   -2.363233    0.930928
     38          1           0        0.156789   -1.084441    0.469907
     39          1           0       -0.085552   -1.316399   -1.268013
     40          1           0        0.236588   -2.712209   -0.225301
 ---------------------------------------------------------------------

 SCF Done:  E(RHF) =  -470.732656585     A.U. after   11 cycles
 E2 =    -0.1583922040D+01 EUMP2 =    -0.47231657862567D+03

 The electronic state is 1-A.
 Alpha  occ. eigenvalues --  -11.21697 -11.21625 -11.21518 -11.21511 -11.21475
 Alpha  occ. eigenvalues --  -11.21409 -11.21281 -11.21204 -11.21150 -11.21090
 Alpha  occ. eigenvalues --  -11.21011 -11.20961  -1.08503  -1.08318  -1.03611
 Alpha  occ. eigenvalues --   -1.03435  -0.96072  -0.95875  -0.87107  -0.86884
 Alpha  occ. eigenvalues --   -0.79719  -0.79480  -0.78348  -0.78083  -0.65148
 Alpha  occ. eigenvalues --   -0.64957  -0.61022  -0.60835  -0.59432  -0.59243
 Alpha  occ. eigenvalues --   -0.57699  -0.57477  -0.55370  -0.55166  -0.52770
 Alpha  occ. eigenvalues --   -0.52619  -0.52557  -0.52217  -0.50028  -0.49780
 Alpha  occ. eigenvalues --   -0.48179  -0.47749  -0.46702  -0.46557  -0.46011
 Alpha  occ. eigenvalues --   -0.45772  -0.45645  -0.45217  -0.43855  -0.43678
 Alpha virt. eigenvalues --    0.20785   0.22932   0.23648   0.24934   0.25827
 Alpha virt. eigenvalues --    0.26426   0.26680   0.27292   0.28451   0.29515
 Alpha virt. eigenvalues --    0.30718   0.31200   0.31444   0.31822   0.32252

 Mulliken charges:
               1
     1  C   -0.297443
     2  C   -0.299841
     3  C   -0.475602
     4  H    0.149076
     5  H    0.148487
     6  H    0.151628
     7  H    0.152415
     8  H    0.154948
     9  H    0.154999
    10  H    0.159905
    11  C   -0.309450
    12  C   -0.299029
    13  C   -0.480618
    14  H    0.148253
    15  H    0.163807
    16  H    0.151604
    17  H    0.150035
    18  H    0.160363
    19  H    0.154607
    20  H    0.159436
    21  C   -0.298352
    22  C   -0.299769
    23  C   -0.475774
    24  H    0.149857
    25  H    0.149640
    26  H    0.152304
    27  H    0.152277
    28  H    0.155165
    29  H    0.155194
    30  H    0.160475
    31  C   -0.300786
    32  C   -0.299907
    33  C   -0.480361
    34  H    0.150576
    35  H    0.151384
    36  H    0.152429
    37  H    0.152188
    38  H    0.157782
    39  H    0.157221
    40  H    0.160875
 Sum of Mulliken charges =  -0.00000

 Dipole moment (field-independent basis, Debye):
    X=             -0.0855    Y=             -0.0602    Z=             -0.0194  Tot=              0.1063
 Quadrupole moment (field-independent basis, Debye-Ang):
   XX=            -86.6294   YY=            -84.6579   ZZ=            -83.7323
   XY=              0.8475   XZ=             -0.3927   YZ=              0.0126

 Normal termination of Gaussian 16 at Wed May  5 18:09:17 2021.
