 Gaussian 16, Revision A.03,
 Gaussian 16:  EM64L-G16RevA.03 25-Dec-2016

 -------------
 #p 6-31g* mp2
 -------------

 ------------------------------------------------------
 Input file generated by CHIRIPA (05-May-2021 14:53:12)
 ------------------------------------------------------
 Symbolic Z-matrix:
 Charge =  0 Multiplicity = 1

                         Standard orientation:
 ---------------------------------------------------------------------
 Center     Atomic      Atomic             Coordinates (Angstroms)
 Number     Number       Type             X           Y           Z
 ---------------------------------------------------------------------
      1          6           0       -2.593303    0.815734    0.195444
      2          6           0       -2.128376    2.218822   -0.195930
      3          6           0       -0.894115    2.671778    0.584599
      4          1           0       -2.810750    0.795438    1.272128
      5          1           0       -1.771896    0.105111    0.029007
      6          1           0       -2.950868    2.926371   -0.030109
      7          1           0       -1.912193    2.235830   -1.271844
      8          1           0       -0.056343    1.988735    0.410844
      9          1           0       -1.100920    2.683200    1.659635
     10          1           0       -0.578914    3.677342    0.289051
     11          6           0       -3.826274    0.348837   -0.576254
     12          6           0       -4.291200   -1.054251   -0.184880
     13          6           0       -5.525461   -1.507207   -0.965409
     14          1           0       -4.647681    1.059460   -0.409816
     15          1           0       -3.608826    0.369133   -1.652938
     16          1           0       -4.507383   -1.071259    0.891035
     17          1           0       -3.468708   -1.761800   -0.350701
     18          1           0       -5.318657   -1.518628   -2.040445
     19          1           0       -6.363233   -0.824164   -0.791654
     20          1           0       -5.840662   -2.512771   -0.669861
     21          6           0        0.878776   -1.346716    1.856790
     22          6           0        1.343813   -2.177807    0.832313
     23          6           0        2.246476   -1.694358   -0.119540
     24          6           0        2.665121   -0.368694   -0.016373
     25          6           0        2.219966    0.484041    0.992573
     26          6           0        1.317564   -0.020782    1.933514
     27          1           0        0.177666   -1.730573    2.591973
     28          1           0        1.004758   -3.207970    0.770256
     29          1           0        2.622528   -2.315967   -0.923035
     30          1           0        2.576012    1.506472    1.028391
     31          1           0        0.958090    0.626937    2.728048
     32          7           0        3.620592    0.154425   -1.018281
     33          8           0        3.974171    1.326124   -0.905402
     34          8           0        3.997819   -0.617156   -1.897483
 ---------------------------------------------------------------------

 SCF Done:  E(RHF) =  -669.534499896     A.U. after   15 cycles
 E2 =    -0.2093436804D+01 EUMP2 =    -0.67162793670049D+03

 The electronic state is 1-A.
 Alpha  occ. eigenvalues --  -20.60814 -20.60808 -15.85868 -11.31259 -11.27807
 Alpha  occ. eigenvalues --  -11.27783 -11.27546 -11.26848 -11.26804 -11.22022
 Alpha  occ. eigenvalues --  -11.21887 -11.21747 -11.21686 -11.21413 -11.21342
 Alpha  occ. eigenvalues --   -1.59889  -1.39442  -1.19436  -1.08827  -1.08766
 Alpha  occ. eigenvalues --   -1.04849  -1.03869  -0.96331  -0.95646  -0.87356
 Alpha  occ. eigenvalues --   -0.86222  -0.82480  -0.79957  -0.78606  -0.77517
 Alpha  occ. eigenvalues --   -0.72084  -0.71215  -0.70520  -0.65411  -0.65077
 Alpha  occ. eigenvalues --   -0.64821  -0.62185  -0.61278  -0.59690  -0.57953
 Alpha  occ. eigenvalues --   -0.55652  -0.55315  -0.53323  -0.53015  -0.52917
 Alpha  occ. eigenvalues --   -0.52646  -0.50264  -0.48845  -0.48838  -0.48257
 Alpha  occ. eigenvalues --   -0.46974  -0.46144  -0.46042  -0.44839  -0.44125
 Alpha  occ. eigenvalues --   -0.37396  -0.36317
 Alpha virt. eigenvalues --    0.04982   0.11145   0.16428   0.21019   0.22614
 Alpha virt. eigenvalues --    0.24022   0.25938   0.26553   0.27079   0.28241
 Alpha virt. eigenvalues --    0.28719   0.30167   0.31478   0.31581   0.31842

 Mulliken charges:
               1
     1  C   -0.300945
     2  C   -0.298563
     3  C   -0.484368
     4  H    0.143965
     5  H    0.152595
     6  H    0.152246
     7  H    0.155592
     8  H    0.163195
     9  H    0.146462
    10  H    0.163182
    11  C   -0.298369
    12  C   -0.299303
    13  C   -0.475785
    14  H    0.150404
    15  H    0.151976
    16  H    0.149627
    17  H    0.149404
    18  H    0.156775
    19  H    0.156288
    20  H    0.159759
    21  C   -0.170640
    22  C   -0.219144
    23  C   -0.171881
    24  C    0.159201
    25  C   -0.176144
    26  C   -0.213790
    27  H    0.226624
    28  H    0.223895
    29  H    0.275745
    30  H    0.277680
    31  H    0.226449
    32  N    0.488172
    33  O   -0.460010
    34  O   -0.460292
 Sum of Mulliken charges =  -0.00000

 Dipole moment (field-independent basis, Debye):
    X=             -3.3267    Y=             -1.8677    Z=              3.4844  Tot=              5.1668
 Quadrupole moment (field-independent basis, Debye-Ang):
   XX=           -113.9548   YY=            -89.7240   ZZ=            -94.0627
   XY=             -4.3473   XZ=              8.9082   YZ=              0.9198

 Normal termination of Gaussian 16 at Wed May  5 23:21:13 2021.
