 Gaussian 16, Revision A.03,
 Gaussian 16:  EM64L-G16RevA.03 25-Dec-2016

 -------------
 #p 6-31g* mp2
 -------------

 ------------------------------------------------------
 Input file generated by CHIRIPA (05-May-2021 14:53:12)
 ------------------------------------------------------
 Symbolic Z-matrix:
 Charge =  0 Multiplicity = 1

                         Standard orientation:
 ---------------------------------------------------------------------
 Center     Atomic      Atomic             Coordinates (Angstroms)
 Number     Number       Type             X           Y           Z
 ---------------------------------------------------------------------
      1          6           0        1.878608    0.966089   -0.002757
      2          6           0        2.544054    2.208009   -0.596728
      3          6           0        1.602058    3.410732   -0.659124
      4          1           0        0.993913    0.710048   -0.601675
      5          1           0        1.515040    1.201037    1.007200
      6          1           0        2.907486    1.970385   -1.604730
      7          1           0        3.427377    2.461010    0.003561
      8          1           0        1.248859    3.675810    0.342667
      9          1           0        0.726013    3.182397   -1.274762
     10          1           0        2.098178    4.287478   -1.086959
     11          6           0        2.807687   -0.244604    0.066246
     12          6           0        2.142241   -1.486523    0.660217
     13          6           0        3.084237   -2.689247    0.722613
     14          1           0        3.171255   -0.479552   -0.943711
     15          1           0        3.692382    0.011437    0.665164
     16          1           0        1.258918   -1.739525    0.059928
     17          1           0        1.778809   -1.248899    1.668219
     18          1           0        3.960282   -2.460911    1.338251
     19          1           0        3.437436   -2.954325   -0.279178
     20          1           0        2.588117   -3.565992    1.150447
     21          6           0       -2.194079    0.887165    2.181383
     22          6           0       -2.528557    1.530129    0.985037
     23          6           0       -2.331463    0.891991   -0.243166
     24          6           0       -1.795443   -0.394845   -0.238086
     25          6           0       -1.452185   -1.061756    0.936943
     26          6           0       -1.657906   -0.404448    2.153566
     27          1           0       -2.350537    1.390332    3.130983
     28          1           0       -2.945125    2.533210    1.003607
     29          1           0       -2.581573    1.366536   -1.184266
     30          1           0       -1.038701   -2.061708    0.886472
     31          1           0       -1.397220   -0.906216    3.081099
     32          7           0       -1.582221   -1.080560   -1.532200
     33          8           0       -1.108491   -2.214238   -1.500743
     34          8           0       -1.892868   -0.471361   -2.553480
 ---------------------------------------------------------------------

 SCF Done:  E(RHF) =  -669.534724729     A.U. after   15 cycles
 E2 =    -0.2095960652D+01 EUMP2 =    -0.67163068538131D+03

 The electronic state is 1-A.
 Alpha  occ. eigenvalues --  -20.60972 -20.60960 -15.85974 -11.31191 -11.27805
 Alpha  occ. eigenvalues --  -11.27769 -11.27546 -11.26790 -11.26779 -11.21535
 Alpha  occ. eigenvalues --  -11.21404 -11.21274 -11.21197 -11.21131 -11.20887
 Alpha  occ. eigenvalues --   -1.60022  -1.39581  -1.19406  -1.08828  -1.08316
 Alpha  occ. eigenvalues --   -1.04794  -1.03434  -0.95890  -0.95675  -0.86913
 Alpha  occ. eigenvalues --   -0.86204  -0.82510  -0.79541  -0.78202  -0.77532
 Alpha  occ. eigenvalues --   -0.72204  -0.71344  -0.70528  -0.65091  -0.64935
 Alpha  occ. eigenvalues --   -0.64779  -0.62168  -0.60813  -0.59262  -0.57518
 Alpha  occ. eigenvalues --   -0.55315  -0.55175  -0.53236  -0.52898  -0.52537
 Alpha  occ. eigenvalues --   -0.52314  -0.49839  -0.48990  -0.48955  -0.47852
 Alpha  occ. eigenvalues --   -0.46564  -0.45692  -0.45616  -0.44814  -0.43680
 Alpha  occ. eigenvalues --   -0.37321  -0.36320
 Alpha virt. eigenvalues --    0.04922   0.11185   0.16358   0.21119   0.22977
 Alpha virt. eigenvalues --    0.24164   0.26272   0.26746   0.27492   0.27720
 Alpha virt. eigenvalues --    0.28938   0.30412   0.31249   0.31823   0.32073

 Mulliken charges:
               1
     1  C   -0.299402
     2  C   -0.299416
     3  C   -0.475083
     4  H    0.150050
     5  H    0.146642
     6  H    0.155297
     7  H    0.150684
     8  H    0.150854
     9  H    0.154856
    10  H    0.160390
    11  C   -0.297660
    12  C   -0.311439
    13  C   -0.474028
    14  H    0.154097
    15  H    0.147347
    16  H    0.165729
    17  H    0.141821
    18  H    0.152569
    19  H    0.160361
    20  H    0.157342
    21  C   -0.170664
    22  C   -0.217081
    23  C   -0.171632
    24  C    0.158530
    25  C   -0.166261
    26  C   -0.219613
    27  H    0.225744
    28  H    0.223807
    29  H    0.275304
    30  H    0.277202
    31  H    0.223606
    32  N    0.489438
    33  O   -0.460270
    34  O   -0.459124
 Sum of Mulliken charges =  -0.00000

 Dipole moment (field-independent basis, Debye):
    X=             -0.8449    Y=              2.3677    Z=              4.4520  Tot=              5.1128
 Quadrupole moment (field-independent basis, Debye-Ang):
   XX=            -92.3893   YY=            -94.7537   ZZ=            -95.4208
   XY=             -5.2037   XZ=             -7.2629   YZ=             -4.0549

 Normal termination of Gaussian 16 at Thu May  6 00:59:20 2021.
