 Gaussian 16, Revision A.03,
 Gaussian 16:  EM64L-G16RevA.03 25-Dec-2016

 -------------
 #p 6-31g* mp2
 -------------

 ------------------------------------------------------
 Input file generated by CHIRIPA (05-May-2021 14:53:18)
 ------------------------------------------------------
 Symbolic Z-matrix:
 Charge =  0 Multiplicity = 1

                         Standard orientation:
 ---------------------------------------------------------------------
 Center     Atomic      Atomic             Coordinates (Angstroms)
 Number     Number       Type             X           Y           Z
 ---------------------------------------------------------------------
      1          6           0        4.821242   -0.099546    0.132108
      2          6           0        5.494949    0.656967   -1.013226
      3          6           0        6.780810    1.361960   -0.580400
      4          1           0        4.599368    0.603244    0.946850
      5          1           0        5.525989   -0.837730    0.539308
      6          1           0        4.788665    1.392553   -1.419051
      7          1           0        5.715072   -0.047669   -1.825414
      8          1           0        7.505942    0.638067   -0.194701
      9          1           0        6.574272    2.086472    0.213971
     10          1           0        7.245903    1.896487   -1.414564
     11          6           0        3.534509   -0.809544   -0.284964
     12          6           0        2.860803   -1.566058    0.860371
     13          6           0        1.574941   -2.271051    0.427545
     14          1           0        2.829762   -0.071361   -0.692163
     15          1           0        3.756384   -1.512334   -1.099705
     16          1           0        2.640680   -0.861421    1.672559
     17          1           0        3.567087   -2.301643    1.266196
     18          1           0        1.781480   -2.995563   -0.366826
     19          1           0        0.849810   -1.547157    0.041846
     20          1           0        1.109849   -2.805578    1.261709
     21          6           0       -1.385531    1.722396    1.043551
     22          6           0       -2.492376    2.360796    0.474464
     23          6           0       -3.538994    1.613290   -0.073602
     24          6           0       -3.445566    0.222930   -0.035405
     25          6           0       -2.355996   -0.442354    0.524527
     26          6           0       -1.320986    0.325321    1.066725
     27          1           0       -0.577003    2.310911    1.467021
     28          1           0       -2.545195    3.445637    0.455070
     29          1           0       -4.407531    2.081726   -0.520400
     30          1           0       -2.331723   -1.525317    0.529138
     31          1           0       -0.462617   -0.173172    1.508031
     32          7           0       -4.547427   -0.579098   -0.612512
     33          8           0       -4.441157   -1.802708   -0.566429
     34          8           0       -5.496473    0.031068   -1.100002
 ---------------------------------------------------------------------

 SCF Done:  E(RHF) =  -669.535327565     A.U. after   15 cycles
 E2 =    -0.2091532246D+01 EUMP2 =    -0.67162685981037D+03

 The electronic state is 1-A.
 Alpha  occ. eigenvalues --  -20.60749 -20.60743 -15.85802 -11.31178 -11.27758
 Alpha  occ. eigenvalues --  -11.27737 -11.27497 -11.26774 -11.26715 -11.22437
 Alpha  occ. eigenvalues --  -11.22097 -11.22054 -11.21953 -11.21922 -11.21504
 Alpha  occ. eigenvalues --   -1.59824  -1.39377  -1.19356  -1.09083  -1.08748
 Alpha  occ. eigenvalues --   -1.04763  -1.04190  -0.96641  -0.95580  -0.87661
 Alpha  occ. eigenvalues --   -0.86152  -0.82414  -0.80255  -0.78869  -0.77456
 Alpha  occ. eigenvalues --   -0.72020  -0.71147  -0.70463  -0.65759  -0.65006
 Alpha  occ. eigenvalues --   -0.64761  -0.62222  -0.61481  -0.60011  -0.58233
 Alpha  occ. eigenvalues --   -0.55959  -0.55242  -0.53342  -0.53157  -0.52994
 Alpha  occ. eigenvalues --   -0.52809  -0.50549  -0.48780  -0.48774  -0.48557
 Alpha  occ. eigenvalues --   -0.47293  -0.46412  -0.46333  -0.44780  -0.44436
 Alpha  occ. eigenvalues --   -0.37339  -0.36343
 Alpha virt. eigenvalues --    0.05055   0.11250   0.16429   0.19903   0.22622
 Alpha virt. eigenvalues --    0.23701   0.25917   0.26565   0.26792   0.28193
 Alpha virt. eigenvalues --    0.29021   0.30326   0.31008   0.31194   0.31660

 Mulliken charges:
               1
     1  C   -0.298365
     2  C   -0.300023
     3  C   -0.475931
     4  H    0.147336
     5  H    0.151379
     6  H    0.151493
     7  H    0.153863
     8  H    0.156287
     9  H    0.154437
    10  H    0.161795
    11  C   -0.298702
    12  C   -0.300703
    13  C   -0.485363
    14  H    0.148753
    15  H    0.153302
    16  H    0.145393
    17  H    0.156616
    18  H    0.163170
    19  H    0.154491
    20  H    0.159087
    21  C   -0.172464
    22  C   -0.218518
    23  C   -0.170893
    24  C    0.158641
    25  C   -0.172485
    26  C   -0.222843
    27  H    0.225382
    28  H    0.223331
    29  H    0.275647
    30  H    0.276864
    31  H    0.231615
    32  N    0.488096
    33  O   -0.460096
    34  O   -0.460592
 Sum of Mulliken charges =  -0.00000

 Dipole moment (field-independent basis, Debye):
    X=              4.0230    Y=              2.7803    Z=              1.9674  Tot=              5.2711
 Quadrupole moment (field-independent basis, Debye-Ang):
   XX=           -120.8811   YY=            -89.5356   ZZ=            -95.4317
   XY=            -12.4496   XZ=             -6.9772   YZ=             -0.6208

 Normal termination of Gaussian 16 at Wed May  5 15:47:32 2021.
