 Gaussian 16, Revision A.03,
 Gaussian 16:  EM64L-G16RevA.03 25-Dec-2016

 -------------
 #p 6-31g* mp2
 -------------

 ------------------------------------------------------
 Input file generated by CHIRIPA (05-May-2021 14:57:27)
 ------------------------------------------------------
 Symbolic Z-matrix:
 Charge =  0 Multiplicity = 1

                         Standard orientation:
 ---------------------------------------------------------------------
 Center     Atomic      Atomic             Coordinates (Angstroms)
 Number     Number       Type             X           Y           Z
 ---------------------------------------------------------------------
      1          6           0       -6.096145    1.010941    0.416530
      2          6           0       -4.928150    1.422171    1.067066
      3          6           0       -3.726338    0.735640    0.869909
      4          6           0       -3.728612   -0.362760    0.011539
      5          6           0       -4.875721   -0.796899   -0.650996
      6          6           0       -6.066256   -0.095331   -0.438917
      7          1           0       -7.025362    1.550095    0.575482
      8          1           0       -4.948398    2.280965    1.731978
      9          1           0       -2.807473    1.032453    1.360836
     10          1           0       -4.824299   -1.656697   -1.307900
     11          1           0       -6.971802   -0.416957   -0.945463
     12          7           0       -2.462276   -1.097519   -0.205081
     13          8           0       -2.490653   -2.062080   -0.966300
     14          8           0       -1.465324   -0.694950    0.390453
     15          6           0        2.673437    2.331092   -0.681915
     16          6           0        1.994682    1.115130   -0.550579
     17          6           0        2.684780   -0.048896   -0.199359
     18          6           0        4.059507    0.039665    0.014118
     19          6           0        4.763991    1.236260   -0.108976
     20          6           0        4.053492    2.387676   -0.461083
     21          1           0        2.129429    3.230438   -0.955096
     22          1           0        0.922936    1.068209   -0.721475
     23          1           0        2.184213   -1.003399   -0.090837
     24          1           0        5.832610    1.251666    0.067757
     25          1           0        4.583232    3.330630   -0.562363
     26          7           0        4.800881   -1.185963    0.386408
     27          8           0        6.011806   -1.081458    0.569099
     28          8           0        4.157006   -2.227906    0.488471
 ---------------------------------------------------------------------

 SCF Done:  E(RHF) =  -868.339582954     A.U. after   16 cycles
 E2 =    -0.2598514243D+01 EUMP2 =    -0.87093809719735D+03

 The electronic state is 1-A.
 Alpha  occ. eigenvalues --  -20.61635 -20.61572 -20.59938 -20.59912 -15.86629
 Alpha  occ. eigenvalues --  -15.84974 -11.31807 -11.30247 -11.28370 -11.28329
 Alpha  occ. eigenvalues --  -11.28049 -11.27328 -11.27301 -11.26887 -11.26653
 Alpha  occ. eigenvalues --  -11.26607 -11.25929 -11.25671  -1.60663  -1.59006
 Alpha  occ. eigenvalues --   -1.40223  -1.38559  -1.19960  -1.18423  -1.09388
 Alpha  occ. eigenvalues --   -1.07859  -1.05333  -1.03779  -0.96254  -0.94698
 Alpha  occ. eigenvalues --   -0.86739  -0.85204  -0.83092  -0.81504  -0.78164
 Alpha  occ. eigenvalues --   -0.76546  -0.72853  -0.71969  -0.71196  -0.71061
 Alpha  occ. eigenvalues --   -0.70328  -0.69561  -0.65614  -0.65329  -0.64069
 Alpha  occ. eigenvalues --   -0.63774  -0.62682  -0.61094  -0.55833  -0.54365
 Alpha  occ. eigenvalues --   -0.53673  -0.53419  -0.52166  -0.51852  -0.49626
 Alpha  occ. eigenvalues --   -0.49586  -0.47960  -0.47941  -0.45659  -0.43983
 Alpha  occ. eigenvalues --   -0.37926  -0.36929  -0.36462  -0.35384
 Alpha virt. eigenvalues --    0.04326   0.05941   0.10728   0.12246   0.15835
 Alpha virt. eigenvalues --    0.17435   0.20871   0.22399   0.26802   0.27562
 Alpha virt. eigenvalues --    0.28523   0.29207   0.30484   0.31673   0.32318

 Mulliken charges:
               1
     1  C   -0.170063
     2  C   -0.218477
     3  C   -0.171847
     4  C    0.157677
     5  C   -0.170374
     6  C   -0.218464
     7  H    0.227638
     8  H    0.224706
     9  H    0.274089
    10  H    0.277250
    11  H    0.225657
    12  N    0.489222
    13  O   -0.454323
    14  O   -0.469693
    15  C   -0.172480
    16  C   -0.222592
    17  C   -0.172212
    18  C    0.157477
    19  C   -0.172703
    20  C   -0.219129
    21  H    0.220236
    22  H    0.234347
    23  H    0.287568
    24  H    0.272359
    25  H    0.218954
    26  N    0.487801
    27  O   -0.464659
    28  O   -0.457966
 Sum of Mulliken charges =  -0.00000

 Dipole moment (field-independent basis, Debye):
    X=             -7.6153    Y=              6.7084    Z=             -0.5701  Tot=             10.1646
 Quadrupole moment (field-independent basis, Debye-Ang):
   XX=            -88.8778   YY=           -104.1485   ZZ=           -104.2889
   XY=             13.0987   XZ=             -6.3359   YZ=              2.3573

 Normal termination of Gaussian 16 at Thu May  6 09:57:51 2021.
