 Gaussian 16, Revision A.03,
 Gaussian 16:  EM64L-G16RevA.03 25-Dec-2016

 -------------
 #p 6-31g* mp2
 -------------

 ------------------------------------------------------
 Input file generated by CHIRIPA (05-May-2021 14:57:23)
 ------------------------------------------------------
 Symbolic Z-matrix:
 Charge =  0 Multiplicity = 1

                         Standard orientation:
 ---------------------------------------------------------------------
 Center     Atomic      Atomic             Coordinates (Angstroms)
 Number     Number       Type             X           Y           Z
 ---------------------------------------------------------------------
      1          6           0       -1.086121   -1.943041   -0.030165
      2          6           0       -1.227533   -1.157856    1.118751
      3          6           0       -2.230031   -0.186469    1.195909
      4          6           0       -3.077427   -0.026306    0.100666
      5          6           0       -2.961915   -0.792993   -1.057841
      6          6           0       -1.952236   -1.758428   -1.112885
      7          1           0       -0.304567   -2.695326   -0.081514
      8          1           0       -0.556334   -1.299029    1.961133
      9          1           0       -2.361903    0.435171    2.073173
     10          1           0       -3.646141   -0.629097   -1.881486
     11          1           0       -1.844760   -2.366769   -2.006426
     12          7           0       -4.142528    0.998907    0.170644
     13          8           0       -4.876303    1.120452   -0.807844
     14          8           0       -4.223412    1.661513    1.202656
     15          6           0        2.603129   -2.288089    0.241889
     16          6           0        2.272735   -1.700515   -0.983720
     17          6           0        2.434177   -0.325525   -1.178369
     18          6           0        2.930769    0.435356   -0.121135
     19          6           0        3.268928   -0.120700    1.111642
     20          6           0        3.099295   -1.497699    1.283822
     21          1           0        2.474535   -3.356994    0.384370
     22          1           0        1.887197   -2.311882   -1.794669
     23          1           0        2.186321    0.155258   -2.116896
     24          1           0        3.651060    0.514665    1.901391
     25          1           0        3.356713   -1.951302    2.236726
     26          7           0        3.106015    1.892060   -0.315308
     27          8           0        3.545363    2.540510    0.631859
     28          8           0        2.800708    2.357791   -1.410989
 ---------------------------------------------------------------------

 SCF Done:  E(RHF) =  -868.335233581     A.U. after   16 cycles
 E2 =    -0.2602976634D+01 EUMP2 =    -0.87093821021498D+03

 The electronic state is 1-A.
 Alpha  occ. eigenvalues --  -20.61353 -20.61344 -20.60817 -20.60809 -15.86413
 Alpha  occ. eigenvalues --  -15.85876 -11.32045 -11.31330 -11.28634 -11.28613
 Alpha  occ. eigenvalues --  -11.28500 -11.27965 -11.27927 -11.27770 -11.27754
 Alpha  occ. eigenvalues --  -11.27734 -11.27020 -11.26946  -1.60419  -1.59889
 Alpha  occ. eigenvalues --   -1.39966  -1.39440  -1.20264  -1.19541  -1.09648
 Alpha  occ. eigenvalues --   -1.08923  -1.05696  -1.04966  -0.96418  -0.95742
 Alpha  occ. eigenvalues --   -0.87105  -0.86368  -0.83228  -0.82578  -0.78210
 Alpha  occ. eigenvalues --   -0.77592  -0.72631  -0.72095  -0.71744  -0.71431
 Alpha  occ. eigenvalues --   -0.71213  -0.70705  -0.65918  -0.65722  -0.65201
 Alpha  occ. eigenvalues --   -0.64993  -0.63021  -0.62316  -0.56252  -0.55656
 Alpha  occ. eigenvalues --   -0.54061  -0.53793  -0.53139  -0.53052  -0.49408
 Alpha  occ. eigenvalues --   -0.49365  -0.48862  -0.48841  -0.45311  -0.44827
 Alpha  occ. eigenvalues --   -0.38433  -0.37799  -0.36820  -0.36575
 Alpha virt. eigenvalues --    0.04265   0.04950   0.10265   0.11057   0.15561
 Alpha virt. eigenvalues --    0.16514   0.19386   0.21871   0.25660   0.26411
 Alpha virt. eigenvalues --    0.27399   0.29237   0.29799   0.31044   0.32182

 Mulliken charges:
               1
     1  C   -0.162023
     2  C   -0.219143
     3  C   -0.169722
     4  C    0.158698
     5  C   -0.169265
     6  C   -0.222935
     7  H    0.215818
     8  H    0.221344
     9  H    0.277046
    10  H    0.276315
    11  H    0.218981
    12  N    0.488301
    13  O   -0.460028
    14  O   -0.459029
    15  C   -0.180829
    16  C   -0.218379
    17  C   -0.165611
    18  C    0.160602
    19  C   -0.171166
    20  C   -0.221234
    21  H    0.224202
    22  H    0.221098
    23  H    0.279159
    24  H    0.278792
    25  H    0.225596
    26  N    0.487940
    27  O   -0.457886
    28  O   -0.456642
 Sum of Mulliken charges =  -0.00000

 Dipole moment (field-independent basis, Debye):
    X=              3.2811    Y=             -8.4279    Z=              0.4356  Tot=              9.0546
 Quadrupole moment (field-independent basis, Debye-Ang):
   XX=           -131.3734   YY=           -110.5655   ZZ=            -96.4975
   XY=             -3.5504   XZ=              6.5912   YZ=              2.2713

 Normal termination of Gaussian 16 at Wed May  5 22:40:52 2021.
