 Gaussian 16, Revision A.03,
 Gaussian 16:  EM64L-G16RevA.03 25-Dec-2016

 -------------
 #p 6-31g* mp2
 -------------

 ------------------------------------------------------
 Input file generated by CHIRIPA (05-May-2021 14:57:23)
 ------------------------------------------------------
 Symbolic Z-matrix:
 Charge =  0 Multiplicity = 1

                         Standard orientation:
 ---------------------------------------------------------------------
 Center     Atomic      Atomic             Coordinates (Angstroms)
 Number     Number       Type             X           Y           Z
 ---------------------------------------------------------------------
      1          6           0       -5.582873    0.293703   -1.263049
      2          6           0       -4.313821    0.199713   -1.843731
      3          6           0       -3.193270   -0.087523   -1.058614
      4          6           0       -3.378971   -0.275792    0.310094
      5          6           0       -4.630382   -0.188678    0.918098
      6          6           0       -5.736833    0.099550    0.113586
      7          1           0       -6.447867    0.517221   -1.880480
      8          1           0       -4.191266    0.350017   -2.912578
      9          1           0       -2.199361   -0.166050   -1.482167
     10          1           0       -4.721065   -0.343547    1.986373
     11          1           0       -6.721195    0.171941    0.567276
     12          7           0       -2.200158   -0.580401    1.151528
     13          8           0       -2.390343   -0.742012    2.355002
     14          8           0       -1.108340   -0.651775    0.591639
     15          6           0        2.248084    2.359885    0.062309
     16          6           0        3.525547    2.264039    0.623933
     17          6           0        4.268820    1.086375    0.500637
     18          6           0        3.701366    0.019253   -0.194010
     19          6           0        2.431169    0.083958   -0.764713
     20          6           0        1.705926    1.271457   -0.629003
     21          1           0        1.677695    3.278543    0.162910
     22          1           0        3.949117    3.107726    1.161358
     23          1           0        5.260059    0.985008    0.925594
     24          1           0        2.035529   -0.773937   -1.294718
     25          1           0        0.714069    1.343045   -1.066197
     26          7           0        4.478691   -1.232693   -0.331109
     27          8           0        3.956310   -2.158591   -0.947931
     28          8           0        5.595621   -1.264365    0.180849
 ---------------------------------------------------------------------

 SCF Done:  E(RHF) =  -868.338023932     A.U. after   16 cycles
 E2 =    -0.2599559053D+01 EUMP2 =    -0.87093758298499D+03

 The electronic state is 1-A.
 Alpha  occ. eigenvalues --  -20.61416 -20.61383 -20.59999 -20.59989 -15.86443
 Alpha  occ. eigenvalues --  -15.85046 -11.31782 -11.30295 -11.28396 -11.28298
 Alpha  occ. eigenvalues --  -11.28035 -11.27351 -11.27303 -11.26891 -11.26814
 Alpha  occ. eigenvalues --  -11.26631 -11.25925 -11.25847  -1.60463  -1.59071
 Alpha  occ. eigenvalues --   -1.40024  -1.38629  -1.19939  -1.18463  -1.09331
 Alpha  occ. eigenvalues --   -1.07898  -1.05339  -1.03849  -0.96176  -0.94749
 Alpha  occ. eigenvalues --   -0.86737  -0.85275  -0.83016  -0.81583  -0.78081
 Alpha  occ. eigenvalues --   -0.76634  -0.72663  -0.71783  -0.71275  -0.71042
 Alpha  occ. eigenvalues --   -0.70385  -0.69618  -0.65593  -0.65334  -0.64134
 Alpha  occ. eigenvalues --   -0.63890  -0.62696  -0.61214  -0.55818  -0.54417
 Alpha  occ. eigenvalues --   -0.53664  -0.53429  -0.52170  -0.51977  -0.49427
 Alpha  occ. eigenvalues --   -0.49397  -0.48031  -0.48022  -0.45428  -0.44060
 Alpha  occ. eigenvalues --   -0.37902  -0.36941  -0.36456  -0.35394
 Alpha virt. eigenvalues --    0.04442   0.05903   0.10701   0.12230   0.15958
 Alpha virt. eigenvalues --    0.17415   0.20241   0.22070   0.25554   0.27184
 Alpha virt. eigenvalues --    0.28748   0.29066   0.30465   0.31187   0.32984

 Mulliken charges:
               1
     1  C   -0.170528
     2  C   -0.218069
     3  C   -0.172581
     4  C    0.159094
     5  C   -0.170586
     6  C   -0.218102
     7  H    0.227599
     8  H    0.224447
     9  H    0.269482
    10  H    0.277266
    11  H    0.225581
    12  N    0.489620
    13  O   -0.455684
    14  O   -0.466214
    15  C   -0.171681
    16  C   -0.218326
    17  C   -0.171709
    18  C    0.157456
    19  C   -0.163129
    20  C   -0.205597
    21  H    0.221212
    22  H    0.219980
    23  H    0.272909
    24  H    0.274928
    25  H    0.218528
    26  N    0.488456
    27  O   -0.461095
    28  O   -0.463257
 Sum of Mulliken charges =  -0.00000

 Dipole moment (field-independent basis, Debye):
    X=             -7.2692    Y=              5.3960    Z=             -2.4033  Tot=              9.3666
 Quadrupole moment (field-independent basis, Debye-Ang):
   XX=            -93.0233   YY=           -106.1507   ZZ=           -102.9731
   XY=             15.5345   XZ=             10.6602   YZ=              1.2933

 Normal termination of Gaussian 16 at Fri May  7 11:01:21 2021.
