 Gaussian 16, Revision A.03,
 Gaussian 16:  EM64L-G16RevA.03 25-Dec-2016

 -------------
 #p 6-31g* mp2
 -------------

 ------------------------------------------------------
 Input file generated by CHIRIPA (05-May-2021 14:53:16)
 ------------------------------------------------------
 Symbolic Z-matrix:
 Charge =  0 Multiplicity = 1

                         Standard orientation:
 ---------------------------------------------------------------------
 Center     Atomic      Atomic             Coordinates (Angstroms)
 Number     Number       Type             X           Y           Z
 ---------------------------------------------------------------------
      1          6           0       -3.861171    0.654608   -0.115508
      2          6           0       -2.885253    1.682686   -0.688765
      3          6           0       -3.529866    3.051758   -0.907647
      4          1           0       -4.718369    0.553430   -0.795156
      5          1           0       -4.260181    1.029575    0.837166
      6          1           0       -2.487152    1.305273   -1.639392
      7          1           0       -2.030187    1.781288   -0.007769
      8          1           0       -3.911409    3.453323    0.036689
      9          1           0       -4.370971    2.974604   -1.604204
     10          1           0       -2.814511    3.771339   -1.317928
     11          6           0       -3.231485   -0.719026    0.108886
     12          6           0       -4.207404   -1.747104    0.682143
     13          6           0       -3.562791   -3.116176    0.901025
     14          1           0       -2.832476   -1.093993   -0.843788
     15          1           0       -2.374288   -0.617848    0.788533
     16          1           0       -5.062470   -1.845705    0.001147
     17          1           0       -4.605505   -1.369691    1.632770
     18          1           0       -2.721686   -3.039021    1.597582
     19          1           0       -3.181247   -3.517740   -0.043312
     20          1           0       -4.278146   -3.835757    1.311306
     21          6           0        2.383823    2.341962    0.923887
     22          6           0        1.322513    1.627120    0.358959
     23          6           0        1.525223    0.342703   -0.154585
     24          6           0        2.807958   -0.198816   -0.086481
     25          6           0        3.885600    0.488273    0.470193
     26          6           0        3.659730    1.771263    0.977607
     27          1           0        2.217358    3.339173    1.320439
     28          1           0        0.330563    2.067828    0.315892
     29          1           0        0.721445   -0.232872   -0.597385
     30          1           0        4.863202    0.022560    0.498914
     31          1           0        4.485829    2.324094    1.415766
     32          7           0        3.034818   -1.557816   -0.626902
     33          8           0        4.174385   -2.012612   -0.554904
     34          8           0        2.068767   -2.142471   -1.112249
 ---------------------------------------------------------------------

 SCF Done:  E(RHF) =  -669.535685686     A.U. after   15 cycles
 E2 =    -0.2091400551D+01 EUMP2 =    -0.67162708623736D+03

 The electronic state is 1-A.
 Alpha  occ. eigenvalues --  -20.60716 -20.60711 -15.85769 -11.31123 -11.27700
 Alpha  occ. eigenvalues --  -11.27670 -11.27438 -11.26716 -11.26668 -11.22489
 Alpha  occ. eigenvalues --  -11.21943 -11.21825 -11.21798 -11.21763 -11.21061
 Alpha  occ. eigenvalues --   -1.59792  -1.39345  -1.19296  -1.08935  -1.08695
 Alpha  occ. eigenvalues --   -1.04696  -1.03989  -0.96399  -0.95530  -0.87418
 Alpha  occ. eigenvalues --   -0.86097  -0.82366  -0.80108  -0.78725  -0.77402
 Alpha  occ. eigenvalues --   -0.71987  -0.71115  -0.70406  -0.65587  -0.64946
 Alpha  occ. eigenvalues --   -0.64700  -0.62073  -0.61359  -0.59809  -0.58015
 Alpha  occ. eigenvalues --   -0.55667  -0.55205  -0.53114  -0.53030  -0.52879
 Alpha  occ. eigenvalues --   -0.52734  -0.50336  -0.48754  -0.48742  -0.48375
 Alpha  occ. eigenvalues --   -0.47137  -0.46253  -0.46144  -0.44753  -0.44241
 Alpha  occ. eigenvalues --   -0.37284  -0.36299
 Alpha virt. eigenvalues --    0.05116   0.11347   0.16594   0.19588   0.22814
 Alpha virt. eigenvalues --    0.23724   0.24984   0.25815   0.27184   0.28329
 Alpha virt. eigenvalues --    0.29553   0.30326   0.31210   0.31459   0.32225

 Mulliken charges:
               1
     1  C   -0.297315
     2  C   -0.306758
     3  C   -0.475812
     4  H    0.153344
     5  H    0.150572
     6  H    0.155115
     7  H    0.143287
     8  H    0.156341
     9  H    0.160008
    10  H    0.158847
    11  C   -0.300986
    12  C   -0.300156
    13  C   -0.476556
    14  H    0.153094
    15  H    0.146844
    16  H    0.152997
    17  H    0.151564
    18  H    0.156664
    19  H    0.159654
    20  H    0.160932
    21  C   -0.171967
    22  C   -0.225470
    23  C   -0.174827
    24  C    0.158622
    25  C   -0.171103
    26  C   -0.218570
    27  H    0.225788
    28  H    0.233057
    29  H    0.277469
    30  H    0.275338
    31  H    0.223081
    32  N    0.488091
    33  O   -0.460809
    34  O   -0.460381
 Sum of Mulliken charges =  -0.00000

 Dipole moment (field-independent basis, Debye):
    X=             -0.9925    Y=              4.7087    Z=              1.8629  Tot=              5.1602
 Quadrupole moment (field-independent basis, Debye-Ang):
   XX=            -93.9721   YY=            -98.1067   ZZ=            -94.6668
   XY=             14.5733   XZ=              7.2895   YZ=             -0.2146

 Normal termination of Gaussian 16 at Thu May  6 12:12:33 2021.
