 Gaussian 16, Revision A.03,
 Gaussian 16:  EM64L-G16RevA.03 25-Dec-2016

 -------------
 #p 6-31g* mp2
 -------------

 ------------------------------------------------------
 Input file generated by CHIRIPA (05-May-2021 14:51:12)
 ------------------------------------------------------
 Symbolic Z-matrix:
 Charge =  0 Multiplicity = 1

                         Standard orientation:
 ---------------------------------------------------------------------
 Center     Atomic      Atomic             Coordinates (Angstroms)
 Number     Number       Type             X           Y           Z
 ---------------------------------------------------------------------
      1          6           0       -2.937529   -0.823985    0.420530
      2          6           0       -1.847902   -1.714361   -0.177739
      3          6           0       -1.689967   -3.038671    0.569962
      4          1           0       -2.701964   -0.625481    1.475067
      5          1           0       -3.892240   -1.367881    0.410546
      6          1           0       -0.895808   -1.168433   -0.167899
      7          1           0       -2.085989   -1.910611   -1.231027
      8          1           0       -2.625522   -3.606908    0.548904
      9          1           0       -1.428579   -2.860513    1.618073
     10          1           0       -0.905834   -3.659569    0.125573
     11          6           0       -3.107347    0.503520   -0.316099
     12          6           0       -4.196975    1.393897    0.282169
     13          6           0       -4.354910    2.718206   -0.465531
     14          1           0       -2.152637    1.047417   -0.306115
     15          1           0       -3.342913    0.305017   -1.370637
     16          1           0       -3.958887    1.590146    1.335458
     17          1           0       -5.149068    0.847969    0.272329
     18          1           0       -4.616297    2.540049   -1.513643
     19          1           0       -3.419354    3.286443   -0.444474
     20          1           0       -5.139042    3.339105   -0.021143
     21          6           0        2.516260   -0.396403   -0.184023
     22          6           0        3.136352   -1.794050   -0.176856
     23          6           0        2.111158   -2.896986   -0.442000
     24          1           0        1.722101   -0.350656    0.573713
     25          1           0        2.032190   -0.222607   -1.155036
     26          1           0        3.620304   -1.964631    0.793356
     27          1           0        3.929257   -1.836418   -0.934565
     28          1           0        1.635759   -2.754548   -1.417863
     29          1           0        1.325050   -2.883488    0.319875
     30          1           0        2.575912   -3.887830   -0.432423
     31          6           0        3.528616    0.716868    0.079592
     32          6           0        2.908524    2.114515    0.072426
     33          6           0        3.933719    3.217450    0.337569
     34          1           0        4.012687    0.543072    1.050605
     35          1           0        4.322775    0.671120   -0.678143
     36          1           0        2.115619    2.156882    0.830134
     37          1           0        2.424573    2.285095   -0.897787
     38          1           0        4.719827    3.203953   -0.424306
     39          1           0        4.409118    3.075011    1.313432
     40          1           0        3.468965    4.208295    0.327992
 ---------------------------------------------------------------------

 SCF Done:  E(RHF) =  -470.732774104     A.U. after   11 cycles
 E2 =    -0.1583562482D+01 EUMP2 =    -0.47231633658554D+03

 The electronic state is 1-A.
 Alpha  occ. eigenvalues --  -11.21643 -11.21615 -11.21576 -11.21511 -11.21448
 Alpha  occ. eigenvalues --  -11.21388 -11.21362 -11.21303 -11.21101 -11.21051
 Alpha  occ. eigenvalues --  -11.21020 -11.20977  -1.08471  -1.08381  -1.03580
 Alpha  occ. eigenvalues --   -1.03459  -0.96050  -0.95895  -0.87080  -0.86900
 Alpha  occ. eigenvalues --   -0.79625  -0.79547  -0.78324  -0.78157  -0.65129
 Alpha  occ. eigenvalues --   -0.64991  -0.61047  -0.60818  -0.59444  -0.59273
 Alpha  occ. eigenvalues --   -0.57787  -0.57380  -0.55373  -0.55148  -0.52830
 Alpha  occ. eigenvalues --   -0.52661  -0.52472  -0.52137  -0.50001  -0.49802
 Alpha  occ. eigenvalues --   -0.47918  -0.47848  -0.46645  -0.46608  -0.45956
 Alpha  occ. eigenvalues --   -0.45754  -0.45716  -0.45468  -0.43823  -0.43714
 Alpha virt. eigenvalues --    0.21219   0.23227   0.23421   0.24936   0.25794
 Alpha virt. eigenvalues --    0.26609   0.26878   0.27152   0.28636   0.29327
 Alpha virt. eigenvalues --    0.30326   0.31205   0.31447   0.31683   0.32103

 Mulliken charges:
               1
     1  C   -0.297875
     2  C   -0.304956
     3  C   -0.480276
     4  H    0.148955
     5  H    0.149383
     6  H    0.157905
     7  H    0.151464
     8  H    0.155175
     9  H    0.153161
    10  H    0.165850
    11  C   -0.298403
    12  C   -0.299563
    13  C   -0.475700
    14  H    0.149855
    15  H    0.149480
    16  H    0.151739
    17  H    0.151868
    18  H    0.155101
    19  H    0.155218
    20  H    0.160126
    21  C   -0.300518
    22  C   -0.299876
    23  C   -0.481764
    24  H    0.150552
    25  H    0.150331
    26  H    0.151769
    27  H    0.151865
    28  H    0.155484
    29  H    0.163485
    30  H    0.159765
    31  C   -0.298218
    32  C   -0.299708
    33  C   -0.475710
    34  H    0.149614
    35  H    0.149998
    36  H    0.151375
    37  H    0.152102
    38  H    0.155362
    39  H    0.155252
    40  H    0.160334
 Sum of Mulliken charges =  -0.00000

 Dipole moment (field-independent basis, Debye):
    X=              0.0379    Y=             -0.0111    Z=             -0.0123  Tot=              0.0413
 Quadrupole moment (field-independent basis, Debye-Ang):
   XX=            -84.8273   YY=            -86.3944   ZZ=            -83.6155
   XY=             -0.0214   XZ=              0.0798   YZ=              0.4802

 Normal termination of Gaussian 16 at Wed May  5 19:55:11 2021.
