 Gaussian 16, Revision A.03,
 Gaussian 16:  EM64L-G16RevA.03 25-Dec-2016

 -------------
 #p 6-31g* mp2
 -------------

 ------------------------------------------------------
 Input file generated by CHIRIPA (05-May-2021 14:57:27)
 ------------------------------------------------------
 Symbolic Z-matrix:
 Charge =  0 Multiplicity = 1

                         Standard orientation:
 ---------------------------------------------------------------------
 Center     Atomic      Atomic             Coordinates (Angstroms)
 Number     Number       Type             X           Y           Z
 ---------------------------------------------------------------------
      1          6           0        1.532688   -0.828615    0.476023
      2          6           0        2.174533    0.083908    1.319740
      3          6           0        3.503423    0.451439    1.088397
      4          6           0        4.163367   -0.115537   -0.000778
      5          6           0        3.551230   -1.027326   -0.859393
      6          6           0        2.221870   -1.380347   -0.608938
      7          1           0        0.500192   -1.108485    0.663160
      8          1           0        1.641775    0.513988    2.163094
      9          1           0        4.024449    1.155572    1.725693
     10          1           0        4.108336   -1.439219   -1.692097
     11          1           0        1.725935   -2.089266   -1.265844
     12          7           0        5.570452    0.265870   -0.255808
     13          8           0        6.129890   -0.247847   -1.222120
     14          8           0        6.087243    1.071313    0.515442
     15          6           0       -4.625732   -2.234500    0.207419
     16          6           0       -5.552024   -1.280813   -0.227308
     17          6           0       -5.178427    0.058954   -0.368718
     18          6           0       -3.864343    0.411668   -0.065294
     19          6           0       -2.918433   -0.515188    0.370001
     20          6           0       -3.314206   -1.849323    0.504164
     21          1           0       -4.924565   -3.273075    0.314455
     22          1           0       -6.571255   -1.577076   -0.458482
     23          1           0       -5.875217    0.817846   -0.703357
     24          1           0       -1.909603   -0.189603    0.592875
     25          1           0       -2.592706   -2.587810    0.841979
     26          7           0       -3.457095    1.827038   -0.211162
     27          8           0       -2.293314    2.112233    0.062547
     28          8           0       -4.309384    2.624408   -0.596442
 ---------------------------------------------------------------------

 SCF Done:  E(RHF) =  -868.336684363     A.U. after   16 cycles
 E2 =    -0.2599735563D+01 EUMP2 =    -0.87093641992609D+03

 The electronic state is 1-A.
 Alpha  occ. eigenvalues --  -20.61470 -20.61453 -20.60735 -20.60727 -15.86522
 Alpha  occ. eigenvalues --  -15.85787 -11.31998 -11.31214 -11.28686 -11.28508
 Alpha  occ. eigenvalues --  -11.28287 -11.27785 -11.27743 -11.27680 -11.27669
 Alpha  occ. eigenvalues --  -11.27528 -11.26886 -11.26816  -1.60535  -1.59806
 Alpha  occ. eigenvalues --   -1.40088  -1.39358  -1.20169  -1.19394  -1.09529
 Alpha  occ. eigenvalues --   -1.08809  -1.05606  -1.04796  -0.96356  -0.95635
 Alpha  occ. eigenvalues --   -0.86986  -0.86209  -0.83199  -0.82455  -0.78244
 Alpha  occ. eigenvalues --   -0.77462  -0.72737  -0.72008  -0.71859  -0.71308
 Alpha  occ. eigenvalues --   -0.71126  -0.70579  -0.65824  -0.65608  -0.65064
 Alpha  occ. eigenvalues --   -0.64814  -0.62973  -0.62138  -0.56083  -0.55410
 Alpha  occ. eigenvalues --   -0.53899  -0.53690  -0.53119  -0.52903  -0.49503
 Alpha  occ. eigenvalues --   -0.49486  -0.48772  -0.48757  -0.45470  -0.44749
 Alpha  occ. eigenvalues --   -0.38120  -0.37410  -0.37206  -0.36373
 Alpha virt. eigenvalues --    0.04317   0.05043   0.10453   0.11269   0.15794
 Alpha virt. eigenvalues --    0.16431   0.18101   0.22000   0.24754   0.26951
 Alpha virt. eigenvalues --    0.27437   0.29528   0.30324   0.31087   0.32552

 Mulliken charges:
               1
     1  C   -0.168913
     2  C   -0.215525
     3  C   -0.170097
     4  C    0.159513
     5  C   -0.170555
     6  C   -0.217902
     7  H    0.214449
     8  H    0.226195
     9  H    0.277285
    10  H    0.275823
    11  H    0.221611
    12  N    0.487984
    13  O   -0.460378
    14  O   -0.459212
    15  C   -0.170361
    16  C   -0.218088
    17  C   -0.169517
    18  C    0.161029
    19  C   -0.176888
    20  C   -0.219133
    21  H    0.228021
    22  H    0.226601
    23  H    0.278313
    24  H    0.270937
    25  H    0.219314
    26  N    0.487887
    27  O   -0.461605
    28  O   -0.456789
 Sum of Mulliken charges =  -0.00000

 Dipole moment (field-independent basis, Debye):
    X=             -6.5263    Y=             -6.2196    Z=              1.3735  Tot=              9.1193
 Quadrupole moment (field-independent basis, Debye-Ang):
   XX=           -129.5872   YY=           -107.5374   ZZ=           -102.3154
   XY=             12.7326   XZ=              3.6509   YZ=              2.9108

 Normal termination of Gaussian 16 at Thu May  6 02:03:42 2021.
