 Gaussian 16, Revision A.03,
 Gaussian 16:  EM64L-G16RevA.03 25-Dec-2016

 -------------
 #p 6-31g* mp2
 -------------

 ------------------------------------------------------
 Input file generated by CHIRIPA (05-May-2021 14:55:22)
 ------------------------------------------------------
 Symbolic Z-matrix:
 Charge =  0 Multiplicity = 1

                         Standard orientation:
 ---------------------------------------------------------------------
 Center     Atomic      Atomic             Coordinates (Angstroms)
 Number     Number       Type             X           Y           Z
 ---------------------------------------------------------------------
      1          6           0        5.391324   -1.452081   -0.132367
      2          6           0        4.155486   -1.796015   -0.689983
      3          6           0        3.104243   -0.874574   -0.709497
      4          6           0        3.324628    0.387562   -0.160193
      5          6           0        4.544377    0.760126    0.402566
      6          6           0        5.581490   -0.177355    0.411169
      7          1           0        6.202467   -2.174109   -0.121446
      8          1           0        4.004941   -2.785253   -1.112819
      9          1           0        2.137310   -1.114459   -1.134837
     10          1           0        4.664316    1.753952    0.816503
     11          1           0        6.540190    0.092514    0.844886
     12          7           0        2.219204    1.371541   -0.175076
     13          8           0        2.438803    2.476979    0.315251
     14          8           0        1.154104    1.018714   -0.676786
     15          6           0       -5.231708   -0.460810    0.243330
     16          6           0       -6.117010    0.468929   -0.587221
     17          6           0       -7.600710    0.111487   -0.494156
     18          1           0       -5.382595   -1.496209   -0.091522
     19          1           0       -5.554105   -0.421661    1.293055
     20          1           0       -5.792150    0.429091   -1.634835
     21          1           0       -5.963855    1.502257   -0.250483
     22          1           0       -7.946691    0.169753    0.542910
     23          1           0       -7.774010   -0.909510   -0.849309
     24          1           0       -8.215298    0.788729   -1.095391
     25          6           0       -3.745741   -0.116189    0.160485
     26          6           0       -2.860438   -1.045927    0.991035
     27          6           0       -1.376738   -0.688484    0.897970
     28          1           0       -3.423343   -0.155337   -0.889240
     29          1           0       -3.594853    0.919211    0.495336
     30          1           0       -3.013593   -2.079255    0.654296
     31          1           0       -3.185299   -1.006090    2.038649
     32          1           0       -1.203438    0.332512    1.253124
     33          1           0       -1.030757   -0.746752   -0.139095
     34          1           0       -0.762151   -1.365728    1.499205
 ---------------------------------------------------------------------

 SCF Done:  E(RHF) =  -669.535626035     A.U. after   15 cycles
 E2 =    -0.2091228420D+01 EUMP2 =    -0.67162685445498D+03

 The electronic state is 1-A.
 Alpha  occ. eigenvalues --  -20.60844 -20.60814 -15.85860 -11.31215 -11.27784
 Alpha  occ. eigenvalues --  -11.27780 -11.27529 -11.26800 -11.26791 -11.21065
 Alpha  occ. eigenvalues --  -11.20794 -11.20781 -11.20640 -11.20582 -11.19931
 Alpha  occ. eigenvalues --   -1.59893  -1.39449  -1.19388  -1.08787  -1.07741
 Alpha  occ. eigenvalues --   -1.04790  -1.02818  -0.95633  -0.95241  -0.86260
 Alpha  occ. eigenvalues --   -0.86188  -0.82461  -0.78894  -0.77577  -0.77457
 Alpha  occ. eigenvalues --   -0.72091  -0.71203  -0.70499  -0.65045  -0.64796
 Alpha  occ. eigenvalues --   -0.64380  -0.62139  -0.60219  -0.58658  -0.56855
 Alpha  occ. eigenvalues --   -0.55295  -0.54526  -0.53121  -0.52884  -0.51977
 Alpha  occ. eigenvalues --   -0.51643  -0.49217  -0.48847  -0.48806  -0.47199
 Alpha  occ. eigenvalues --   -0.45928  -0.45171  -0.45003  -0.44673  -0.43090
 Alpha  occ. eigenvalues --   -0.37368  -0.36392
 Alpha virt. eigenvalues --    0.05010   0.11257   0.16489   0.21254   0.23502
 Alpha virt. eigenvalues --    0.24865   0.26768   0.27424   0.27736   0.28232
 Alpha virt. eigenvalues --    0.29107   0.30715   0.31738   0.32352   0.32585

 Mulliken charges:
               1
     1  C   -0.170704
     2  C   -0.218754
     3  C   -0.170309
     4  C    0.158353
     5  C   -0.170954
     6  C   -0.218599
     7  H    0.225670
     8  H    0.223571
     9  H    0.276076
    10  H    0.275617
    11  H    0.223506
    12  N    0.489892
    13  O   -0.460405
    14  O   -0.459712
    15  C   -0.297759
    16  C   -0.299264
    17  C   -0.475315
    18  H    0.147002
    19  H    0.148005
    20  H    0.151810
    21  H    0.152919
    22  H    0.154367
    23  H    0.153749
    24  H    0.159180
    25  C   -0.297377
    26  C   -0.300874
    27  C   -0.474532
    28  H    0.150680
    29  H    0.153199
    30  H    0.145848
    31  H    0.148332
    32  H    0.165141
    33  H    0.163370
    34  H    0.148273
 Sum of Mulliken charges =  -0.00000

 Dipole moment (field-independent basis, Debye):
    X=              4.0939    Y=             -3.3290    Z=             -0.0130  Tot=              5.2766
 Quadrupole moment (field-independent basis, Debye-Ang):
   XX=            -69.6298   YY=            -95.4234   ZZ=            -93.9695
   XY=             -8.5477   XZ=              1.1437   YZ=              3.0801

 Normal termination of Gaussian 16 at Thu May  6 17:32:06 2021.
