 Gaussian 16, Revision A.03,
 Gaussian 16:  EM64L-G16RevA.03 25-Dec-2016

 -------------
 #p 6-31g* mp2
 -------------

 ------------------------------------------------------
 Input file generated by CHIRIPA (05-May-2021 14:55:22)
 ------------------------------------------------------
 Symbolic Z-matrix:
 Charge =  0 Multiplicity = 1

                         Standard orientation:
 ---------------------------------------------------------------------
 Center     Atomic      Atomic             Coordinates (Angstroms)
 Number     Number       Type             X           Y           Z
 ---------------------------------------------------------------------
      1          6           0       -1.455872    0.747753   -0.514846
      2          6           0       -1.825508   -0.595418   -0.640469
      3          6           0       -3.158650   -0.983263   -0.476591
      4          6           0       -4.100374    0.002755   -0.186394
      5          6           0       -3.763332    1.349022   -0.055022
      6          6           0       -2.424257    1.713983   -0.223038
      7          1           0       -0.417951    1.040152   -0.643757
      8          1           0       -1.075584   -1.347964   -0.867042
      9          1           0       -3.472371   -2.016014   -0.568365
     10          1           0       -4.533408    2.076451    0.171361
     11          1           0       -2.140082    2.757850   -0.124902
     12          7           0       -5.514852   -0.395726   -0.010713
     13          8           0       -6.325503    0.492162    0.244507
     14          8           0       -5.786085   -1.588397   -0.131561
     15          6           0        5.594683   -0.444434    0.074196
     16          6           0        6.611184    0.475827   -0.602437
     17          6           0        7.895501   -0.252593   -0.999588
     18          1           0        6.053252   -0.894423    0.965357
     19          1           0        5.352083   -1.273488   -0.604928
     20          1           0        6.850749    1.303652    0.077218
     21          1           0        6.150078    0.923826   -1.491983
     22          1           0        7.676259   -1.067504   -1.697052
     23          1           0        8.380911   -0.685520   -0.118935
     24          1           0        8.608130    0.423967   -1.481549
     25          6           0        4.305478    0.269254    0.477096
     26          6           0        3.288976   -0.651007    1.153729
     27          6           0        2.004660    0.077413    1.550880
     28          1           0        4.548078    1.098308    1.156220
     29          1           0        3.846909    0.719243   -0.414065
     30          1           0        3.750082   -1.099007    2.043275
     31          1           0        3.049411   -1.478833    0.474073
     32          1           0        1.519249    0.510340    0.670226
     33          1           0        2.223902    0.892324    2.248343
     34          1           0        1.292030   -0.599148    2.032841
 ---------------------------------------------------------------------

 SCF Done:  E(RHF) =  -669.535308418     A.U. after   15 cycles
 E2 =    -0.2090934551D+01 EUMP2 =    -0.67162624296868D+03

 The electronic state is 1-A.
 Alpha  occ. eigenvalues --  -20.60732 -20.60727 -15.85786 -11.31144 -11.27716
 Alpha  occ. eigenvalues --  -11.27712 -11.27438 -11.26726 -11.26716 -11.22460
 Alpha  occ. eigenvalues --  -11.22158 -11.22139 -11.22117 -11.21991 -11.21519
 Alpha  occ. eigenvalues --   -1.59808  -1.39361  -1.19317  -1.09142  -1.08712
 Alpha  occ. eigenvalues --   -1.04720  -1.04249  -0.96709  -0.95548  -0.87725
 Alpha  occ. eigenvalues --   -0.86116  -0.82384  -0.80316  -0.78932  -0.77430
 Alpha  occ. eigenvalues --   -0.72004  -0.71131  -0.70451  -0.65777  -0.64969
 Alpha  occ. eigenvalues --   -0.64725  -0.62070  -0.61655  -0.60073  -0.58310
 Alpha  occ. eigenvalues --   -0.56107  -0.55172  -0.53399  -0.53122  -0.53018
 Alpha  occ. eigenvalues --   -0.52811  -0.50642  -0.48766  -0.48759  -0.48621
 Alpha  occ. eigenvalues --   -0.47349  -0.46479  -0.46389  -0.44769  -0.44487
 Alpha  occ. eigenvalues --   -0.37279  -0.36326
 Alpha virt. eigenvalues --    0.05092   0.11316   0.16535   0.19937   0.22464
 Alpha virt. eigenvalues --    0.23831   0.25428   0.26310   0.26928   0.27455
 Alpha virt. eigenvalues --    0.28704   0.30271   0.30977   0.31381   0.32204

 Mulliken charges:
               1
     1  C   -0.170406
     2  C   -0.219762
     3  C   -0.171133
     4  C    0.158422
     5  C   -0.170907
     6  C   -0.219595
     7  H    0.228907
     8  H    0.223346
     9  H    0.275395
    10  H    0.275442
    11  H    0.223545
    12  N    0.488067
    13  O   -0.460537
    14  O   -0.460611
    15  C   -0.298662
    16  C   -0.300024
    17  C   -0.476055
    18  H    0.151550
    19  H    0.149693
    20  H    0.152751
    21  H    0.151465
    22  H    0.155608
    23  H    0.156211
    24  H    0.161619
    25  C   -0.298098
    26  C   -0.300027
    27  C   -0.477526
    28  H    0.151326
    29  H    0.145975
    30  H    0.156277
    31  H    0.150267
    32  H    0.143038
    33  H    0.159571
    34  H    0.164872
 Sum of Mulliken charges =  -0.00000

 Dipole moment (field-independent basis, Debye):
    X=              5.1724    Y=              1.3867    Z=             -0.5429  Tot=              5.3825
 Quadrupole moment (field-independent basis, Debye-Ang):
   XX=           -136.0917   YY=            -90.3450   ZZ=            -94.3521
   XY=             -6.7522   XZ=              2.2653   YZ=              0.7541

 Normal termination of Gaussian 16 at Thu May  6 14:12:52 2021.
