 Gaussian 16, Revision A.03,
 Gaussian 16:  EM64L-G16RevA.03 25-Dec-2016

 -------------
 #p 6-31g* mp2
 -------------

 ------------------------------------------------------
 Input file generated by CHIRIPA (05-May-2021 14:57:25)
 ------------------------------------------------------
 Symbolic Z-matrix:
 Charge =  0 Multiplicity = 1

                         Standard orientation:
 ---------------------------------------------------------------------
 Center     Atomic      Atomic             Coordinates (Angstroms)
 Number     Number       Type             X           Y           Z
 ---------------------------------------------------------------------
      1          6           0       -4.799007    2.406445   -0.368431
      2          6           0       -3.436586    2.113711   -0.247446
      3          6           0       -3.006156    0.794406   -0.077999
      4          6           0       -3.969683   -0.212048   -0.033764
      5          6           0       -5.334234    0.047686   -0.151360
      6          6           0       -5.741820    1.374318   -0.320087
      7          1           0       -5.124502    3.434159   -0.499782
      8          1           0       -2.702148    2.913251   -0.284627
      9          1           0       -1.957714    0.539613    0.018262
     10          1           0       -6.042794   -0.770658   -0.110464
     11          1           0       -6.800554    1.598706   -0.413773
     12          7           0       -3.526098   -1.612616    0.145241
     13          8           0       -4.394859   -2.481301    0.180977
     14          8           0       -2.318054   -1.815175    0.246419
     15          6           0        1.657260   -0.599039    0.645046
     16          6           0        2.385919    0.269984    1.463811
     17          6           0        3.708369    0.598512    1.151168
     18          6           0        4.273415    0.037315    0.007022
     19          6           0        3.573404   -0.831595   -0.828604
     20          6           0        2.252279   -1.146091   -0.496535
     21          1           0        0.630464   -0.848797    0.895460
     22          1           0        1.926389    0.696326    2.351003
     23          1           0        4.295387    1.268562    1.767496
     24          1           0        4.058564   -1.240848   -1.706412
     25          1           0        1.688794   -1.821270   -1.134236
     26          7           0        5.672732    0.377685   -0.334241
     27          8           0        6.147677   -0.130023   -1.347797
     28          8           0        6.268075    1.145730    0.418295
 ---------------------------------------------------------------------

 SCF Done:  E(RHF) =  -868.339610295     A.U. after   16 cycles
 E2 =    -0.2598729353D+01 EUMP2 =    -0.87093833964812D+03

 The electronic state is 1-A.
 Alpha  occ. eigenvalues --  -20.61820 -20.61754 -20.60553 -20.60545 -15.86831
 Alpha  occ. eigenvalues --  -15.85603 -11.31995 -11.30893 -11.28590 -11.28495
 Alpha  occ. eigenvalues --  -11.28201 -11.27504 -11.27477 -11.27464 -11.27420
 Alpha  occ. eigenvalues --  -11.27038 -11.26459 -11.26339  -1.60845  -1.59630
 Alpha  occ. eigenvalues --   -1.40413  -1.39185  -1.20138  -1.19043  -1.09560
 Alpha  occ. eigenvalues --   -1.08429  -1.05514  -1.04436  -0.96436  -0.95279
 Alpha  occ. eigenvalues --   -0.86920  -0.85819  -0.83283  -0.82118  -0.78364
 Alpha  occ. eigenvalues --   -0.77200  -0.73066  -0.72152  -0.71819  -0.71242
 Alpha  occ. eigenvalues --   -0.70954  -0.70064  -0.65794  -0.65507  -0.64679
 Alpha  occ. eigenvalues --   -0.64414  -0.62874  -0.61783  -0.56001  -0.54829
 Alpha  occ. eigenvalues --   -0.53846  -0.53598  -0.52775  -0.52506  -0.49823
 Alpha  occ. eigenvalues --   -0.49768  -0.48581  -0.48570  -0.45859  -0.44608
 Alpha  occ. eigenvalues --   -0.38090  -0.37107  -0.37001  -0.36058
 Alpha virt. eigenvalues --    0.04168   0.05311   0.10549   0.11603   0.15715
 Alpha virt. eigenvalues --    0.16747   0.19983   0.21893   0.25610   0.27046
 Alpha virt. eigenvalues --    0.27711   0.28954   0.30486   0.31052   0.32858

 Mulliken charges:
               1
     1  C   -0.169887
     2  C   -0.218792
     3  C   -0.171231
     4  C    0.158688
     5  C   -0.170235
     6  C   -0.218215
     7  H    0.228612
     8  H    0.225873
     9  H    0.269522
    10  H    0.277249
    11  H    0.226247
    12  N    0.492326
    13  O   -0.454206
    14  O   -0.474677
    15  C   -0.184177
    16  C   -0.220699
    17  C   -0.171699
    18  C    0.157913
    19  C   -0.171851
    20  C   -0.220823
    21  H    0.244916
    22  H    0.220965
    23  H    0.273709
    24  H    0.274961
    25  H    0.230154
    26  N    0.488119
    27  O   -0.460846
    28  O   -0.461916
 Sum of Mulliken charges =  -0.00000

 Dipole moment (field-independent basis, Debye):
    X=             -6.9278    Y=              3.7158    Z=              0.5122  Tot=              7.8781
 Quadrupole moment (field-independent basis, Debye-Ang):
   XX=           -129.8615   YY=           -105.5071   ZZ=           -102.6935
   XY=            -23.3992   XZ=              8.1493   YZ=              2.7361

 Normal termination of Gaussian 16 at Wed May  5 21:08:54 2021.
