 Gaussian 16, Revision A.03,
 Gaussian 16:  EM64L-G16RevA.03 25-Dec-2016

 -------------
 #p 6-31g* mp2
 -------------

 ------------------------------------------------------
 Input file generated by CHIRIPA (05-May-2021 14:51:12)
 ------------------------------------------------------
 Symbolic Z-matrix:
 Charge =  0 Multiplicity = 1

                         Standard orientation:
 ---------------------------------------------------------------------
 Center     Atomic      Atomic             Coordinates (Angstroms)
 Number     Number       Type             X           Y           Z
 ---------------------------------------------------------------------
      1          6           0       -3.225998    1.110932   -0.433837
      2          6           0       -2.421026    1.946606    0.561983
      3          6           0       -1.857434    3.225169   -0.058851
      4          1           0       -2.585807    0.853771   -1.288804
      5          1           0       -4.049288    1.720137   -0.831905
      6          1           0       -1.600326    1.335565    0.959092
      7          1           0       -3.063153    2.201646    1.414769
      8          1           0       -2.666108    3.857746   -0.438974
      9          1           0       -1.194969    2.986744   -0.897240
     10          1           0       -1.285570    3.807329    0.670478
     11          6           0       -3.795933   -0.170435    0.171967
     12          6           0       -4.600904   -1.006109   -0.823852
     13          6           0       -5.164497   -2.284672   -0.203018
     14          1           0       -2.972643   -0.779640    0.570036
     15          1           0       -4.436124    0.086726    1.026934
     16          1           0       -3.958778   -1.261149   -1.676638
     17          1           0       -5.421605   -0.395068   -1.220961
     18          1           0       -5.826961   -2.046248    0.635371
     19          1           0       -4.355823   -2.917249    0.177105
     20          1           0       -5.736360   -2.866832   -0.932347
     21          6           0        2.936995   -0.458870    0.634781
     22          6           0        1.656556   -1.109360    0.110067
     23          6           0        0.517382   -1.078830    1.129452
     24          1           0        3.251511   -0.972245    1.553732
     25          1           0        2.722859    0.581630    0.915672
     26          1           0        1.873364   -2.147909   -0.171046
     27          1           0        1.345157   -0.594500   -0.807846
     28          1           0        0.272535   -0.047348    1.402760
     29          1           0        0.803744   -1.609584    2.043179
     30          1           0       -0.388232   -1.549016    0.733662
     31          6           0        4.084936   -0.481626   -0.372912
     32          6           0        5.365375    0.168862    0.151802
     33          6           0        6.504548    0.138333   -0.867582
     34          1           0        4.299071   -1.522126   -0.653802
     35          1           0        3.770419    0.031748   -1.291862
     36          1           0        5.676773   -0.345997    1.069716
     37          1           0        5.148566    1.207412    0.432915
     38          1           0        6.218187    0.669087   -1.781310
     39          1           0        6.749396   -0.893148   -1.140891
     40          1           0        7.410162    0.608519   -0.471792
 ---------------------------------------------------------------------

 SCF Done:  E(RHF) =  -470.733068271     A.U. after   11 cycles
 E2 =    -0.1583168960D+01 EUMP2 =    -0.47231623723071D+03

 The electronic state is 1-A.
 Alpha  occ. eigenvalues --  -11.21681 -11.21629 -11.21577 -11.21528 -11.21453
 Alpha  occ. eigenvalues --  -11.21391 -11.21363 -11.21303 -11.21164 -11.21092
 Alpha  occ. eigenvalues --  -11.21064 -11.21056  -1.08483  -1.08392  -1.03591
 Alpha  occ. eigenvalues --   -1.03499  -0.96041  -0.95954  -0.87063  -0.86968
 Alpha  occ. eigenvalues --   -0.79675  -0.79548  -0.78301  -0.78193  -0.65171
 Alpha  occ. eigenvalues --   -0.64987  -0.61106  -0.60798  -0.59411  -0.59324
 Alpha  occ. eigenvalues --   -0.57677  -0.57539  -0.55348  -0.55233  -0.52760
 Alpha  occ. eigenvalues --   -0.52637  -0.52490  -0.52354  -0.50087  -0.49830
 Alpha  occ. eigenvalues --   -0.48037  -0.47819  -0.46827  -0.46462  -0.45859
 Alpha  occ. eigenvalues --   -0.45792  -0.45729  -0.45530  -0.43817  -0.43746
 Alpha virt. eigenvalues --    0.20714   0.23047   0.23767   0.24723   0.25954
 Alpha virt. eigenvalues --    0.26667   0.26915   0.27436   0.27917   0.28883
 Alpha virt. eigenvalues --    0.30098   0.31524   0.31794   0.31992   0.32186

 Mulliken charges:
               1
     1  C   -0.297196
     2  C   -0.307868
     3  C   -0.475393
     4  H    0.149076
     5  H    0.149316
     6  H    0.160345
     7  H    0.151722
     8  H    0.155295
     9  H    0.154443
    10  H    0.159662
    11  C   -0.302989
    12  C   -0.299559
    13  C   -0.475569
    14  H    0.154103
    15  H    0.149637
    16  H    0.151646
    17  H    0.151890
    18  H    0.155264
    19  H    0.154838
    20  H    0.160166
    21  C   -0.298738
    22  C   -0.299499
    23  C   -0.483660
    24  H    0.149880
    25  H    0.149944
    26  H    0.152258
    27  H    0.151758
    28  H    0.160170
    29  H    0.156170
    30  H    0.162422
    31  C   -0.298321
    32  C   -0.299719
    33  C   -0.475744
    34  H    0.149603
    35  H    0.149714
    36  H    0.152005
    37  H    0.152093
    38  H    0.155249
    39  H    0.155205
    40  H    0.160382
 Sum of Mulliken charges =  -0.00000

 Dipole moment (field-independent basis, Debye):
    X=              0.0400    Y=             -0.0184    Z=              0.0209  Tot=              0.0487
 Quadrupole moment (field-independent basis, Debye-Ang):
   XX=            -85.0562   YY=            -84.7080   ZZ=            -85.0638
   XY=             -1.2051   XZ=              0.5869   YZ=              0.1132

 Normal termination of Gaussian 16 at Wed May  5 15:17:18 2021.
