 Gaussian 16, Revision A.03,
 Gaussian 16:  EM64L-G16RevA.03 25-Dec-2016

 -------------
 #p 6-31g* mp2
 -------------

 ------------------------------------------------------
 Input file generated by CHIRIPA (05-May-2021 14:51:11)
 ------------------------------------------------------
 Symbolic Z-matrix:
 Charge =  0 Multiplicity = 1

                         Standard orientation:
 ---------------------------------------------------------------------
 Center     Atomic      Atomic             Coordinates (Angstroms)
 Number     Number       Type             X           Y           Z
 ---------------------------------------------------------------------
      1          6           0       -2.869152   -0.245710   -0.311046
      2          6           0       -2.626406    0.924913   -1.264305
      3          6           0       -3.634386    0.970618   -2.413078
      4          1           0       -2.825184   -1.186321   -0.876965
      5          1           0       -3.887243   -0.173070    0.095905
      6          1           0       -1.608594    0.850852   -1.668273
      7          1           0       -2.670766    1.862834   -0.696016
      8          1           0       -4.654203    1.068546   -2.027092
      9          1           0       -3.585995    0.050814   -3.004872
     10          1           0       -3.442377    1.815096   -3.082295
     11          6           0       -1.869504   -0.304858    0.842615
     12          6           0       -2.112250   -1.475480    1.795873
     13          6           0       -1.104270   -1.521186    2.944647
     14          1           0       -0.851414   -0.377498    0.435663
     15          1           0       -1.913472    0.635753    1.408534
     16          1           0       -2.067890   -2.413402    1.227585
     17          1           0       -3.130062   -1.401420    2.199841
     18          1           0       -1.152661   -0.601382    3.536441
     19          1           0       -0.084453   -1.619114    2.558660
     20          1           0       -1.296279   -2.365663    3.613863
     21          6           0        2.217437   -0.215205   -0.831277
     22          6           0        2.980890   -1.534547   -0.711021
     23          6           0        2.666467   -2.505386   -1.849619
     24          1           0        1.138907   -0.423431   -0.850190
     25          1           0        2.461843    0.255403   -1.793664
     26          1           0        2.736184   -2.001853    0.251455
     27          1           0        4.057723   -1.323141   -0.692200
     28          1           0        2.927488   -2.062829   -2.816373
     29          1           0        1.598440   -2.745397   -1.867357
     30          1           0        3.222931   -3.441884   -1.743884
     31          6           0        2.521219    0.765773    0.299708
     32          6           0        1.757766    2.085114    0.179453
     33          6           0        2.072189    3.055954    1.318050
     34          1           0        2.276813    0.295165    1.262095
     35          1           0        3.599749    0.973999    0.318621
     36          1           0        0.680933    1.873710    0.160632
     37          1           0        2.002472    2.552421   -0.783023
     38          1           0        3.140215    3.295965    1.335788
     39          1           0        1.811168    2.613397    2.284804
     40          1           0        1.515725    3.992451    1.212316
 ---------------------------------------------------------------------

 SCF Done:  E(RHF) =  -470.733195992     A.U. after   11 cycles
 E2 =    -0.1584478975D+01 EUMP2 =    -0.47231767496772D+03

 The electronic state is 1-A.
 Alpha  occ. eigenvalues --  -11.21677 -11.21647 -11.21639 -11.21527 -11.21468
 Alpha  occ. eigenvalues --  -11.21423 -11.21408 -11.21352 -11.21158 -11.21119
 Alpha  occ. eigenvalues --  -11.21096 -11.21028  -1.08524  -1.08418  -1.03587
 Alpha  occ. eigenvalues --   -1.03527  -0.96043  -0.95983  -0.87056  -0.86999
 Alpha  occ. eigenvalues --   -0.79653  -0.79588  -0.78459  -0.78130  -0.65361
 Alpha  occ. eigenvalues --   -0.64869  -0.60988  -0.60919  -0.59407  -0.59348
 Alpha  occ. eigenvalues --   -0.57664  -0.57583  -0.55397  -0.55219  -0.52736
 Alpha  occ. eigenvalues --   -0.52672  -0.52465  -0.52409  -0.50016  -0.49903
 Alpha  occ. eigenvalues --   -0.47975  -0.47908  -0.46711  -0.46625  -0.46464
 Alpha  occ. eigenvalues --   -0.45785  -0.45743  -0.45057  -0.43842  -0.43783
 Alpha virt. eigenvalues --    0.19478   0.22762   0.23731   0.24271   0.25132
 Alpha virt. eigenvalues --    0.26006   0.26606   0.27796   0.28699   0.30637
 Alpha virt. eigenvalues --    0.31134   0.31486   0.31726   0.31918   0.32489

 Mulliken charges:
               1
     1  C   -0.297598
     2  C   -0.302769
     3  C   -0.475733
     4  H    0.149356
     5  H    0.149874
     6  H    0.154632
     7  H    0.152153
     8  H    0.155271
     9  H    0.155316
    10  H    0.160608
    11  C   -0.309330
    12  C   -0.299088
    13  C   -0.476668
    14  H    0.159408
    15  H    0.150155
    16  H    0.151908
    17  H    0.152462
    18  H    0.155428
    19  H    0.154919
    20  H    0.160870
    21  C   -0.305862
    22  C   -0.299591
    23  C   -0.475613
    24  H    0.154819
    25  H    0.149990
    26  H    0.151541
    27  H    0.152548
    28  H    0.155436
    29  H    0.154463
    30  H    0.160559
    31  C   -0.298908
    32  C   -0.304928
    33  C   -0.475682
    34  H    0.150320
    35  H    0.149871
    36  H    0.158446
    37  H    0.151262
    38  H    0.154864
    39  H    0.155341
    40  H    0.159949
 Sum of Mulliken charges =  -0.00000

 Dipole moment (field-independent basis, Debye):
    X=             -0.0275    Y=             -0.0023    Z=             -0.0033  Tot=              0.0277
 Quadrupole moment (field-independent basis, Debye-Ang):
   XX=            -84.2052   YY=            -84.9938   ZZ=            -85.4885
   XY=             -0.0874   XZ=             -1.4712   YZ=             -0.3622

 Normal termination of Gaussian 16 at Wed May  5 19:52:09 2021.
