 Gaussian 16, Revision A.03,
 Gaussian 16:  EM64L-G16RevA.03 25-Dec-2016

 -------------
 #p 6-31g* mp2
 -------------

 ------------------------------------------------------
 Input file generated by CHIRIPA (05-May-2021 14:55:23)
 ------------------------------------------------------
 Symbolic Z-matrix:
 Charge =  0 Multiplicity = 1

                         Standard orientation:
 ---------------------------------------------------------------------
 Center     Atomic      Atomic             Coordinates (Angstroms)
 Number     Number       Type             X           Y           Z
 ---------------------------------------------------------------------
      1          6           0        1.015086   -0.319575    2.055428
      2          6           0        0.934742   -1.102186    0.898887
      3          6           0        1.864049   -0.941448   -0.133149
      4          6           0        2.865179    0.015578    0.025374
      5          6           0        2.971686    0.810539    1.165543
      6          6           0        2.031510    0.632610    2.184837
      7          1           0        0.288957   -0.451117    2.852189
      8          1           0        0.146443   -1.842437    0.795650
      9          1           0        1.825194   -1.533883   -1.039200
     10          1           0        3.768765    1.540330    1.239617
     11          1           0        2.096354    1.241804    3.081900
     12          7           0        3.854749    0.194844   -1.060451
     13          8           0        4.727236    1.044847   -0.896444
     14          8           0        3.739148   -0.518046   -2.054967
     15          6           0       -3.685961    0.644257   -0.634934
     16          6           0       -3.528106    1.927533    0.181321
     17          6           0       -3.987035    3.172067   -0.579149
     18          1           0       -3.113113    0.737756   -1.567697
     19          1           0       -4.739534    0.529929   -0.925294
     20          1           0       -2.475389    2.038688    0.471228
     21          1           0       -4.101243    1.830893    1.112336
     22          1           0       -5.043068    3.087255   -0.855200
     23          1           0       -3.407975    3.296230   -1.499951
     24          1           0       -3.865437    4.077978    0.022846
     25          6           0       -3.231380   -0.608502    0.111845
     26          6           0       -3.389235   -1.891778   -0.704409
     27          6           0       -2.930307   -3.136312    0.056061
     28          1           0       -2.177807   -0.494174    0.402204
     29          1           0       -3.804230   -0.702000    1.044608
     30          1           0       -2.816099   -1.795138   -1.635425
     31          1           0       -4.441953   -2.002932   -0.994318
     32          1           0       -3.509366   -3.260475    0.976861
     33          1           0       -1.874275   -3.051499    0.332109
     34          1           0       -3.051905   -4.042223   -0.545935
 ---------------------------------------------------------------------

 SCF Done:  E(RHF) =  -669.535457584     A.U. after   15 cycles
 E2 =    -0.2092042825D+01 EUMP2 =    -0.67162750040964D+03

 The electronic state is 1-A.
 Alpha  occ. eigenvalues --  -20.60793 -20.60788 -15.85847 -11.31226 -11.27799
 Alpha  occ. eigenvalues --  -11.27795 -11.27539 -11.26805 -11.26791 -11.22348
 Alpha  occ. eigenvalues --  -11.22097 -11.22061 -11.22059 -11.21886 -11.21410
 Alpha  occ. eigenvalues --   -1.59869  -1.39422  -1.19402  -1.09061  -1.08790
 Alpha  occ. eigenvalues --   -1.04808  -1.04161  -0.96619  -0.95622  -0.87634
 Alpha  occ. eigenvalues --   -0.86206  -0.82456  -0.80229  -0.78864  -0.77502
 Alpha  occ. eigenvalues --   -0.72065  -0.71192  -0.70497  -0.65753  -0.65051
 Alpha  occ. eigenvalues --   -0.64785  -0.62212  -0.61499  -0.59987  -0.58222
 Alpha  occ. eigenvalues --   -0.55941  -0.55290  -0.53301  -0.53158  -0.53074
 Alpha  occ. eigenvalues --   -0.52858  -0.50568  -0.48837  -0.48819  -0.48526
 Alpha  occ. eigenvalues --   -0.47246  -0.46396  -0.46299  -0.44824  -0.44398
 Alpha  occ. eigenvalues --   -0.37367  -0.36397
 Alpha virt. eigenvalues --    0.05034   0.11096   0.16508   0.19348   0.22729
 Alpha virt. eigenvalues --    0.23631   0.25410   0.26537   0.26861   0.28285
 Alpha virt. eigenvalues --    0.28880   0.29922   0.31083   0.31508   0.31978

 Mulliken charges:
               1
     1  C   -0.174040
     2  C   -0.225255
     3  C   -0.174733
     4  C    0.158732
     5  C   -0.170817
     6  C   -0.218673
     7  H    0.227473
     8  H    0.236155
     9  H    0.276223
    10  H    0.275799
    11  H    0.223734
    12  N    0.488099
    13  O   -0.460380
    14  O   -0.460291
    15  C   -0.298262
    16  C   -0.300606
    17  C   -0.476120
    18  H    0.152661
    19  H    0.151242
    20  H    0.152199
    21  H    0.150610
    22  H    0.155938
    23  H    0.157569
    24  H    0.160869
    25  C   -0.302834
    26  C   -0.300897
    27  C   -0.479118
    28  H    0.146471
    29  H    0.148929
    30  H    0.154320
    31  H    0.156143
    32  H    0.157826
    33  H    0.145055
    34  H    0.165979
 Sum of Mulliken charges =  -0.00000

 Dipole moment (field-independent basis, Debye):
    X=             -3.5977    Y=             -0.5906    Z=              3.7674  Tot=              5.2426
 Quadrupole moment (field-independent basis, Debye-Ang):
   XX=           -112.9946   YY=            -93.4037   ZZ=            -93.5721
   XY=              0.5293   XZ=             12.1262   YZ=              2.6912

 Normal termination of Gaussian 16 at Wed May  5 17:32:58 2021.
