 Gaussian 16, Revision A.03,
 Gaussian 16:  EM64L-G16RevA.03 25-Dec-2016

 -------------
 #p 6-31g* mp2
 -------------

 ------------------------------------------------------
 Input file generated by CHIRIPA (05-May-2021 14:53:14)
 ------------------------------------------------------
 Symbolic Z-matrix:
 Charge =  0 Multiplicity = 1

                         Standard orientation:
 ---------------------------------------------------------------------
 Center     Atomic      Atomic             Coordinates (Angstroms)
 Number     Number       Type             X           Y           Z
 ---------------------------------------------------------------------
      1          6           0        2.958311    0.542275   -0.032843
      2          6           0        2.632535    1.707478   -0.967807
      3          6           0        1.329404    2.416226   -0.597242
      4          1           0        2.129075   -0.178093   -0.052384
      5          1           0        3.023500    0.915946    0.998426
      6          1           0        2.569345    1.331960   -1.997180
      7          1           0        3.462729    2.425062   -0.946183
      8          1           0        1.385053    2.817921    0.419687
      9          1           0        0.486594    1.718608   -0.637281
     10          1           0        1.115818    3.245781   -1.278476
     11          6           0        4.258150   -0.176237   -0.390453
     12          6           0        4.583926   -1.341440    0.544510
     13          6           0        5.887058   -2.050188    0.173946
     14          1           0        4.192961   -0.549909   -1.421722
     15          1           0        5.087387    0.544131   -0.370912
     16          1           0        3.753733   -2.059025    0.522887
     17          1           0        4.647116   -0.965923    1.573884
     18          1           0        6.729867   -1.352571    0.213985
     19          1           0        5.831408   -2.451884   -0.842983
     20          1           0        6.100643   -2.879743    0.855180
     21          6           0       -1.831166    1.968323    1.131077
     22          6           0       -2.325165    1.961480   -0.177525
     23          6           0       -2.874650    0.797373   -0.722932
     24          6           0       -2.914424   -0.347097    0.071987
     25          6           0       -2.430381   -0.371931    1.379035
     26          6           0       -1.885255    0.803649    1.903819
     27          1           0       -1.406006    2.877086    1.546751
     28          1           0       -2.284464    2.864508   -0.779960
     29          1           0       -3.264271    0.764146   -1.733135
     30          1           0       -2.484711   -1.287634    1.955191
     31          1           0       -1.502362    0.806037    2.920398
     32          7           0       -3.493832   -1.585557   -0.494493
     33          8           0       -3.517257   -2.580735    0.226415
     34          8           0       -3.913575   -1.537636   -1.648685
 ---------------------------------------------------------------------

 SCF Done:  E(RHF) =  -669.534383677     A.U. after   15 cycles
 E2 =    -0.2092612427D+01 EUMP2 =    -0.67162699610428D+03

 The electronic state is 1-A.
 Alpha  occ. eigenvalues --  -20.60781 -20.60776 -15.85836 -11.31198 -11.27779
 Alpha  occ. eigenvalues --  -11.27766 -11.27480 -11.26766 -11.26739 -11.21975
 Alpha  occ. eigenvalues --  -11.21785 -11.21706 -11.21594 -11.21542 -11.21201
 Alpha  occ. eigenvalues --   -1.59858  -1.39411  -1.19384  -1.08788  -1.08699
 Alpha  occ. eigenvalues --   -1.04784  -1.03827  -0.96303  -0.95596  -0.87331
 Alpha  occ. eigenvalues --   -0.86167  -0.82432  -0.79909  -0.78519  -0.77481
 Alpha  occ. eigenvalues --   -0.72053  -0.71184  -0.70471  -0.65343  -0.65024
 Alpha  occ. eigenvalues --   -0.64772  -0.62124  -0.61232  -0.59671  -0.57926
 Alpha  occ. eigenvalues --   -0.55651  -0.55244  -0.53430  -0.52994  -0.52847
 Alpha  occ. eigenvalues --   -0.52462  -0.50201  -0.48811  -0.48808  -0.48203
 Alpha  occ. eigenvalues --   -0.46916  -0.46064  -0.45975  -0.44818  -0.44089
 Alpha  occ. eigenvalues --   -0.37253  -0.36365
 Alpha virt. eigenvalues --    0.05042   0.11229   0.16512   0.21004   0.22636
 Alpha virt. eigenvalues --    0.24082   0.26196   0.26833   0.27081   0.27596
 Alpha virt. eigenvalues --    0.28728   0.30113   0.31412   0.31716   0.32081

 Mulliken charges:
               1
     1  C   -0.298499
     2  C   -0.299061
     3  C   -0.482946
     4  H    0.152004
     5  H    0.146482
     6  H    0.154060
     7  H    0.151642
     8  H    0.146608
     9  H    0.167603
    10  H    0.155418
    11  C   -0.298553
    12  C   -0.300041
    13  C   -0.475895
    14  H    0.151242
    15  H    0.149484
    16  H    0.153519
    17  H    0.150517
    18  H    0.154887
    19  H    0.156408
    20  H    0.160998
    21  C   -0.165924
    22  C   -0.219772
    23  C   -0.172048
    24  C    0.157960
    25  C   -0.171201
    26  C   -0.218824
    27  H    0.226967
    28  H    0.224922
    29  H    0.275686
    30  H    0.275679
    31  H    0.223589
    32  N    0.488115
    33  O   -0.460527
    34  O   -0.460497
 Sum of Mulliken charges =  -0.00000

 Dipole moment (field-independent basis, Debye):
    X=              2.0369    Y=              4.3136    Z=              1.9904  Tot=              5.1690
 Quadrupole moment (field-independent basis, Debye-Ang):
   XX=           -107.9079   YY=            -97.3610   ZZ=            -90.6031
   XY=            -13.4930   XZ=             -4.4535   YZ=             -2.3708

 Normal termination of Gaussian 16 at Thu May  6 04:14:13 2021.
