 Gaussian 16, Revision A.03,
 Gaussian 16:  EM64L-G16RevA.03 25-Dec-2016

 -------------
 #p 6-31g* mp2
 -------------

 ------------------------------------------------------
 Input file generated by CHIRIPA (05-May-2021 14:53:11)
 ------------------------------------------------------
 Symbolic Z-matrix:
 Charge =  0 Multiplicity = 1

                         Standard orientation:
 ---------------------------------------------------------------------
 Center     Atomic      Atomic             Coordinates (Angstroms)
 Number     Number       Type             X           Y           Z
 ---------------------------------------------------------------------
      1          6           0       -4.629261   -0.396962    0.188910
      2          6           0       -5.856364    0.240422   -0.463734
      3          6           0       -7.109323    0.137391    0.406480
      4          1           0       -4.842799   -1.453110    0.403147
      5          1           0       -4.444743    0.087402    1.157796
      6          1           0       -6.037689   -0.244061   -1.431728
      7          1           0       -5.639812    1.295127   -0.676617
      8          1           0       -6.952828    0.637257    1.367856
      9          1           0       -7.352966   -0.910677    0.608455
     10          1           0       -7.974536    0.599318   -0.079204
     11          6           0       -3.368780   -0.301947   -0.668928
     12          6           0       -2.141676   -0.939331   -0.016285
     13          6           0       -0.888718   -0.836300   -0.886499
     14          1           0       -3.553297   -0.786311   -1.637814
     15          1           0       -3.155242    0.754202   -0.883166
     16          1           0       -2.358228   -1.994036    0.196598
     17          1           0       -1.960351   -0.454848    0.951710
     18          1           0       -0.645074    0.211768   -1.088473
     19          1           0       -1.045212   -1.336166   -1.847875
     20          1           0       -0.023505   -1.298227   -0.400815
     21          6           0        5.212955   -1.015710   -0.397615
     22          6           0        4.865879    0.124576   -1.129602
     23          6           0        3.710853    0.846394   -0.814257
     24          6           0        2.922305    0.397600    0.244075
     25          6           0        3.241414   -0.734608    0.992114
     26          6           0        4.401047   -1.440913    0.659045
     27          1           0        6.111996   -1.570410   -0.649466
     28          1           0        5.494533    0.457121   -1.950731
     29          1           0        3.418607    1.732596   -1.364401
     30          1           0        2.594883   -1.041593    1.805241
     31          1           0        4.668122   -2.326115    1.229249
     32          7           0        1.697093    1.153545    0.587298
     33          8           0        1.019146    0.737462    1.524261
     34          8           0        1.437917    2.147824   -0.087146
 ---------------------------------------------------------------------

 SCF Done:  E(RHF) =  -669.536321922     A.U. after   15 cycles
 E2 =    -0.2092571454D+01 EUMP2 =    -0.67162889337534D+03

 The electronic state is 1-A.
 Alpha  occ. eigenvalues --  -20.60946 -20.60940 -15.85934 -11.31265 -11.27828
 Alpha  occ. eigenvalues --  -11.27819 -11.27562 -11.26835 -11.26825 -11.20962
 Alpha  occ. eigenvalues --  -11.20622 -11.20540 -11.20531 -11.20456 -11.20114
 Alpha  occ. eigenvalues --   -1.59981  -1.39542  -1.19430  -1.08835  -1.07599
 Alpha  occ. eigenvalues --   -1.04827  -1.02710  -0.95681  -0.95196  -0.86243
 Alpha  occ. eigenvalues --   -0.86218  -0.82519  -0.78806  -0.77574  -0.77397
 Alpha  occ. eigenvalues --   -0.72183  -0.71308  -0.70542  -0.65089  -0.64833
 Alpha  occ. eigenvalues --   -0.64211  -0.62177  -0.60075  -0.58582  -0.56804
 Alpha  occ. eigenvalues --   -0.55336  -0.54465  -0.53153  -0.52921  -0.51929
 Alpha  occ. eigenvalues --   -0.51628  -0.49176  -0.48947  -0.48883  -0.47126
 Alpha  occ. eigenvalues --   -0.45814  -0.45026  -0.44916  -0.44737  -0.42984
 Alpha  occ. eigenvalues --   -0.37398  -0.36424
 Alpha virt. eigenvalues --    0.04921   0.11176   0.16392   0.21338   0.23712
 Alpha virt. eigenvalues --    0.25090   0.27242   0.27487   0.28086   0.28355
 Alpha virt. eigenvalues --    0.28742   0.30915   0.31724   0.32263   0.32546

 Mulliken charges:
               1
     1  C   -0.298187
     2  C   -0.299239
     3  C   -0.475335
     4  H    0.146675
     5  H    0.151913
     6  H    0.149883
     7  H    0.152878
     8  H    0.155515
     9  H    0.153588
    10  H    0.158378
    11  C   -0.299016
    12  C   -0.300189
    13  C   -0.481074
    14  H    0.144855
    15  H    0.154377
    16  H    0.144602
    17  H    0.167428
    18  H    0.166957
    19  H    0.147147
    20  H    0.151677
    21  C   -0.170529
    22  C   -0.218497
    23  C   -0.170629
    24  C    0.159919
    25  C   -0.172064
    26  C   -0.218497
    27  H    0.225916
    28  H    0.223784
    29  H    0.275786
    30  H    0.275841
    31  H    0.223780
    32  N    0.490139
    33  O   -0.458188
    34  O   -0.459591
 Sum of Mulliken charges =  -0.00000

 Dipole moment (field-independent basis, Debye):
    X=              4.5263    Y=             -2.4960    Z=             -1.0964  Tot=              5.2839
 Quadrupole moment (field-independent basis, Debye-Ang):
   XX=            -71.4487   YY=            -94.6617   ZZ=            -93.1876
   XY=             -5.6434   XZ=             -3.0620   YZ=             -3.6939

 Normal termination of Gaussian 16 at Wed May  5 20:03:35 2021.
