 Gaussian 16, Revision A.03,
 Gaussian 16:  EM64L-G16RevA.03 25-Dec-2016

 -------------
 #p 6-31g* mp2
 -------------

 ------------------------------------------------------
 Input file generated by CHIRIPA (05-May-2021 14:57:25)
 ------------------------------------------------------
 Symbolic Z-matrix:
 Charge =  0 Multiplicity = 1

                         Standard orientation:
 ---------------------------------------------------------------------
 Center     Atomic      Atomic             Coordinates (Angstroms)
 Number     Number       Type             X           Y           Z
 ---------------------------------------------------------------------
      1          6           0       -6.236671    0.272368    0.172271
      2          6           0       -5.483488    0.969069   -0.778436
      3          6           0       -4.105650    0.758080   -0.886108
      4          6           0       -3.510824   -0.161050   -0.023163
      5          6           0       -4.234098   -0.870597    0.934285
      6          6           0       -5.610675   -0.643627    1.024096
      7          1           0       -7.306519    0.442477    0.248976
      8          1           0       -5.966974    1.681044   -1.441292
      9          1           0       -3.498613    1.283848   -1.613082
     10          1           0       -3.724000   -1.573993    1.581164
     11          1           0       -6.193097   -1.186119    1.763374
     12          7           0       -2.052835   -0.392874   -0.127697
     13          8           0       -1.552545   -1.207977    0.644284
     14          8           0       -1.437961    0.244915   -0.979631
     15          6           0        4.232760   -2.324226   -0.375907
     16          6           0        5.242303   -1.476853    0.092395
     17          6           0        4.986760   -0.119301    0.307558
     18          6           0        3.704555    0.359415    0.042850
     19          6           0        2.677766   -0.459559   -0.424350
     20          6           0        2.955964   -1.813774   -0.632332
     21          1           0        4.440072   -3.377509   -0.540261
     22          1           0        6.234812   -1.870516    0.292391
     23          1           0        5.749822    0.559015    0.669553
     24          1           0        1.698228   -0.038038   -0.614727
     25          1           0        2.170002   -2.469516   -0.996078
     26          7           0        3.422030    1.794829    0.266833
     27          8           0        2.284093    2.192011    0.026035
     28          8           0        4.343874    2.495544    0.678947
 ---------------------------------------------------------------------

 SCF Done:  E(RHF) =  -868.340301891     A.U. after   16 cycles
 E2 =    -0.2598822077D+01 EUMP2 =    -0.87093912396808D+03

 The electronic state is 1-A.
 Alpha  occ. eigenvalues --  -20.61273 -20.61199 -20.59632 -20.59594 -15.86222
 Alpha  occ. eigenvalues --  -15.84663 -11.31384 -11.29896 -11.27940 -11.27905
 Alpha  occ. eigenvalues --  -11.27645 -11.26909 -11.26883 -11.26591 -11.26312
 Alpha  occ. eigenvalues --  -11.26252 -11.25607 -11.25392  -1.60277  -1.58700
 Alpha  occ. eigenvalues --   -1.39833  -1.38249  -1.19537  -1.18096  -1.08977
 Alpha  occ. eigenvalues --   -1.07543  -1.04908  -1.03457  -0.95844  -0.94376
 Alpha  occ. eigenvalues --   -0.86317  -0.84880  -0.82680  -0.81195  -0.77751
 Alpha  occ. eigenvalues --   -0.76229  -0.72450  -0.71559  -0.70888  -0.70648
 Alpha  occ. eigenvalues --   -0.70024  -0.69219  -0.65194  -0.64914  -0.63750
 Alpha  occ. eigenvalues --   -0.63471  -0.62255  -0.60767  -0.55428  -0.54042
 Alpha  occ. eigenvalues --   -0.53248  -0.52999  -0.51840  -0.51546  -0.49223
 Alpha  occ. eigenvalues --   -0.49208  -0.47660  -0.47622  -0.45271  -0.43684
 Alpha  occ. eigenvalues --   -0.37509  -0.36499  -0.36141  -0.35059
 Alpha virt. eigenvalues --    0.04777   0.06263   0.11159   0.12576   0.16308
 Alpha virt. eigenvalues --    0.17745   0.21300   0.22697   0.27232   0.28163
 Alpha virt. eigenvalues --    0.28660   0.29657   0.30893   0.32152   0.32431

 Mulliken charges:
               1
     1  C   -0.169997
     2  C   -0.218653
     3  C   -0.169702
     4  C    0.158329
     5  C   -0.170483
     6  C   -0.218682
     7  H    0.226553
     8  H    0.224936
     9  H    0.277948
    10  H    0.275097
    11  H    0.223926
    12  N    0.489896
    13  O   -0.464162
    14  O   -0.459897
    15  C   -0.171542
    16  C   -0.220124
    17  C   -0.172194
    18  C    0.155204
    19  C   -0.175108
    20  C   -0.220686
    21  H    0.220919
    22  H    0.218176
    23  H    0.271215
    24  H    0.297906
    25  H    0.227191
    26  N    0.487231
    27  O   -0.456086
    28  O   -0.467211
 Sum of Mulliken charges =  -0.00000

 Dipole moment (field-independent basis, Debye):
    X=             -4.7383    Y=             -4.1918    Z=             -0.4971  Tot=              6.3458
 Quadrupole moment (field-independent basis, Debye-Ang):
   XX=            -59.0336   YY=           -107.8931   ZZ=           -102.8630
   XY=            -19.8259   XZ=             -2.8445   YZ=             -3.3580

 Normal termination of Gaussian 16 at Wed May  5 17:57:55 2021.
