 Gaussian 16, Revision A.03,
 Gaussian 16:  EM64L-G16RevA.03 25-Dec-2016

 -------------
 #p 6-31g* mp2
 -------------

 ------------------------------------------------------
 Input file generated by CHIRIPA (05-May-2021 14:53:13)
 ------------------------------------------------------
 Symbolic Z-matrix:
 Charge =  0 Multiplicity = 1

                         Standard orientation:
 ---------------------------------------------------------------------
 Center     Atomic      Atomic             Coordinates (Angstroms)
 Number     Number       Type             X           Y           Z
 ---------------------------------------------------------------------
      1          6           0       -3.942167    0.464337   -0.173129
      2          6           0       -3.884802    1.950705    0.180995
      3          6           0       -2.475686    2.532424    0.063571
      4          1           0       -3.259212   -0.089593    0.485414
      5          1           0       -3.570778    0.324059   -1.197721
      6          1           0       -4.257486    2.088304    1.204122
      7          1           0       -4.568117    2.501136   -0.478340
      8          1           0       -2.098237    2.424371   -0.958417
      9          1           0       -1.785841    2.009194    0.733605
     10          1           0       -2.457663    3.595982    0.321212
     11          6           0       -5.344274   -0.131595   -0.060486
     12          6           0       -5.401639   -1.617963   -0.414611
     13          6           0       -6.810756   -2.199681   -0.297186
     14          1           0       -5.715663    0.008683    0.964105
     15          1           0       -6.027230    0.422335   -0.719029
     16          1           0       -4.718324   -2.168394    0.244724
     17          1           0       -5.028955   -1.755562   -1.437738
     18          1           0       -7.500600   -1.676451   -0.967221
     19          1           0       -7.188205   -2.091629    0.724801
     20          1           0       -6.828778   -3.263240   -0.554828
     21          6           0        1.326248    0.624835    0.798607
     22          6           0        1.823263   -0.607944    1.234215
     23          6           0        3.096960   -1.036314    0.848544
     24          6           0        3.849994   -0.202949    0.022872
     25          6           0        3.382655    1.030695   -0.427688
     26          6           0        2.106155    1.438784   -0.029494
     27          1           0        0.335720    0.949726    1.103069
     28          1           0        1.219797   -1.242139    1.877386
     29          1           0        3.506306   -1.985927    1.171170
     30          1           0        4.007617    1.641057   -1.068234
     31          1           0        1.722742    2.396676   -0.369324
     32          7           0        5.199884   -0.645712   -0.392050
     33          8           0        5.843555    0.106919   -1.119972
     34          8           0        5.588696   -1.736995    0.018514
 ---------------------------------------------------------------------

 SCF Done:  E(RHF) =  -669.535513357     A.U. after   15 cycles
 E2 =    -0.2090830545D+01 EUMP2 =    -0.67162634390182D+03

 The electronic state is 1-A.
 Alpha  occ. eigenvalues --  -20.60715 -20.60710 -15.85769 -11.31121 -11.27694
 Alpha  occ. eigenvalues --  -11.27687 -11.27402 -11.26702 -11.26682 -11.22537
 Alpha  occ. eigenvalues --  -11.22321 -11.22219 -11.22160 -11.22024 -11.21528
 Alpha  occ. eigenvalues --   -1.59791  -1.39345  -1.19292  -1.09195  -1.08686
 Alpha  occ. eigenvalues --   -1.04695  -1.04314  -0.96785  -0.95525  -0.87807
 Alpha  occ. eigenvalues --   -0.86089  -0.82361  -0.80388  -0.78976  -0.77409
 Alpha  occ. eigenvalues --   -0.71986  -0.71114  -0.70417  -0.65824  -0.64943
 Alpha  occ. eigenvalues --   -0.64698  -0.62044  -0.61716  -0.60158  -0.58384
 Alpha  occ. eigenvalues --   -0.56151  -0.55171  -0.53470  -0.53187  -0.53019
 Alpha  occ. eigenvalues --   -0.52785  -0.50725  -0.48755  -0.48742  -0.48682
 Alpha  occ. eigenvalues --   -0.47407  -0.46528  -0.46424  -0.44753  -0.44551
 Alpha  occ. eigenvalues --   -0.37265  -0.36302
 Alpha virt. eigenvalues --    0.05126   0.11351   0.16612   0.19659   0.22373
 Alpha virt. eigenvalues --    0.23709   0.25182   0.26142   0.26890   0.27468
 Alpha virt. eigenvalues --    0.28828   0.30079   0.30982   0.31366   0.32285

 Mulliken charges:
               1
     1  C   -0.298017
     2  C   -0.299517
     3  C   -0.480875
     4  H    0.144703
     5  H    0.151730
     6  H    0.153995
     7  H    0.156268
     8  H    0.157890
     9  H    0.145572
    10  H    0.164510
    11  C   -0.298910
    12  C   -0.300004
    13  C   -0.476136
    14  H    0.150277
    15  H    0.151653
    16  H    0.151038
    17  H    0.153252
    18  H    0.156277
    19  H    0.155610
    20  H    0.161920
    21  C   -0.175008
    22  C   -0.220560
    23  C   -0.170743
    24  C    0.158228
    25  C   -0.170942
    26  C   -0.221935
    27  H    0.234580
    28  H    0.223336
    29  H    0.275276
    30  H    0.275385
    31  H    0.224409
    32  N    0.488015
    33  O   -0.460626
    34  O   -0.460652
 Sum of Mulliken charges =  -0.00000

 Dipole moment (field-independent basis, Debye):
    X=             -5.0092    Y=              1.5871    Z=              1.4008  Tot=              5.4381
 Quadrupole moment (field-independent basis, Debye-Ang):
   XX=           -132.0419   YY=            -92.0941   ZZ=            -93.0075
   XY=              6.9006   XZ=              5.5520   YZ=             -3.1309

 Normal termination of Gaussian 16 at Wed May  5 15:31:52 2021.
