 Gaussian 16, Revision A.03,
 Gaussian 16:  EM64L-G16RevA.03 25-Dec-2016

 -------------
 #p 6-31g* mp2
 -------------

 ------------------------------------------------------
 Input file generated by CHIRIPA (05-May-2021 14:57:25)
 ------------------------------------------------------
 Symbolic Z-matrix:
 Charge =  0 Multiplicity = 1

                         Standard orientation:
 ---------------------------------------------------------------------
 Center     Atomic      Atomic             Coordinates (Angstroms)
 Number     Number       Type             X           Y           Z
 ---------------------------------------------------------------------
      1          6           0       -1.482998    0.003899    2.049651
      2          6           0       -2.367414    1.083753    1.958849
      3          6           0       -3.365018    1.104050    0.979604
      4          6           0       -3.449925    0.022988    0.103598
      5          6           0       -2.583713   -1.067305    0.168618
      6          6           0       -1.593775   -1.066296    1.155821
      7          1           0       -0.711013   -0.003593    2.813443
      8          1           0       -2.283738    1.916249    2.651664
      9          1           0       -4.062898    1.927324    0.886854
     10          1           0       -2.691939   -1.882755   -0.536183
     11          1           0       -0.908308   -1.906258    1.223985
     12          7           0       -4.501986    0.033198   -0.937297
     13          8           0       -4.555840   -0.931396   -1.697097
     14          8           0       -5.252818    1.005602   -0.973642
     15          6           0        3.797714    2.438158   -0.488060
     16          6           0        4.780407    1.550869   -0.036893
     17          6           0        4.502799    0.186085    0.084963
     18          6           0        3.226147   -0.259077   -0.254567
     19          6           0        2.225880    0.600025   -0.707003
     20          6           0        2.525830    1.960747   -0.821087
     21          1           0        4.022045    3.496777   -0.579702
     22          1           0        5.769043    1.918812    0.222456
     23          1           0        5.244873   -0.522820    0.431658
     24          1           0        1.249560    0.203522   -0.958006
     25          1           0        1.760698    2.647523   -1.171741
     26          7           0        2.920430   -1.701762   -0.129678
     27          8           0        1.787930   -2.068860   -0.435160
     28          8           0        3.819097   -2.438123    0.271328
 ---------------------------------------------------------------------

 SCF Done:  E(RHF) =  -868.339713217     A.U. after   16 cycles
 E2 =    -0.2599131081D+01 EUMP2 =    -0.87093884429872D+03

 The electronic state is 1-A.
 Alpha  occ. eigenvalues --  -20.61550 -20.61499 -20.60643 -20.60627 -15.86563
 Alpha  occ. eigenvalues --  -15.85685 -11.31739 -11.31005 -11.28290 -11.28259
 Alpha  occ. eigenvalues --  -11.27993 -11.27591 -11.27452 -11.27260 -11.27254
 Alpha  occ. eigenvalues --  -11.27234 -11.26626 -11.26366  -1.60596  -1.59716
 Alpha  occ. eigenvalues --   -1.40155  -1.39268  -1.19898  -1.19158  -1.09328
 Alpha  occ. eigenvalues --   -1.08561  -1.05264  -1.04519  -0.96190  -0.95405
 Alpha  occ. eigenvalues --   -0.86671  -0.85913  -0.83026  -0.82212  -0.78096
 Alpha  occ. eigenvalues --   -0.77267  -0.72788  -0.71920  -0.71895  -0.71043
 Alpha  occ. eigenvalues --   -0.70992  -0.70251  -0.65549  -0.65255  -0.64786
 Alpha  occ. eigenvalues --   -0.64462  -0.62603  -0.61830  -0.55770  -0.55027
 Alpha  occ. eigenvalues --   -0.53620  -0.53353  -0.52891  -0.52560  -0.49545
 Alpha  occ. eigenvalues --   -0.49522  -0.48662  -0.48652  -0.45594  -0.44683
 Alpha  occ. eigenvalues --   -0.37879  -0.37182  -0.36846  -0.36129
 Alpha virt. eigenvalues --    0.04391   0.05214   0.10766   0.11522   0.15897
 Alpha virt. eigenvalues --    0.16728   0.20971   0.21812   0.26899   0.27574
 Alpha virt. eigenvalues --    0.28065   0.28566   0.30541   0.31385   0.32013

 Mulliken charges:
               1
     1  C   -0.175543
     2  C   -0.220054
     3  C   -0.174066
     4  C    0.157216
     5  C   -0.174877
     6  C   -0.221990
     7  H    0.225726
     8  H    0.220864
     9  H    0.273569
    10  H    0.279473
    11  H    0.242905
    12  N    0.487827
    13  O   -0.458941
    14  O   -0.462483
    15  C   -0.170519
    16  C   -0.218907
    17  C   -0.171156
    18  C    0.156013
    19  C   -0.172497
    20  C   -0.219567
    21  H    0.227422
    22  H    0.224912
    23  H    0.276122
    24  H    0.277859
    25  H    0.226487
    26  N    0.488339
    27  O   -0.466939
    28  O   -0.457194
 Sum of Mulliken charges =  -0.00000

 Dipole moment (field-independent basis, Debye):
    X=              5.0068    Y=              4.9459    Z=              3.2002  Tot=              7.7311
 Quadrupole moment (field-independent basis, Debye-Ang):
   XX=           -119.4350   YY=           -103.8310   ZZ=           -104.2119
   XY=             14.5446   XZ=            -12.8304   YZ=              0.0197

 Normal termination of Gaussian 16 at Thu May  6 16:23:58 2021.
