 Gaussian 16, Revision A.03,
 Gaussian 16:  EM64L-G16RevA.03 25-Dec-2016

 -------------
 #p 6-31g* mp2
 -------------

 ------------------------------------------------------
 Input file generated by CHIRIPA (05-May-2021 14:51:12)
 ------------------------------------------------------
 Symbolic Z-matrix:
 Charge =  0 Multiplicity = 1

                         Standard orientation:
 ---------------------------------------------------------------------
 Center     Atomic      Atomic             Coordinates (Angstroms)
 Number     Number       Type             X           Y           Z
 ---------------------------------------------------------------------
      1          6           0        2.561014   -0.185885    1.025544
      2          6           0        1.778906   -1.495143    1.135696
      3          6           0        1.051456   -1.638477    2.472882
      4          1           0        3.287575   -0.129920    1.847689
      5          1           0        1.870482    0.658095    1.160665
      6          1           0        2.470473   -2.336377    0.999029
      7          1           0        1.054255   -1.548085    0.313082
      8          1           0        0.339553   -0.818785    2.613951
      9          1           0        1.763818   -1.611556    3.303795
     10          1           0        0.498822   -2.581434    2.530213
     11          6           0        3.293646   -0.028020   -0.305643
     12          6           0        4.075755    1.281238   -0.415795
     13          6           0        4.803204    1.424572   -1.752981
     14          1           0        3.984179   -0.872000   -0.440765
     15          1           0        2.567086   -0.083985   -1.127788
     16          1           0        4.800406    1.334180    0.406819
     17          1           0        3.384188    2.122472   -0.279128
     18          1           0        4.090843    1.397650   -2.583894
     19          1           0        5.515108    0.604880   -1.894050
     20          1           0        5.355839    2.367529   -1.810312
     21          6           0       -2.975819   -0.417576   -0.913078
     22          6           0       -2.278354   -1.732829   -0.564314
     23          6           0       -2.384065   -2.772169   -1.680733
     24          1           0       -4.033900   -0.617517   -1.130869
     25          1           0       -2.538043   -0.011872   -1.835656
     26          1           0       -2.716374   -2.135231    0.358090
     27          1           0       -1.221853   -1.529708   -0.347141
     28          1           0       -1.929727   -2.394877   -2.602594
     29          1           0       -3.432739   -3.003841   -1.893357
     30          1           0       -1.878711   -3.704578   -1.410373
     31          6           0       -2.878841    0.631482    0.193177
     32          6           0       -3.576307    1.946734   -0.155587
     33          6           0       -3.470597    2.986075    0.960832
     34          1           0       -3.316619    0.225777    1.115755
     35          1           0       -1.820761    0.831422    0.410969
     36          1           0       -4.632807    1.743612   -0.372760
     37          1           0       -3.138287    2.349136   -1.077990
     38          1           0       -2.421921    3.217746    1.173457
     39          1           0       -3.924934    2.608782    1.882693
     40          1           0       -3.975950    3.918482    0.690472
 ---------------------------------------------------------------------

 SCF Done:  E(RHF) =  -470.733364585     A.U. after   11 cycles
 E2 =    -0.1583095483D+01 EUMP2 =    -0.47231646006764D+03

 The electronic state is 1-A.
 Alpha  occ. eigenvalues --  -11.21638 -11.21629 -11.21604 -11.21603 -11.21446
 Alpha  occ. eigenvalues --  -11.21435 -11.21384 -11.21375 -11.21104 -11.21095
 Alpha  occ. eigenvalues --  -11.21087 -11.21052  -1.08476  -1.08443  -1.03576
 Alpha  occ. eigenvalues --   -1.03527  -0.96009  -0.95989  -0.87023  -0.87006
 Alpha  occ. eigenvalues --   -0.79674  -0.79562  -0.78316  -0.78232  -0.65217
 Alpha  occ. eigenvalues --   -0.64984  -0.61099  -0.60820  -0.59417  -0.59314
 Alpha  occ. eigenvalues --   -0.57658  -0.57559  -0.55310  -0.55266  -0.52700
 Alpha  occ. eigenvalues --   -0.52679  -0.52432  -0.52414  -0.49994  -0.49900
 Alpha  occ. eigenvalues --   -0.48044  -0.47870  -0.46891  -0.46460  -0.45977
 Alpha  occ. eigenvalues --   -0.45776  -0.45753  -0.45462  -0.43814  -0.43799
 Alpha virt. eigenvalues --    0.20297   0.23420   0.23656   0.24327   0.25937
 Alpha virt. eigenvalues --    0.26782   0.26997   0.27947   0.28043   0.29168
 Alpha virt. eigenvalues --    0.30499   0.31407   0.31601   0.31864   0.32195

 Mulliken charges:
               1
     1  C   -0.298021
     2  C   -0.306980
     3  C   -0.475742
     4  H    0.149991
     5  H    0.148893
     6  H    0.152225
     7  H    0.157764
     8  H    0.156146
     9  H    0.154973
    10  H    0.160655
    11  C   -0.298228
    12  C   -0.299642
    13  C   -0.475711
    14  H    0.149809
    15  H    0.149044
    16  H    0.152132
    17  H    0.151748
    18  H    0.155070
    19  H    0.155300
    20  H    0.160359
    21  C   -0.297696
    22  C   -0.308947
    23  C   -0.475279
    24  H    0.149929
    25  H    0.149125
    26  H    0.152408
    27  H    0.160438
    28  H    0.154851
    29  H    0.155326
    30  H    0.160454
    31  C   -0.298657
    32  C   -0.299693
    33  C   -0.475707
    34  H    0.150028
    35  H    0.148797
    36  H    0.152240
    37  H    0.151873
    38  H    0.154898
    39  H    0.155388
    40  H    0.160438
 Sum of Mulliken charges =  -0.00000

 Dipole moment (field-independent basis, Debye):
    X=             -0.0080    Y=             -0.0112    Z=              0.0085  Tot=              0.0162
 Quadrupole moment (field-independent basis, Debye-Ang):
   XX=            -83.5943   YY=            -85.2363   ZZ=            -85.8140
   XY=             -0.2138   XZ=              0.5000   YZ=             -0.7300

 Normal termination of Gaussian 16 at Wed May  5 15:17:45 2021.
