 Gaussian 16, Revision A.03,
 Gaussian 16:  EM64L-G16RevA.03 25-Dec-2016

 -------------
 #p 6-31g* mp2
 -------------

 ------------------------------------------------------
 Input file generated by CHIRIPA (05-May-2021 14:55:25)
 ------------------------------------------------------
 Symbolic Z-matrix:
 Charge =  0 Multiplicity = 1

                         Standard orientation:
 ---------------------------------------------------------------------
 Center     Atomic      Atomic             Coordinates (Angstroms)
 Number     Number       Type             X           Y           Z
 ---------------------------------------------------------------------
      1          6           0        4.209118    1.374569    0.874786
      2          6           0        4.568667    0.029640    1.010477
      3          6           0        3.747557   -0.979866    0.499378
      4          6           0        2.568739   -0.606957   -0.144530
      5          6           0        2.183136    0.724132   -0.295541
      6          6           0        3.019597    1.716918    0.223358
      7          1           0        4.852938    2.152283    1.274850
      8          1           0        5.491879   -0.239176    1.515911
      9          1           0        4.001754   -2.028916    0.590467
     10          1           0        1.256663    0.961092   -0.804377
     11          1           0        2.737834    2.760585    0.116516
     12          7           0        1.691341   -1.666825   -0.689737
     13          8           0        0.658010   -1.312112   -1.252803
     14          8           0        2.053581   -2.832195   -0.543681
     15          6           0       -4.194346    0.337921    0.199651
     16          6           0       -4.331016   -1.144388    0.549029
     17          6           0       -5.779844   -1.560104    0.805681
     18          1           0       -4.610836    0.940921    1.018109
     19          1           0       -4.802201    0.555460   -0.689497
     20          1           0       -3.721990   -1.359359    1.436436
     21          1           0       -3.913980   -1.743924   -0.270271
     22          1           0       -6.396605   -1.373983   -0.079512
     23          1           0       -6.203525   -0.987232    1.636893
     24          1           0       -5.854468   -2.623489    1.053684
     25          6           0       -2.751816    0.768708   -0.059688
     26          6           0       -2.615147    2.251019   -0.409065
     27          6           0       -1.166319    2.666735   -0.665717
     28          1           0       -2.143962    0.551170    0.829461
     29          1           0       -2.335327    0.165709   -0.878146
     30          1           0       -3.032184    2.850554    0.410235
     31          1           0       -3.224173    2.465989   -1.296472
     32          1           0       -0.742638    2.093862   -1.496929
     33          1           0       -0.549558    2.480613    0.219475
     34          1           0       -1.091695    3.730118   -0.913719
 ---------------------------------------------------------------------

 SCF Done:  E(RHF) =  -669.535620623     A.U. after   15 cycles
 E2 =    -0.2092141792D+01 EUMP2 =    -0.67162776241547D+03

 The electronic state is 1-A.
 Alpha  occ. eigenvalues --  -20.60764 -20.60758 -15.85808 -11.31109 -11.27706
 Alpha  occ. eigenvalues --  -11.27600 -11.27445 -11.26713 -11.26678 -11.21597
 Alpha  occ. eigenvalues --  -11.21491 -11.21055 -11.20976 -11.20908 -11.20622
 Alpha  occ. eigenvalues --   -1.59831  -1.39387  -1.19294  -1.08704  -1.08110
 Alpha  occ. eigenvalues --   -1.04690  -1.03336  -0.95824  -0.95538  -0.86869
 Alpha  occ. eigenvalues --   -0.86085  -0.82375  -0.79421  -0.77871  -0.77394
 Alpha  occ. eigenvalues --   -0.72030  -0.71149  -0.70413  -0.64952  -0.64744
 Alpha  occ. eigenvalues --   -0.64691  -0.62073  -0.60737  -0.59191  -0.57392
 Alpha  occ. eigenvalues --   -0.55213  -0.55107  -0.53036  -0.52883  -0.52541
 Alpha  occ. eigenvalues --   -0.52120  -0.49782  -0.48787  -0.48781  -0.47692
 Alpha  occ. eigenvalues --   -0.46392  -0.45428  -0.45290  -0.44773  -0.43533
 Alpha  occ. eigenvalues --   -0.37287  -0.36285
 Alpha virt. eigenvalues --    0.05075   0.11346   0.16538   0.20943   0.23212
 Alpha virt. eigenvalues --    0.24291   0.26191   0.26656   0.27773   0.28255
 Alpha virt. eigenvalues --    0.29601   0.30148   0.31604   0.31818   0.32278

 Mulliken charges:
               1
     1  C   -0.170412
     2  C   -0.219296
     3  C   -0.170107
     4  C    0.156562
     5  C   -0.176860
     6  C   -0.224123
     7  H    0.225314
     8  H    0.223100
     9  H    0.275247
    10  H    0.288846
    11  H    0.224714
    12  N    0.488044
    13  O   -0.462263
    14  O   -0.460339
    15  C   -0.298611
    16  C   -0.300186
    17  C   -0.475755
    18  H    0.146411
    19  H    0.148637
    20  H    0.151906
    21  H    0.159372
    22  H    0.154331
    23  H    0.152778
    24  H    0.160685
    25  C   -0.302874
    26  C   -0.297950
    27  C   -0.486524
    28  H    0.147906
    29  H    0.166700
    30  H    0.150988
    31  H    0.153648
    32  H    0.159631
    33  H    0.150919
    34  H    0.159560
 Sum of Mulliken charges =  -0.00000

 Dipole moment (field-independent basis, Debye):
    X=              3.0279    Y=              3.6307    Z=              1.8432  Tot=              5.0742
 Quadrupole moment (field-independent basis, Debye-Ang):
   XX=            -78.4431   YY=            -97.6252   ZZ=            -94.6429
   XY=              5.0513   XZ=              6.4364   YZ=             -2.6800

 Normal termination of Gaussian 16 at Thu May  6 03:13:33 2021.
