 Gaussian 16, Revision A.03,
 Gaussian 16:  EM64L-G16RevA.03 25-Dec-2016

 -------------
 #p 6-31g* mp2
 -------------

 ------------------------------------------------------
 Input file generated by CHIRIPA (05-May-2021 14:51:10)
 ------------------------------------------------------
 Symbolic Z-matrix:
 Charge =  0 Multiplicity = 1

                         Standard orientation:
 ---------------------------------------------------------------------
 Center     Atomic      Atomic             Coordinates (Angstroms)
 Number     Number       Type             X           Y           Z
 ---------------------------------------------------------------------
      1          6           0       -3.048656   -0.335667   -0.233419
      2          6           0       -3.137399   -1.741159   -0.828986
      3          6           0       -1.776941   -2.433623   -0.915253
      4          1           0       -2.364694    0.271201   -0.842394
      5          1           0       -2.603324   -0.397299    0.769216
      6          1           0       -3.583706   -1.677048   -1.829644
      7          1           0       -3.821379   -2.344696   -0.218633
      8          1           0       -1.328424   -2.526928    0.079095
      9          1           0       -1.089400   -1.855487   -1.541070
     10          1           0       -1.863607   -3.436947   -1.343844
     11          6           0       -4.400662    0.369460   -0.140656
     12          6           0       -4.311919    1.774953    0.454911
     13          6           0       -5.672377    2.467416    0.541178
     14          1           0       -4.845995    0.431092   -1.143291
     15          1           0       -5.084625   -0.237408    0.468319
     16          1           0       -3.627939    2.378489   -0.155442
     17          1           0       -3.865613    1.710841    1.455569
     18          1           0       -6.359918    1.889280    1.166995
     19          1           0       -6.120894    2.560722   -0.453170
     20          1           0       -5.585712    3.470740    0.969769
     21          6           0        3.566677   -0.644529    0.592686
     22          6           0        2.161427   -1.191861    0.340326
     23          6           0        1.860256   -2.447569    1.159037
     24          1           0        4.304534   -1.423529    0.356740
     25          1           0        3.679023   -0.421405    1.662728
     26          1           0        2.051301   -1.412587   -0.729145
     27          1           0        1.426837   -0.411404    0.576718
     28          1           0        1.942600   -2.237865    2.230412
     29          1           0        2.570611   -3.244737    0.917129
     30          1           0        0.850610   -2.821914    0.963229
     31          6           0        3.882641    0.610737   -0.218611
     32          6           0        5.287891    1.158067    0.033749
     33          6           0        5.589062    2.413776   -0.784962
     34          1           0        3.770295    0.387612   -1.288653
     35          1           0        3.144784    1.389735    0.017335
     36          1           0        6.022482    0.377611   -0.202643
     37          1           0        5.398017    1.378794    1.103220
     38          1           0        4.878707    3.210944   -0.543054
     39          1           0        5.506718    2.204072   -1.856337
     40          1           0        6.598709    2.788121   -0.589154
 ---------------------------------------------------------------------

 SCF Done:  E(RHF) =  -470.733236237     A.U. after   11 cycles
 E2 =    -0.1582575145D+01 EUMP2 =    -0.47231581138228D+03

 The electronic state is 1-A.
 Alpha  occ. eigenvalues --  -11.21612 -11.21611 -11.21581 -11.21535 -11.21413
 Alpha  occ. eigenvalues --  -11.21371 -11.21354 -11.21309 -11.21079 -11.21075
 Alpha  occ. eigenvalues --  -11.21058 -11.20976  -1.08440  -1.08390  -1.03551
 Alpha  occ. eigenvalues --   -1.03475  -0.96018  -0.95911  -0.87040  -0.86925
 Alpha  occ. eigenvalues --   -0.79606  -0.79548  -0.78259  -0.78195  -0.65072
 Alpha  occ. eigenvalues --   -0.65020  -0.60958  -0.60877  -0.59406  -0.59296
 Alpha  occ. eigenvalues --   -0.57757  -0.57400  -0.55290  -0.55220  -0.52796
 Alpha  occ. eigenvalues --   -0.52659  -0.52457  -0.52177  -0.49924  -0.49878
 Alpha  occ. eigenvalues --   -0.47937  -0.47829  -0.46633  -0.46574  -0.45811
 Alpha  occ. eigenvalues --   -0.45735  -0.45702  -0.45666  -0.43799  -0.43721
 Alpha virt. eigenvalues --    0.21807   0.23055   0.23418   0.24906   0.26256
 Alpha virt. eigenvalues --    0.26479   0.26779   0.27475   0.27815   0.29154
 Alpha virt. eigenvalues --    0.29940   0.31018   0.31519   0.31983   0.32207

 Mulliken charges:
               1
     1  C   -0.298411
     2  C   -0.299660
     3  C   -0.480772
     4  H    0.149933
     5  H    0.149402
     6  H    0.151969
     7  H    0.151927
     8  H    0.159159
     9  H    0.156871
    10  H    0.160279
    11  C   -0.298290
    12  C   -0.299671
    13  C   -0.475707
    14  H    0.149591
    15  H    0.149679
    16  H    0.151948
    17  H    0.151841
    18  H    0.155206
    19  H    0.155225
    20  H    0.160245
    21  C   -0.298382
    22  C   -0.299061
    23  C   -0.481763
    24  H    0.149550
    25  H    0.149333
    26  H    0.152228
    27  H    0.152127
    28  H    0.154249
    29  H    0.154935
    30  H    0.166417
    31  C   -0.298218
    32  C   -0.299601
    33  C   -0.475683
    34  H    0.149313
    35  H    0.149577
    36  H    0.151919
    37  H    0.151894
    38  H    0.155116
    39  H    0.155097
    40  H    0.160190
 Sum of Mulliken charges =  -0.00000

 Dipole moment (field-independent basis, Debye):
    X=             -0.0253    Y=             -0.0069    Z=             -0.0132  Tot=              0.0294
 Quadrupole moment (field-independent basis, Debye-Ang):
   XX=            -85.6970   YY=            -85.5344   ZZ=            -83.6227
   XY=              0.0893   XZ=             -0.1329   YZ=              0.5017

 Normal termination of Gaussian 16 at Thu May  6 05:25:19 2021.
