 Gaussian 16, Revision A.03,
 Gaussian 16:  EM64L-G16RevA.03 25-Dec-2016

 -------------
 #p 6-31g* mp2
 -------------

 ------------------------------------------------------
 Input file generated by CHIRIPA (05-May-2021 14:53:16)
 ------------------------------------------------------
 Symbolic Z-matrix:
 Charge =  0 Multiplicity = 1

                         Standard orientation:
 ---------------------------------------------------------------------
 Center     Atomic      Atomic             Coordinates (Angstroms)
 Number     Number       Type             X           Y           Z
 ---------------------------------------------------------------------
      1          6           0        3.825879    0.848247    0.009348
      2          6           0        2.882002    1.454895   -1.029429
      3          6           0        2.674693    2.957092   -0.833930
      4          1           0        3.424506    1.036697    1.014501
      5          1           0        4.795421    1.362823   -0.041604
      6          1           0        1.914972    0.938397   -0.977476
      7          1           0        3.285570    1.264812   -2.032233
      8          1           0        3.628131    3.490250   -0.906733
      9          1           0        2.249745    3.161980    0.154018
     10          1           0        1.996618    3.370174   -1.587215
     11          6           0        4.043097   -0.652858   -0.172936
     12          6           0        4.986974   -1.259506    0.865841
     13          6           0        5.194283   -2.761704    0.670343
     14          1           0        3.073556   -1.167435   -0.121983
     15          1           0        4.444470   -0.841308   -1.178088
     16          1           0        4.583406   -1.069423    1.868646
     17          1           0        5.954004   -0.743008    0.813889
     18          1           0        5.619231   -2.966592   -0.317605
     19          1           0        4.240845   -3.294861    0.743145
     20          1           0        5.872358   -3.174785    1.423628
     21          6           0       -2.099511    2.142521    0.766308
     22          6           0       -1.321356    1.234579    0.040609
     23          6           0       -1.850816    0.002253   -0.353843
     24          6           0       -3.168011   -0.290834   -0.004005
     25          6           0       -3.968526    0.592744    0.718323
     26          6           0       -3.418287    1.819275    1.102256
     27          1           0       -1.680142    3.097571    1.068642
     28          1           0       -0.296875    1.482936   -0.221691
     29          1           0       -1.270649   -0.719200   -0.916275
     30          1           0       -4.986598    0.316935    0.965057
     31          1           0       -4.024945    2.522451    1.665777
     32          7           0       -3.739526   -1.592375   -0.416026
     33          8           0       -4.902663   -1.826747   -0.095373
     34          8           0       -3.013521   -2.353505   -1.051819
 ---------------------------------------------------------------------

 SCF Done:  E(RHF) =  -669.535507126     A.U. after   15 cycles
 E2 =    -0.2091248948D+01 EUMP2 =    -0.67162675607415D+03

 The electronic state is 1-A.
 Alpha  occ. eigenvalues --  -20.60744 -20.60739 -15.85797 -11.31158 -11.27726
 Alpha  occ. eigenvalues --  -11.27718 -11.27461 -11.26742 -11.26697 -11.22618
 Alpha  occ. eigenvalues --  -11.22125 -11.22110 -11.21989 -11.21892 -11.21316
 Alpha  occ. eigenvalues --   -1.59820  -1.39373  -1.19328  -1.09102  -1.08722
 Alpha  occ. eigenvalues --   -1.04733  -1.04203  -0.96635  -0.95559  -0.87650
 Alpha  occ. eigenvalues --   -0.86129  -0.82395  -0.80292  -0.78861  -0.77442
 Alpha  occ. eigenvalues --   -0.72015  -0.71143  -0.70437  -0.65802  -0.64979
 Alpha  occ. eigenvalues --   -0.64721  -0.62180  -0.61502  -0.60030  -0.58227
 Alpha  occ. eigenvalues --   -0.55927  -0.55223  -0.53343  -0.53066  -0.53041
 Alpha  occ. eigenvalues --   -0.52813  -0.50586  -0.48780  -0.48771  -0.48577
 Alpha  occ. eigenvalues --   -0.47337  -0.46402  -0.46304  -0.44780  -0.44434
 Alpha  occ. eigenvalues --   -0.37309  -0.36335
 Alpha virt. eigenvalues --    0.05092   0.11313   0.16583   0.18961   0.22831
 Alpha virt. eigenvalues --    0.23700   0.25272   0.26280   0.26979   0.28631
 Alpha virt. eigenvalues --    0.28866   0.30493   0.30995   0.31080   0.32056

 Mulliken charges:
               1
     1  C   -0.298357
     2  C   -0.303938
     3  C   -0.479119
     4  H    0.149204
     5  H    0.152606
     6  H    0.143238
     7  H    0.158484
     8  H    0.161934
     9  H    0.150387
    10  H    0.160848
    11  C   -0.298904
    12  C   -0.300213
    13  C   -0.476403
    14  H    0.149476
    15  H    0.151746
    16  H    0.152323
    17  H    0.152492
    18  H    0.156119
    19  H    0.157311
    20  H    0.161640
    21  C   -0.172410
    22  C   -0.227797
    23  C   -0.173546
    24  C    0.158778
    25  C   -0.171283
    26  C   -0.218402
    27  H    0.226144
    28  H    0.236853
    29  H    0.275053
    30  H    0.275482
    31  H    0.223244
    32  N    0.488098
    33  O   -0.460601
    34  O   -0.460486
 Sum of Mulliken charges =  -0.00000

 Dipole moment (field-independent basis, Debye):
    X=              2.2397    Y=              4.5719    Z=              1.4380  Tot=              5.2902
 Quadrupole moment (field-independent basis, Debye-Ang):
   XX=           -102.4307   YY=            -98.7262   ZZ=            -94.0793
   XY=            -16.0107   XZ=             -7.4952   YZ=              0.0071

 Normal termination of Gaussian 16 at Thu May  6 01:11:01 2021.
