 Gaussian 16, Revision A.03,
 Gaussian 16:  EM64L-G16RevA.03 25-Dec-2016

 -------------
 #p 6-31g* mp2
 -------------

 ------------------------------------------------------
 Input file generated by CHIRIPA (05-May-2021 14:53:17)
 ------------------------------------------------------
 Symbolic Z-matrix:
 Charge =  0 Multiplicity = 1

                         Standard orientation:
 ---------------------------------------------------------------------
 Center     Atomic      Atomic             Coordinates (Angstroms)
 Number     Number       Type             X           Y           Z
 ---------------------------------------------------------------------
      1          6           0       -5.506316   -0.357748   -0.166424
      2          6           0       -6.310272    0.744109    0.524627
      3          6           0       -7.788046    0.732201    0.132406
      4          1           0       -5.599153   -0.242761   -1.255049
      5          1           0       -5.945072   -1.333712    0.083341
      6          1           0       -5.869293    1.717615    0.274748
      7          1           0       -6.215355    0.626600    1.611732
      8          1           0       -8.249173   -0.224825    0.397099
      9          1           0       -7.901145    0.872389   -0.947482
     10          1           0       -8.343996    1.527984    0.637885
     11          6           0       -4.027194   -0.358792    0.215577
     12          6           0       -3.223239   -1.460649   -0.475473
     13          6           0       -1.745465   -1.448741   -0.083252
     14          1           0       -3.588439    0.617172   -0.034187
     15          1           0       -3.934358   -0.473779    1.304202
     16          1           0       -3.318156   -1.343140   -1.562579
     17          1           0       -3.664218   -2.434155   -0.225595
     18          1           0       -1.632366   -1.588929    0.996635
     19          1           0       -1.284338   -0.491715   -0.347946
     20          1           0       -1.189515   -2.244524   -0.588731
     21          6           0        5.710855   -1.239200    0.313637
     22          6           0        5.879341    0.149157    0.338106
     23          6           0        4.785601    1.000448    0.154843
     24          6           0        3.531948    0.426759   -0.051378
     25          6           0        3.331920   -0.952515   -0.081094
     26          6           0        4.439924   -1.784643    0.104483
     27          1           0        6.566039   -1.893060    0.456899
     28          1           0        6.865197    0.575553    0.500337
     29          1           0        4.887658    2.078780    0.169077
     30          1           0        2.336882   -1.348086   -0.244922
     31          1           0        4.306100   -2.862491    0.084988
     32          7           0        2.366505    1.317839   -0.246616
     33          8           0        1.272410    0.787529   -0.426517
     34          8           0        2.569193    2.529706   -0.216044
 ---------------------------------------------------------------------

 SCF Done:  E(RHF) =  -669.536036308     A.U. after   15 cycles
 E2 =    -0.2090686348D+01 EUMP2 =    -0.67162672265620D+03

 The electronic state is 1-A.
 Alpha  occ. eigenvalues --  -20.60852 -20.60846 -15.85901 -11.31224 -11.27795
 Alpha  occ. eigenvalues --  -11.27779 -11.27536 -11.26804 -11.26792 -11.21083
 Alpha  occ. eigenvalues --  -11.20865 -11.20808 -11.20647 -11.20642 -11.20083
 Alpha  occ. eigenvalues --   -1.59921  -1.39476  -1.19396  -1.08801  -1.07785
 Alpha  occ. eigenvalues --   -1.04794  -1.02871  -0.95645  -0.95307  -0.86327
 Alpha  occ. eigenvalues --   -0.86194  -0.82476  -0.78946  -0.77605  -0.77503
 Alpha  occ. eigenvalues --   -0.72130  -0.71239  -0.70506  -0.65054  -0.64798
 Alpha  occ. eigenvalues --   -0.64413  -0.62139  -0.60258  -0.58712  -0.56926
 Alpha  occ. eigenvalues --   -0.55301  -0.54573  -0.53127  -0.52886  -0.52034
 Alpha  occ. eigenvalues --   -0.51719  -0.49248  -0.48879  -0.48844  -0.47245
 Alpha  occ. eigenvalues --   -0.45965  -0.45137  -0.45040  -0.44876  -0.43146
 Alpha  occ. eigenvalues --   -0.37380  -0.36396
 Alpha virt. eigenvalues --    0.05007   0.11258   0.16503   0.21257   0.23501
 Alpha virt. eigenvalues --    0.24846   0.26830   0.27304   0.27696   0.28156
 Alpha virt. eigenvalues --    0.29112   0.30727   0.31754   0.32142   0.32477

 Mulliken charges:
               1
     1  C   -0.297871
     2  C   -0.299474
     3  C   -0.475386
     4  H    0.149113
     5  H    0.147176
     6  H    0.153499
     7  H    0.151092
     8  H    0.153824
     9  H    0.154784
    10  H    0.159212
    11  C   -0.298779
    12  C   -0.298890
    13  C   -0.484066
    14  H    0.155383
    15  H    0.147997
    16  H    0.150926
    17  H    0.146722
    18  H    0.149721
    19  H    0.184056
    20  H    0.149066
    21  C   -0.170630
    22  C   -0.218682
    23  C   -0.170754
    24  C    0.157509
    25  C   -0.171332
    26  C   -0.218754
    27  H    0.225720
    28  H    0.223523
    29  H    0.275615
    30  H    0.277638
    31  H    0.223754
    32  N    0.495084
    33  O   -0.466896
    34  O   -0.459897
 Sum of Mulliken charges =  -0.00000

 Dipole moment (field-independent basis, Debye):
    X=              4.3005    Y=             -2.9968    Z=              0.6672  Tot=              5.2840
 Quadrupole moment (field-independent basis, Debye-Ang):
   XX=            -66.2910   YY=            -94.4554   ZZ=            -95.2004
   XY=             -6.9310   XZ=              2.3343   YZ=              0.3858

 Normal termination of Gaussian 16 at Thu May  6 12:15:52 2021.
