 Gaussian 16, Revision A.03,
 Gaussian 16:  EM64L-G16RevA.03 25-Dec-2016

 -------------
 #p 6-31g* mp2
 -------------

 ------------------------------------------------------
 Input file generated by CHIRIPA (05-May-2021 14:51:07)
 ------------------------------------------------------
 Symbolic Z-matrix:
 Charge =  0 Multiplicity = 1

                         Standard orientation:
 ---------------------------------------------------------------------
 Center     Atomic      Atomic             Coordinates (Angstroms)
 Number     Number       Type             X           Y           Z
 ---------------------------------------------------------------------
      1          6           0        2.842942   -0.401973   -0.202802
      2          6           0        2.963330   -1.915392   -0.020992
      3          6           0        1.659584   -2.653143   -0.327204
      4          1           0        2.043822   -0.023186    0.449021
      5          1           0        2.532691   -0.187190   -1.234794
      6          1           0        3.274602   -2.127196    1.009961
      7          1           0        3.762385   -2.290593   -0.673182
      8          1           0        1.347561   -2.471171   -1.360707
      9          1           0        0.857007   -2.306846    0.331999
     10          1           0        1.768157   -3.733642   -0.190846
     11          6           0        4.138173    0.349457    0.099615
     12          6           0        4.017785    1.862876   -0.082195
     13          6           0        5.321531    2.600627    0.224017
     14          1           0        4.448424    0.134674    1.131607
     15          1           0        4.937293   -0.029330   -0.552208
     16          1           0        3.218730    2.238076    0.569995
     17          1           0        3.706513    2.074679   -1.113148
     18          1           0        6.124108    2.254330   -0.435186
     19          1           0        5.633554    2.418655    1.257520
     20          1           0        5.212958    3.681126    0.087659
     21          6           0       -3.208091   -0.600948   -0.280457
     22          6           0       -2.667570   -1.624754    0.718362
     23          6           0       -2.105898   -2.874001    0.038875
     24          1           0       -3.991060   -1.071551   -0.890734
     25          1           0       -2.403728   -0.313290   -0.971577
     26          1           0       -3.472346   -1.909360    1.408254
     27          1           0       -1.885931   -1.151604    1.326460
     28          1           0       -1.285147   -2.609574   -0.635696
     29          1           0       -2.880577   -3.371635   -0.553437
     30          1           0       -1.724946   -3.592489    0.771345
     31          6           0       -3.773024    0.653464    0.383644
     32          6           0       -4.313545    1.677271   -0.615174
     33          6           0       -4.875217    2.926518    0.064312
     34          1           0       -4.577388    0.365806    1.074764
     35          1           0       -2.990054    1.124068    0.993921
     36          1           0       -5.095185    1.204120   -1.223273
     37          1           0       -3.508769    1.961875   -1.305067
     38          1           0       -4.100538    3.424151    0.656625
     39          1           0       -5.695968    2.662090    0.738884
     40          1           0       -5.256169    3.645005   -0.668158
 ---------------------------------------------------------------------

 SCF Done:  E(RHF) =  -470.732540198     A.U. after   11 cycles
 E2 =    -0.1582889984D+01 EUMP2 =    -0.47231543018155D+03

 The electronic state is 1-A.
 Alpha  occ. eigenvalues --  -11.21628 -11.21599 -11.21585 -11.21565 -11.21434
 Alpha  occ. eigenvalues --  -11.21378 -11.21374 -11.21317 -11.21091 -11.21059
 Alpha  occ. eigenvalues --  -11.21039 -11.20898  -1.08455  -1.08397  -1.03569
 Alpha  occ. eigenvalues --   -1.03468  -0.96057  -0.95878  -0.87110  -0.86860
 Alpha  occ. eigenvalues --   -0.79688  -0.79483  -0.78275  -0.78206  -0.65107
 Alpha  occ. eigenvalues --   -0.65015  -0.61055  -0.60814  -0.59370  -0.59294
 Alpha  occ. eigenvalues --   -0.57654  -0.57522  -0.55444  -0.55100  -0.52760
 Alpha  occ. eigenvalues --   -0.52589  -0.52498  -0.52240  -0.50040  -0.49750
 Alpha  occ. eigenvalues --   -0.48015  -0.47749  -0.46658  -0.46541  -0.45839
 Alpha  occ. eigenvalues --   -0.45745  -0.45713  -0.45623  -0.43820  -0.43722
 Alpha virt. eigenvalues --    0.21600   0.23082   0.23631   0.24957   0.26245
 Alpha virt. eigenvalues --    0.26442   0.27314   0.27534   0.27701   0.29245
 Alpha virt. eigenvalues --    0.30245   0.31214   0.31606   0.32027   0.32204

 Mulliken charges:
               1
     1  C   -0.298206
     2  C   -0.300291
     3  C   -0.478924
     4  H    0.148893
     5  H    0.149214
     6  H    0.151861
     7  H    0.151771
     8  H    0.153954
     9  H    0.161527
    10  H    0.160797
    11  C   -0.298224
    12  C   -0.299640
    13  C   -0.475719
    14  H    0.149629
    15  H    0.149828
    16  H    0.151742
    17  H    0.151874
    18  H    0.155264
    19  H    0.155245
    20  H    0.160294
    21  C   -0.298232
    22  C   -0.301008
    23  C   -0.481004
    24  H    0.149710
    25  H    0.149786
    26  H    0.151880
    27  H    0.150789
    28  H    0.163698
    29  H    0.154341
    30  H    0.159538
    31  C   -0.298187
    32  C   -0.299655
    33  C   -0.475677
    34  H    0.149455
    35  H    0.149338
    36  H    0.151920
    37  H    0.151976
    38  H    0.155101
    39  H    0.155139
    40  H    0.160202
 Sum of Mulliken charges =  -0.00000

 Dipole moment (field-independent basis, Debye):
    X=              0.0235    Y=             -0.0183    Z=             -0.0123  Tot=              0.0323
 Quadrupole moment (field-independent basis, Debye-Ang):
   XX=            -84.9214   YY=            -85.9566   ZZ=            -83.9890
   XY=              0.1802   XZ=             -0.2973   YZ=             -0.3647

 Normal termination of Gaussian 16 at Thu May  6 08:25:22 2021.
