 Gaussian 16, Revision A.03,
 Gaussian 16:  EM64L-G16RevA.03 25-Dec-2016

 -------------
 #p 6-31g* mp2
 -------------

 ------------------------------------------------------
 Input file generated by CHIRIPA (05-May-2021 14:55:21)
 ------------------------------------------------------
 Symbolic Z-matrix:
 Charge =  0 Multiplicity = 1

                         Standard orientation:
 ---------------------------------------------------------------------
 Center     Atomic      Atomic             Coordinates (Angstroms)
 Number     Number       Type             X           Y           Z
 ---------------------------------------------------------------------
      1          6           0       -1.282966    0.431990   -0.619108
      2          6           0       -1.892070   -0.826288   -0.666542
      3          6           0       -3.251343   -0.968670   -0.372177
      4          6           0       -3.974726    0.173575   -0.032643
      5          6           0       -3.396491    1.440779    0.023302
      6          6           0       -2.035794    1.559520   -0.274944
      7          1           0       -0.226497    0.533414   -0.849286
      8          1           0       -1.309881   -1.703686   -0.933513
      9          1           0       -3.748153   -1.930831   -0.401235
     10          1           0       -4.002845    2.297033    0.292712
     11          1           0       -1.565404    2.537968   -0.237303
     12          7           0       -5.414481    0.035355    0.281043
     13          8           0       -6.029832    1.057192    0.577404
     14          8           0       -5.900349   -1.092202    0.224610
     15          6           0        5.247126    0.332966   -0.057764
     16          6           0        6.708569    0.070646    0.307413
     17          6           0        7.622873    1.248737   -0.030141
     18          1           0        5.178463    0.556405   -1.131219
     19          1           0        4.899787    1.231203    0.471312
     20          1           0        7.052635   -0.827622   -0.221121
     21          1           0        6.773735   -0.152382    1.380087
     22          1           0        7.307037    2.148121    0.508335
     23          1           0        7.587521    1.469044   -1.101970
     24          1           0        8.662912    1.039770    0.239137
     25          6           0        4.320712   -0.835636    0.273680
     26          6           0        2.859268   -0.573315   -0.091498
     27          6           0        1.944964   -1.751407    0.246057
     28          1           0        4.668050   -1.733873   -0.255397
     29          1           0        4.389374   -1.059074    1.347135
     30          1           0        2.794102   -0.350287   -1.164171
     31          1           0        2.515203    0.324953    0.437037
     32          1           0        1.980316   -1.971713    1.317885
     33          1           0        2.260801   -2.650790   -0.292419
     34          1           0        0.904925   -1.542439   -0.023221
 ---------------------------------------------------------------------

 SCF Done:  E(RHF) =  -669.534860613     A.U. after   15 cycles
 E2 =    -0.2092041184D+01 EUMP2 =    -0.67162690179724D+03

 The electronic state is 1-A.
 Alpha  occ. eigenvalues --  -20.60742 -20.60737 -15.85796 -11.31162 -11.27735
 Alpha  occ. eigenvalues --  -11.27730 -11.27443 -11.26739 -11.26723 -11.22746
 Alpha  occ. eigenvalues --  -11.22243 -11.22223 -11.22181 -11.22081 -11.21564
 Alpha  occ. eigenvalues --   -1.59818  -1.39371  -1.19336  -1.09258  -1.08731
 Alpha  occ. eigenvalues --   -1.04743  -1.04374  -0.96818  -0.95562  -0.87836
 Alpha  occ. eigenvalues --   -0.86141  -0.82397  -0.80464  -0.79034  -0.77448
 Alpha  occ. eigenvalues --   -0.72016  -0.71141  -0.70464  -0.65875  -0.65003
 Alpha  occ. eigenvalues --   -0.64804  -0.62134  -0.61752  -0.60189  -0.58425
 Alpha  occ. eigenvalues --   -0.56063  -0.55208  -0.53606  -0.53274  -0.52997
 Alpha  occ. eigenvalues --   -0.52758  -0.50728  -0.48816  -0.48769  -0.48725
 Alpha  occ. eigenvalues --   -0.47482  -0.46578  -0.46473  -0.44777  -0.44619
 Alpha  occ. eigenvalues --   -0.37296  -0.36338
 Alpha virt. eigenvalues --    0.05081   0.11208   0.16552   0.19914   0.22377
 Alpha virt. eigenvalues --    0.23924   0.25813   0.25927   0.26214   0.27389
 Alpha virt. eigenvalues --    0.29241   0.29725   0.30622   0.31418   0.32021

 Mulliken charges:
               1
     1  C   -0.173863
     2  C   -0.221237
     3  C   -0.171211
     4  C    0.158128
     5  C   -0.170725
     6  C   -0.219973
     7  H    0.232486
     8  H    0.225539
     9  H    0.275715
    10  H    0.275508
    11  H    0.223532
    12  N    0.488090
    13  O   -0.460493
    14  O   -0.460406
    15  C   -0.298968
    16  C   -0.300317
    17  C   -0.476135
    18  H    0.149752
    19  H    0.149571
    20  H    0.153049
    21  H    0.153264
    22  H    0.155579
    23  H    0.155548
    24  H    0.162200
    25  C   -0.298945
    26  C   -0.302903
    27  C   -0.481804
    28  H    0.152020
    29  H    0.152756
    30  H    0.149485
    31  H    0.150304
    32  H    0.162341
    33  H    0.158740
    34  H    0.153374
 Sum of Mulliken charges =  -0.00000

 Dipole moment (field-independent basis, Debye):
    X=              5.2927    Y=              0.4641    Z=             -1.0513  Tot=              5.4160
 Quadrupole moment (field-independent basis, Debye-Ang):
   XX=           -135.3421   YY=            -90.0627   ZZ=            -94.5526
   XY=             -2.1796   XZ=              4.3460   YZ=              1.1694

 Normal termination of Gaussian 16 at Thu May  6 15:50:38 2021.
