 Gaussian 16, Revision A.03,
 Gaussian 16:  EM64L-G16RevA.03 25-Dec-2016

 -------------
 #p 6-31g* mp2
 -------------

 ------------------------------------------------------
 Input file generated by CHIRIPA (05-May-2021 14:57:25)
 ------------------------------------------------------
 Symbolic Z-matrix:
 Charge =  0 Multiplicity = 1

                         Standard orientation:
 ---------------------------------------------------------------------
 Center     Atomic      Atomic             Coordinates (Angstroms)
 Number     Number       Type             X           Y           Z
 ---------------------------------------------------------------------
      1          6           0        3.241177   -2.432430   -0.708163
      2          6           0        1.974792   -1.847364   -0.810571
      3          6           0        1.803425   -0.479794   -0.576194
      4          6           0        2.925269    0.276307   -0.239939
      5          6           0        4.199872   -0.277418   -0.130097
      6          6           0        4.347725   -1.646974   -0.368851
      7          1           0        3.365166   -3.495563   -0.891933
      8          1           0        1.113641   -2.454912   -1.073918
      9          1           0        0.834390   -0.001100   -0.648584
     10          1           0        5.039439    0.354010    0.134185
     11          1           0        5.332407   -2.098644   -0.288597
     12          7           0        2.756297    1.725144    0.010502
     13          8           0        3.760575    2.369493    0.305254
     14          8           0        1.622780    2.188960   -0.092696
     15          6           0       -4.591971    0.376165   -1.592003
     16          6           0       -3.672320    1.367704   -1.234774
     17          6           0       -2.759649    1.149449   -0.198461
     18          6           0       -2.794679   -0.077515    0.462311
     19          6           0       -3.698801   -1.085101    0.129707
     20          6           0       -4.602258   -0.844920   -0.909825
     21          1           0       -5.297377    0.554226   -2.398286
     22          1           0       -3.662040    2.316974   -1.762814
     23          1           0       -2.036967    1.899693    0.098664
     24          1           0       -3.684899   -2.021275    0.674501
     25          1           0       -5.315347   -1.616784   -1.185099
     26          7           0       -1.833352   -0.320177    1.561112
     27          8           0       -1.884604   -1.409665    2.127704
     28          8           0       -1.046815    0.583707    1.834956
 ---------------------------------------------------------------------

 SCF Done:  E(RHF) =  -868.338259100     A.U. after   16 cycles
 E2 =    -0.2600261147D+01 EUMP2 =    -0.87093852024641D+03

 The electronic state is 1-A.
 Alpha  occ. eigenvalues --  -20.60894 -20.60832 -20.60194 -20.60163 -15.85890
 Alpha  occ. eigenvalues --  -15.85234 -11.31268 -11.30572 -11.27876 -11.27722
 Alpha  occ. eigenvalues --  -11.27573 -11.27174 -11.27150 -11.26933 -11.26875
 Alpha  occ. eigenvalues --  -11.26777 -11.26197 -11.26177  -1.59948  -1.59241
 Alpha  occ. eigenvalues --   -1.39489  -1.38798  -1.19442  -1.18753  -1.08842
 Alpha  occ. eigenvalues --   -1.08159  -1.04819  -1.04170  -0.95663  -0.95000
 Alpha  occ. eigenvalues --   -0.86217  -0.85570  -0.82472  -0.81846  -0.77524
 Alpha  occ. eigenvalues --   -0.76880  -0.72092  -0.71489  -0.71295  -0.70543
 Alpha  occ. eigenvalues --   -0.70509  -0.69884  -0.65074  -0.64802  -0.64425
 Alpha  occ. eigenvalues --   -0.64195  -0.62135  -0.61529  -0.55321  -0.54697
 Alpha  occ. eigenvalues --   -0.53185  -0.52886  -0.52476  -0.52286  -0.48883
 Alpha  occ. eigenvalues --   -0.48851  -0.48220  -0.48205  -0.44886  -0.44184
 Alpha  occ. eigenvalues --   -0.37448  -0.36732  -0.36432  -0.35752
 Alpha virt. eigenvalues --    0.04952   0.05681   0.11151   0.11900   0.16438
 Alpha virt. eigenvalues --    0.17161   0.21364   0.21894   0.27170   0.27555
 Alpha virt. eigenvalues --    0.28215   0.28784   0.30812   0.31358   0.32274

 Mulliken charges:
               1
     1  C   -0.170209
     2  C   -0.216851
     3  C   -0.162930
     4  C    0.159106
     5  C   -0.170712
     6  C   -0.218751
     7  H    0.223625
     8  H    0.220950
     9  H    0.271450
    10  H    0.274159
    11  H    0.221424
    12  N    0.489682
    13  O   -0.462858
    14  O   -0.460807
    15  C   -0.171007
    16  C   -0.219275
    17  C   -0.176496
    18  C    0.151947
    19  C   -0.173387
    20  C   -0.219171
    21  H    0.226047
    22  H    0.227128
    23  H    0.289957
    24  H    0.273942
    25  H    0.222800
    26  N    0.484393
    27  O   -0.463593
    28  O   -0.450561
 Sum of Mulliken charges =  -0.00000

 Dipole moment (field-independent basis, Debye):
    X=             -2.8742    Y=             -4.0515    Z=             -4.6719  Tot=              6.8193
 Quadrupole moment (field-independent basis, Debye-Ang):
   XX=            -77.8101   YY=           -104.3396   ZZ=           -109.3172
   XY=            -15.0182   XZ=              7.7463   YZ=              1.1142

 Normal termination of Gaussian 16 at Thu May  6 21:18:02 2021.
