 Gaussian 16, Revision A.03,
 Gaussian 16:  EM64L-G16RevA.03 25-Dec-2016

 -------------
 #p 6-31g* mp2
 -------------

 ------------------------------------------------------
 Input file generated by CHIRIPA (05-May-2021 14:55:24)
 ------------------------------------------------------
 Symbolic Z-matrix:
 Charge =  0 Multiplicity = 1

                         Standard orientation:
 ---------------------------------------------------------------------
 Center     Atomic      Atomic             Coordinates (Angstroms)
 Number     Number       Type             X           Y           Z
 ---------------------------------------------------------------------
      1          6           0        2.738703    2.621240    0.119721
      2          6           0        3.861518    2.207779   -0.604750
      3          6           0        4.216384    0.856426   -0.654375
      4          6           0        3.422445   -0.058622    0.035290
      5          6           0        2.297878    0.322195    0.765782
      6          6           0        1.961836    1.678790    0.801473
      7          1           0        2.470347    3.673040    0.152858
      8          1           0        4.466686    2.937485   -1.135172
      9          1           0        5.080442    0.508875   -1.207574
     10          1           0        1.714037   -0.428542    1.284379
     11          1           0        1.089300    1.997010    1.364910
     12          7           0        3.788161   -1.492013   -0.009870
     13          8           0        3.072303   -2.278475    0.606298
     14          8           0        4.783742   -1.801903   -0.660580
     15          6           0       -3.602896   -0.067437    0.203960
     16          6           0       -2.537239   -1.048615   -0.285579
     17          6           0       -1.140727   -0.715494    0.240328
     18          1           0       -3.325835    0.949543   -0.105775
     19          1           0       -3.614230   -0.067365    1.302717
     20          1           0       -2.528868   -1.047861   -1.383097
     21          1           0       -2.816965   -2.063401    0.025191
     22          1           0       -1.126358   -0.735509    1.334857
     23          1           0       -0.836623    0.285801   -0.081433
     24          1           0       -0.394467   -1.429475   -0.121871
     25          6           0       -5.004260   -0.387267   -0.313356
     26          6           0       -6.069917    0.593911    0.176184
     27          6           0       -7.466429    0.260790   -0.349724
     28          1           0       -4.992925   -0.387339   -1.412112
     29          1           0       -5.281319   -1.404247   -0.003621
     30          1           0       -5.790190    1.608696   -0.134588
     31          1           0       -6.078287    0.593157    1.273701
     32          1           0       -7.770533   -0.740505   -0.027963
     33          1           0       -7.480797    0.280805   -1.444254
     34          1           0       -8.212688    0.974772    0.012474
 ---------------------------------------------------------------------

 SCF Done:  E(RHF) =  -669.535512258     A.U. after   15 cycles
 E2 =    -0.2091790038D+01 EUMP2 =    -0.67162730229604D+03

 The electronic state is 1-A.
 Alpha  occ. eigenvalues --  -20.60744 -20.60739 -15.85791 -11.31112 -11.27710
 Alpha  occ. eigenvalues --  -11.27650 -11.27452 -11.26712 -11.26679 -11.21843
 Alpha  occ. eigenvalues --  -11.21812 -11.21675 -11.21575 -11.21450 -11.21235
 Alpha  occ. eigenvalues --   -1.59816  -1.39370  -1.19301  -1.08705  -1.08676
 Alpha  occ. eigenvalues --   -1.04702  -1.03778  -0.96258  -0.95538  -0.87290
 Alpha  occ. eigenvalues --   -0.86095  -0.82374  -0.79867  -0.78494  -0.77408
 Alpha  occ. eigenvalues --   -0.72010  -0.71137  -0.70412  -0.65305  -0.64954
 Alpha  occ. eigenvalues --   -0.64705  -0.62054  -0.61178  -0.59589  -0.57847
 Alpha  occ. eigenvalues --   -0.55559  -0.55217  -0.53205  -0.52949  -0.52650
 Alpha  occ. eigenvalues --   -0.52606  -0.50194  -0.48768  -0.48766  -0.48167
 Alpha  occ. eigenvalues --   -0.46876  -0.46037  -0.45952  -0.44787  -0.44019
 Alpha  occ. eigenvalues --   -0.37293  -0.36255
 Alpha virt. eigenvalues --    0.05086   0.11301   0.16510   0.21005   0.22666
 Alpha virt. eigenvalues --    0.24037   0.25958   0.26372   0.27323   0.28044
 Alpha virt. eigenvalues --    0.29129   0.30012   0.31267   0.31616   0.32037

 Mulliken charges:
               1
     1  C   -0.171275
     2  C   -0.218947
     3  C   -0.170877
     4  C    0.156638
     5  C   -0.167843
     6  C   -0.220740
     7  H    0.225235
     8  H    0.223052
     9  H    0.275287
    10  H    0.280467
    11  H    0.224205
    12  N    0.488328
    13  O   -0.461236
    14  O   -0.460471
    15  C   -0.298494
    16  C   -0.300262
    17  C   -0.485344
    18  H    0.146715
    19  H    0.148659
    20  H    0.154179
    21  H    0.155872
    22  H    0.149865
    23  H    0.152485
    24  H    0.172239
    25  C   -0.298539
    26  C   -0.299648
    27  C   -0.475844
    28  H    0.150337
    29  H    0.151338
    30  H    0.150797
    31  H    0.151767
    32  H    0.156104
    33  H    0.155581
    34  H    0.160367
 Sum of Mulliken charges =  -0.00000

 Dipole moment (field-independent basis, Debye):
    X=             -1.3556    Y=              4.9753    Z=              0.1191  Tot=              5.1581
 Quadrupole moment (field-independent basis, Debye-Ang):
   XX=           -101.8254   YY=            -95.3218   ZZ=            -93.1080
   XY=             18.6552   XZ=             -2.4967   YZ=             -1.0540

 Normal termination of Gaussian 16 at Thu May  6 01:34:06 2021.
