 Gaussian 16, Revision A.03,
 Gaussian 16:  EM64L-G16RevA.03 25-Dec-2016

 -------------
 #p 6-31g* mp2
 -------------

 ------------------------------------------------------
 Input file generated by CHIRIPA (05-May-2021 14:53:12)
 ------------------------------------------------------
 Symbolic Z-matrix:
 Charge =  0 Multiplicity = 1

                         Standard orientation:
 ---------------------------------------------------------------------
 Center     Atomic      Atomic             Coordinates (Angstroms)
 Number     Number       Type             X           Y           Z
 ---------------------------------------------------------------------
      1          6           0       -1.905885    1.225455   -0.045525
      2          6           0       -1.802440    2.549742    0.711803
      3          6           0       -0.421473    3.194499    0.589270
      4          1           0       -1.141513    0.533149    0.333150
      5          1           0       -1.673580    1.398155   -1.105527
      6          1           0       -2.036221    2.374845    1.769808
      7          1           0       -2.567271    3.238910    0.331413
      8          1           0       -0.182824    3.397546   -0.459739
      9          1           0        0.351243    2.528571    0.986828
     10          1           0       -0.369711    4.139982    1.138126
     11          6           0       -3.280535    0.568725    0.067484
     12          6           0       -3.383980   -0.755563   -0.689844
     13          6           0       -4.764947   -1.400319   -0.567311
     14          1           0       -3.512839    0.396024    1.127486
     15          1           0       -4.044906    1.261030   -0.311191
     16          1           0       -2.619148   -1.444731   -0.309454
     17          1           0       -3.150198   -0.580666   -1.747849
     18          1           0       -5.537663   -0.734392   -0.964869
     19          1           0       -5.003595   -1.603366    0.481698
     20          1           0       -4.816709   -2.345802   -1.116167
     21          6           0        0.294163   -2.249250    0.975960
     22          6           0        0.257595   -1.933898   -0.386295
     23          6           0        1.212027   -1.077086   -0.942604
     24          6           0        2.193367   -0.551158   -0.103759
     25          6           0        2.256336   -0.846353    1.257191
     26          6           0        1.291657   -1.705429    1.791917
     27          1           0       -0.451242   -2.915722    1.399731
     28          1           0       -0.515916   -2.354767   -1.022371
     29          1           0        1.207133   -0.816188   -1.993950
     30          1           0        3.039582   -0.411321    1.866034
     31          1           0        1.322510   -1.948579    2.850204
     32          7           0        3.209205    0.357110   -0.681274
     33          8           0        4.063492    0.807376    0.079049
     34          8           0        3.131898    0.601546   -1.883319
 ---------------------------------------------------------------------

 SCF Done:  E(RHF) =  -669.534077451     A.U. after   15 cycles
 E2 =    -0.2095110961D+01 EUMP2 =    -0.67162918841143D+03

 The electronic state is 1-A.
 Alpha  occ. eigenvalues --  -20.60809 -20.60804 -15.85864 -11.31283 -11.27845
 Alpha  occ. eigenvalues --  -11.27789 -11.27572 -11.26882 -11.26793 -11.22287
 Alpha  occ. eigenvalues --  -11.21784 -11.21704 -11.21652 -11.21443 -11.20966
 Alpha  occ. eigenvalues --   -1.59882  -1.39435  -1.19454  -1.08869  -1.08727
 Alpha  occ. eigenvalues --   -1.04850  -1.03850  -0.96261  -0.95662  -0.87284
 Alpha  occ. eigenvalues --   -0.86251  -0.82488  -0.79977  -0.78552  -0.77516
 Alpha  occ. eigenvalues --   -0.72081  -0.71204  -0.70545  -0.65468  -0.65087
 Alpha  occ. eigenvalues --   -0.64822  -0.62217  -0.61232  -0.59671  -0.57885
 Alpha  occ. eigenvalues --   -0.55556  -0.55345  -0.53349  -0.53033  -0.52880
 Alpha  occ. eigenvalues --   -0.52613  -0.50208  -0.48855  -0.48833  -0.48244
 Alpha  occ. eigenvalues --   -0.47023  -0.46046  -0.45900  -0.44828  -0.44073
 Alpha  occ. eigenvalues --   -0.37401  -0.36354
 Alpha virt. eigenvalues --    0.04985   0.11054   0.16433   0.20624   0.22821
 Alpha virt. eigenvalues --    0.23881   0.26101   0.26145   0.27694   0.28165
 Alpha virt. eigenvalues --    0.28550   0.30287   0.31153   0.31698   0.31723

 Mulliken charges:
               1
     1  C   -0.306466
     2  C   -0.299313
     3  C   -0.476388
     4  H    0.160313
     5  H    0.147926
     6  H    0.149583
     7  H    0.151676
     8  H    0.159359
     9  H    0.154056
    10  H    0.161283
    11  C   -0.296958
    12  C   -0.302666
    13  C   -0.475344
    14  H    0.148041
    15  H    0.151590
    16  H    0.143473
    17  H    0.151284
    18  H    0.158969
    19  H    0.154897
    20  H    0.158198
    21  C   -0.172919
    22  C   -0.216989
    23  C   -0.170405
    24  C    0.160074
    25  C   -0.172775
    26  C   -0.218039
    27  H    0.226099
    28  H    0.227146
    29  H    0.276012
    30  H    0.276154
    31  H    0.223990
    32  N    0.488216
    33  O   -0.460133
    34  O   -0.459943
 Sum of Mulliken charges =  -0.00000

 Dipole moment (field-independent basis, Debye):
    X=             -3.4950    Y=             -3.1588    Z=              2.0112  Tot=              5.1223
 Quadrupole moment (field-independent basis, Debye-Ang):
   XX=           -111.1170   YY=            -91.9563   ZZ=            -90.5671
   XY=             -5.6351   XZ=              7.3518   YZ=             -0.8550

 Normal termination of Gaussian 16 at Thu May  6 11:59:55 2021.
