 Gaussian 16, Revision A.03,
 Gaussian 16:  EM64L-G16RevA.03 25-Dec-2016

 -------------
 #p 6-31g* mp2
 -------------

 ------------------------------------------------------
 Input file generated by CHIRIPA (05-May-2021 14:53:15)
 ------------------------------------------------------
 Symbolic Z-matrix:
 Charge =  0 Multiplicity = 1

                         Standard orientation:
 ---------------------------------------------------------------------
 Center     Atomic      Atomic             Coordinates (Angstroms)
 Number     Number       Type             X           Y           Z
 ---------------------------------------------------------------------
      1          6           0        4.509029    0.204122   -0.177984
      2          6           0        5.502754   -0.887629    0.220230
      3          6           0        6.937448   -0.370202    0.328483
      4          1           0        4.817074    0.638706   -1.138812
      5          1           0        4.552056    1.016508    0.560644
      6          1           0        5.456870   -1.698345   -0.518180
      7          1           0        5.192201   -1.319795    1.180128
      8          1           0        7.004983    0.423851    1.079163
      9          1           0        7.271156    0.043150   -0.628795
     10          1           0        7.631136   -1.167081    0.614212
     11          6           0        3.070533   -0.297716   -0.290305
     12          6           0        2.076807    0.794034   -0.688519
     13          6           0        0.642113    0.276608   -0.796772
     14          1           0        3.027505   -1.110102   -1.028934
     15          1           0        2.762487   -0.732300    0.670523
     16          1           0        2.387360    1.226201   -1.648417
     17          1           0        2.122691    1.604751    0.049891
     18          1           0        0.308405   -0.136744    0.160505
     19          1           0        0.574578   -0.517445   -1.547452
     20          1           0       -0.051574    1.073487   -1.082501
     21          6           0       -2.180264    2.415507    0.494941
     22          6           0       -1.923329    1.459224    1.482882
     23          6           0       -2.351102    0.138149    1.320647
     24          6           0       -3.036222   -0.193427    0.152761
     25          6           0       -3.307438    0.736562   -0.849662
     26          6           0       -2.870282    2.051765   -0.666132
     27          1           0       -1.844314    3.439468    0.629240
     28          1           0       -1.387670    1.738859    2.385611
     29          1           0       -2.165627   -0.622272    2.069497
     30          1           0       -3.843711    0.427763   -1.738747
     31          1           0       -3.071228    2.792320   -1.435055
     32          7           0       -3.494053   -1.588882   -0.030262
     33          8           0       -4.095702   -1.855637   -1.068288
     34          8           0       -3.242584   -2.389462    0.867776
 ---------------------------------------------------------------------

 SCF Done:  E(RHF) =  -669.533410105     A.U. after   15 cycles
 E2 =    -0.2094217504D+01 EUMP2 =    -0.67162762760943D+03

 The electronic state is 1-A.
 Alpha  occ. eigenvalues --  -20.60783 -20.60778 -15.85837 -11.31223 -11.27809
 Alpha  occ. eigenvalues --  -11.27772 -11.27521 -11.26814 -11.26774 -11.21730
 Alpha  occ. eigenvalues --  -11.21687 -11.21516 -11.21450 -11.21165 -11.20900
 Alpha  occ. eigenvalues --   -1.59857  -1.39410  -1.19409  -1.08797  -1.08528
 Alpha  occ. eigenvalues --   -1.04819  -1.03604  -0.96041  -0.95625  -0.87062
 Alpha  occ. eigenvalues --   -0.86209  -0.82459  -0.79684  -0.78351  -0.77501
 Alpha  occ. eigenvalues --   -0.72056  -0.71176  -0.70515  -0.65173  -0.65057
 Alpha  occ. eigenvalues --   -0.64817  -0.62160  -0.61034  -0.59476  -0.57680
 Alpha  occ. eigenvalues --   -0.55451  -0.55310  -0.53700  -0.52905  -0.52480
 Alpha  occ. eigenvalues --   -0.52051  -0.49914  -0.48817  -0.48810  -0.48009
 Alpha  occ. eigenvalues --   -0.46716  -0.45886  -0.45825  -0.44809  -0.43825
 Alpha  occ. eigenvalues --   -0.37339  -0.36322
 Alpha virt. eigenvalues --    0.05018   0.11156   0.16473   0.21307   0.22783
 Alpha virt. eigenvalues --    0.24307   0.26498   0.27219   0.27390   0.28029
 Alpha virt. eigenvalues --    0.28279   0.30915   0.31384   0.31774   0.32145

 Mulliken charges:
               1
     1  C   -0.297956
     2  C   -0.299729
     3  C   -0.475685
     4  H    0.149553
     5  H    0.147311
     6  H    0.153248
     7  H    0.151977
     8  H    0.154277
     9  H    0.155181
    10  H    0.160912
    11  C   -0.297956
    12  C   -0.299444
    13  C   -0.479204
    14  H    0.152040
    15  H    0.148744
    16  H    0.150679
    17  H    0.145131
    18  H    0.154563
    19  H    0.155444
    20  H    0.162058
    21  C   -0.171197
    22  C   -0.212374
    23  C   -0.173792
    24  C    0.164570
    25  C   -0.169924
    26  C   -0.219719
    27  H    0.225791
    28  H    0.223268
    29  H    0.275460
    30  H    0.275966
    31  H    0.223781
    32  N    0.487893
    33  O   -0.460326
    34  O   -0.460541
 Sum of Mulliken charges =  -0.00000

 Dipole moment (field-independent basis, Debye):
    X=              1.4873    Y=              4.8998    Z=              0.6536  Tot=              5.1621
 Quadrupole moment (field-independent basis, Debye-Ang):
   XX=           -105.7104   YY=            -97.0051   ZZ=            -89.8429
   XY=            -16.4061   XZ=              0.0211   YZ=             -0.3928

 Normal termination of Gaussian 16 at Thu May  6 07:28:54 2021.
