 Gaussian 16, Revision A.03,
 Gaussian 16:  EM64L-G16RevA.03 25-Dec-2016

 -------------
 #p 6-31g* mp2
 -------------

 ------------------------------------------------------
 Input file generated by CHIRIPA (05-May-2021 14:51:13)
 ------------------------------------------------------
 Symbolic Z-matrix:
 Charge =  0 Multiplicity = 1

                         Standard orientation:
 ---------------------------------------------------------------------
 Center     Atomic      Atomic             Coordinates (Angstroms)
 Number     Number       Type             X           Y           Z
 ---------------------------------------------------------------------
      1          6           0       -4.195119   -0.594454   -0.305541
      2          6           0       -5.234523   -1.484586    0.376580
      3          6           0       -5.264262   -2.902724   -0.194203
      4          1           0       -4.407173   -0.553322   -1.382707
      5          1           0       -3.202738   -1.054200   -0.199669
      6          1           0       -6.224456   -1.022603    0.270650
      7          1           0       -5.020082   -1.523450    1.452275
      8          1           0       -4.289512   -3.386634   -0.074646
      9          1           0       -5.500728   -2.882942   -1.262984
     10          1           0       -6.014260   -3.521888    0.307793
     11          6           0       -4.153385    0.826366    0.254153
     12          6           0       -3.113981    1.716498   -0.427968
     13          6           0       -3.084241    3.134636    0.142815
     14          1           0       -5.145766    1.286111    0.148282
     15          1           0       -3.941330    0.785233    1.331319
     16          1           0       -3.328421    1.755361   -1.503663
     17          1           0       -2.124048    1.254515   -0.322038
     18          1           0       -2.847775    3.114853    1.211597
     19          1           0       -4.058992    3.618545    0.023258
     20          1           0       -2.334244    3.753800   -0.359181
     21          6           0        4.845734   -0.078794   -0.336470
     22          6           0        6.011514   -0.622200    0.490362
     23          6           0        7.348130   -0.541079   -0.247657
     24          1           0        4.780367   -0.639335   -1.279054
     25          1           0        5.053104    0.965645   -0.607655
     26          1           0        5.801376   -1.664876    0.761078
     27          1           0        6.073994   -0.060427    1.431172
     28          1           0        7.584186    0.496745   -0.504172
     29          1           0        7.310019   -1.116819   -1.178072
     30          1           0        8.167676   -0.934787    0.361603
     31          6           0        3.502769   -0.153118    0.387858
     32          6           0        2.336989    0.390289   -0.438975
     33          6           0        1.000374    0.309167    0.299045
     34          1           0        3.295400   -1.197556    0.659043
     35          1           0        3.568137    0.407424    1.330442
     36          1           0        2.274509   -0.171485   -1.379784
     37          1           0        2.547128    1.432963   -0.709691
     38          1           0        1.038485    0.884908    1.229460
     39          1           0        0.764317   -0.728656    0.555559
     40          1           0        0.180828    0.702876   -0.310215
 ---------------------------------------------------------------------

 SCF Done:  E(RHF) =  -470.733339474     A.U. after   11 cycles
 E2 =    -0.1582383648D+01 EUMP2 =    -0.47231572312173D+03

 The electronic state is 1-A.
 Alpha  occ. eigenvalues --  -11.21635 -11.21616 -11.21573 -11.21541 -11.21427
 Alpha  occ. eigenvalues --  -11.21367 -11.21364 -11.21305 -11.21116 -11.21082
 Alpha  occ. eigenvalues --  -11.21051 -11.21037  -1.08454  -1.08392  -1.03560
 Alpha  occ. eigenvalues --   -1.03492  -0.96012  -0.95943  -0.87035  -0.86956
 Alpha  occ. eigenvalues --   -0.79650  -0.79534  -0.78267  -0.78204  -0.65082
 Alpha  occ. eigenvalues --   -0.65029  -0.60954  -0.60920  -0.59445  -0.59249
 Alpha  occ. eigenvalues --   -0.57650  -0.57524  -0.55297  -0.55227  -0.52758
 Alpha  occ. eigenvalues --   -0.52626  -0.52440  -0.52359  -0.49948  -0.49881
 Alpha  occ. eigenvalues --   -0.47997  -0.47825  -0.46651  -0.46583  -0.45807
 Alpha  occ. eigenvalues --   -0.45751  -0.45730  -0.45675  -0.43785  -0.43713
 Alpha virt. eigenvalues --    0.21893   0.22999   0.23712   0.24705   0.26009
 Alpha virt. eigenvalues --    0.26635   0.27117   0.27475   0.28018   0.28785
 Alpha virt. eigenvalues --    0.30210   0.31384   0.31631   0.31817   0.32058

 Mulliken charges:
               1
     1  C   -0.298627
     2  C   -0.299638
     3  C   -0.475674
     4  H    0.149384
     5  H    0.150020
     6  H    0.151839
     7  H    0.151994
     8  H    0.155117
     9  H    0.155085
    10  H    0.160148
    11  C   -0.297405
    12  C   -0.309026
    13  C   -0.475063
    14  H    0.149283
    15  H    0.149788
    16  H    0.151420
    17  H    0.160636
    18  H    0.155270
    19  H    0.155033
    20  H    0.159828
    21  C   -0.298252
    22  C   -0.299641
    23  C   -0.475717
    24  H    0.149719
    25  H    0.149600
    26  H    0.151934
    27  H    0.151961
    28  H    0.155218
    29  H    0.155213
    30  H    0.160296
    31  C   -0.298736
    32  C   -0.298909
    33  C   -0.482970
    34  H    0.149501
    35  H    0.149688
    36  H    0.152175
    37  H    0.152179
    38  H    0.155399
    39  H    0.154858
    40  H    0.167071
 Sum of Mulliken charges =  -0.00000

 Dipole moment (field-independent basis, Debye):
    X=              0.0264    Y=             -0.0013    Z=              0.0025  Tot=              0.0265
 Quadrupole moment (field-independent basis, Debye-Ang):
   XX=            -85.4518   YY=            -84.9927   ZZ=            -84.4205
   XY=             -0.1704   XZ=              0.8939   YZ=             -0.1473

 Normal termination of Gaussian 16 at Wed May  5 15:19:50 2021.
