 Gaussian 16, Revision A.03,
 Gaussian 16:  EM64L-G16RevA.03 25-Dec-2016

 -------------
 #p 6-31g* mp2
 -------------

 ------------------------------------------------------
 Input file generated by CHIRIPA (05-May-2021 14:57:23)
 ------------------------------------------------------
 Symbolic Z-matrix:
 Charge =  0 Multiplicity = 1

                         Standard orientation:
 ---------------------------------------------------------------------
 Center     Atomic      Atomic             Coordinates (Angstroms)
 Number     Number       Type             X           Y           Z
 ---------------------------------------------------------------------
      1          6           0       -4.441465    2.355847    0.496356
      2          6           0       -4.714170    1.354165    1.433792
      3          6           0       -4.294857    0.039344    1.210255
      4          6           0       -3.602022   -0.239754    0.033236
      5          6           0       -3.315105    0.736267   -0.919839
      6          6           0       -3.744032    2.044251   -0.675402
      7          1           0       -4.770931    3.374576    0.678123
      8          1           0       -5.255618    1.593255    2.344679
      9          1           0       -4.492552   -0.755519    1.919147
     10          1           0       -2.773381    0.467374   -1.818532
     11          1           0       -3.530838    2.820137   -1.405192
     12          7           0       -3.153025   -1.628077   -0.214476
     13          8           0       -2.544311   -1.848165   -1.259304
     14          8           0       -3.418317   -2.469868    0.640886
     15          6           0        1.427441   -0.595226   -1.044816
     16          6           0        2.025585   -1.426372   -0.091956
     17          6           0        3.271236   -1.100406    0.452697
     18          6           0        3.893407    0.069543    0.019787
     19          6           0        3.323145    0.918040   -0.927918
     20          6           0        2.076984    0.572269   -1.459025
     21          1           0        0.459591   -0.856136   -1.462654
     22          1           0        1.523451   -2.333688    0.231594
     23          1           0        3.756962   -1.725847    1.191827
     24          1           0        3.848046    1.815923   -1.230740
     25          1           0        1.614833    1.219635   -2.198875
     26          7           0        5.212392    0.425112    0.589217
     27          8           0        5.739967    1.461389    0.191184
     28          8           0        5.693660   -0.339203    1.422788
 ---------------------------------------------------------------------

 SCF Done:  E(RHF) =  -868.339681964     A.U. after   16 cycles
 E2 =    -0.2598653219D+01 EUMP2 =    -0.87093833518220D+03

 The electronic state is 1-A.
 Alpha  occ. eigenvalues --  -20.61899 -20.61827 -20.60477 -20.60467 -15.86883
 Alpha  occ. eigenvalues --  -15.85526 -11.32019 -11.30787 -11.28606 -11.28519
 Alpha  occ. eigenvalues --  -11.28223 -11.27530 -11.27476 -11.27394 -11.27319
 Alpha  occ. eigenvalues --  -11.26929 -11.26369 -11.26216  -1.60921  -1.59553
 Alpha  occ. eigenvalues --   -1.40484  -1.39110  -1.20163  -1.18942  -1.09593
 Alpha  occ. eigenvalues --   -1.08329  -1.05534  -1.04337  -0.96470  -0.95184
 Alpha  occ. eigenvalues --   -0.86941  -0.85723  -0.83313  -0.82028  -0.78398
 Alpha  occ. eigenvalues --   -0.77115  -0.73108  -0.72231  -0.71744  -0.71263
 Alpha  occ. eigenvalues --   -0.70877  -0.69961  -0.65817  -0.65529  -0.64581
 Alpha  occ. eigenvalues --   -0.64324  -0.62892  -0.61690  -0.56022  -0.54727
 Alpha  occ. eigenvalues --   -0.53866  -0.53621  -0.52671  -0.52413  -0.49881
 Alpha  occ. eigenvalues --   -0.49837  -0.48506  -0.48492  -0.45927  -0.44539
 Alpha  occ. eigenvalues --   -0.38112  -0.37127  -0.36884  -0.35958
 Alpha virt. eigenvalues --    0.04084   0.05424   0.10520   0.11704   0.15612
 Alpha virt. eigenvalues --    0.16952   0.20452   0.21973   0.26281   0.27154
 Alpha virt. eigenvalues --    0.27785   0.28834   0.30442   0.31166   0.32793

 Mulliken charges:
               1
     1  C   -0.169561
     2  C   -0.217964
     3  C   -0.170107
     4  C    0.158653
     5  C   -0.172171
     6  C   -0.217723
     7  H    0.228805
     8  H    0.226653
     9  H    0.277273
    10  H    0.270408
    11  H    0.224641
    12  N    0.488662
    13  O   -0.469313
    14  O   -0.454782
    15  C   -0.178925
    16  C   -0.221149
    17  C   -0.171609
    18  C    0.157582
    19  C   -0.171660
    20  C   -0.219731
    21  H    0.240642
    22  H    0.230762
    23  H    0.274965
    24  H    0.272941
    25  H    0.218022
    26  N    0.488187
    27  O   -0.462540
    28  O   -0.460962
 Sum of Mulliken charges =  -0.00000

 Dipole moment (field-independent basis, Debye):
    X=             -6.6347    Y=              3.5991    Z=             -0.9782  Tot=              7.6111
 Quadrupole moment (field-independent basis, Debye-Ang):
   XX=           -129.9484   YY=           -103.9435   ZZ=           -100.2216
   XY=            -22.5108   XZ=            -13.7369   YZ=             -4.3217

 Normal termination of Gaussian 16 at Fri May  7 06:25:56 2021.
