 Gaussian 16, Revision A.03,
 Gaussian 16:  EM64L-G16RevA.03 25-Dec-2016

 -------------
 #p 6-31g* mp2
 -------------

 ------------------------------------------------------
 Input file generated by CHIRIPA (05-May-2021 14:57:25)
 ------------------------------------------------------
 Symbolic Z-matrix:
 Charge =  0 Multiplicity = 1

                         Standard orientation:
 ---------------------------------------------------------------------
 Center     Atomic      Atomic             Coordinates (Angstroms)
 Number     Number       Type             X           Y           Z
 ---------------------------------------------------------------------
      1          6           0       -1.564652    1.320956   -0.823786
      2          6           0       -2.799761    1.933796   -1.059275
      3          6           0       -3.991408    1.272591   -0.747292
      4          6           0       -3.910643   -0.006343   -0.198571
      5          6           0       -2.695460   -0.643454    0.047824
      6          6           0       -1.516528    0.036552   -0.271961
      7          1           0       -0.643891    1.841898   -1.069172
      8          1           0       -2.840170    2.931212   -1.487729
      9          1           0       -4.961164    1.723628   -0.919213
     10          1           0       -2.687161   -1.638458    0.475977
     11          1           0       -0.558750   -0.441841   -0.087988
     12          7           0       -5.165455   -0.716283    0.135841
     13          8           0       -5.067299   -1.842409    0.618380
     14          8           0       -6.223374   -0.133165   -0.090918
     15          6           0        5.184611   -0.768135   -1.680469
     16          6           0        5.326022    0.490524   -1.086917
     17          6           0        4.511017    0.865484   -0.014667
     18          6           0        3.560679   -0.047101    0.440673
     19          6           0        3.395603   -1.308346   -0.129678
     20          6           0        4.221551   -1.661977   -1.200800
     21          1           0        5.821977   -1.051128   -2.512981
     22          1           0        6.073098    1.186730   -1.457347
     23          1           0        4.599152    1.833530    0.463386
     24          1           0        2.641931   -1.980892    0.261576
     25          1           0        4.109493   -2.640135   -1.659817
     26          7           0        2.692076    0.338562    1.575219
     27          8           0        1.862382   -0.483552    1.957807
     28          8           0        2.857409    1.455655    2.060405
 ---------------------------------------------------------------------

 SCF Done:  E(RHF) =  -868.338805403     A.U. after   16 cycles
 E2 =    -0.2599018838D+01 EUMP2 =    -0.87093782424186D+03

 The electronic state is 1-A.
 Alpha  occ. eigenvalues --  -20.61794 -20.61758 -20.60314 -20.60307 -15.86801
 Alpha  occ. eigenvalues --  -15.85362 -11.32058 -11.30642 -11.28614 -11.28578
 Alpha  occ. eigenvalues --  -11.28275 -11.27567 -11.27552 -11.27215 -11.27153
 Alpha  occ. eigenvalues --  -11.26923 -11.26237 -11.26110  -1.60842  -1.59389
 Alpha  occ. eigenvalues --   -1.40399  -1.38945  -1.20207  -1.18797  -1.09615
 Alpha  occ. eigenvalues --   -1.08212  -1.05583  -1.04179  -0.96468  -0.95066
 Alpha  occ. eigenvalues --   -0.86984  -0.85586  -0.83297  -0.81893  -0.78374
 Alpha  occ. eigenvalues --   -0.76951  -0.73008  -0.72171  -0.71584  -0.71290
 Alpha  occ. eigenvalues --   -0.70709  -0.69924  -0.65850  -0.65565  -0.64451
 Alpha  occ. eigenvalues --   -0.64173  -0.62928  -0.61527  -0.56060  -0.54706
 Alpha  occ. eigenvalues --   -0.53928  -0.53659  -0.52518  -0.52270  -0.49783
 Alpha  occ. eigenvalues --   -0.49755  -0.48343  -0.48335  -0.45805  -0.44370
 Alpha  occ. eigenvalues --   -0.38173  -0.37186  -0.36777  -0.35770
 Alpha virt. eigenvalues --    0.04110   0.05570   0.10434   0.11880   0.15624
 Alpha virt. eigenvalues --    0.17092   0.20551   0.21925   0.26240   0.27063
 Alpha virt. eigenvalues --    0.28195   0.28792   0.30140   0.31017   0.32423

 Mulliken charges:
               1
     1  C   -0.170261
     2  C   -0.218361
     3  C   -0.172049
     4  C    0.158383
     5  C   -0.171543
     6  C   -0.216917
     7  H    0.223315
     8  H    0.221232
     9  H    0.273732
    10  H    0.275367
    11  H    0.228682
    12  N    0.488150
    13  O   -0.461047
    14  O   -0.462124
    15  C   -0.170347
    16  C   -0.218331
    17  C   -0.171855
    18  C    0.156123
    19  C   -0.174728
    20  C   -0.217909
    21  H    0.228689
    22  H    0.226073
    23  H    0.276798
    24  H    0.274400
    25  H    0.226450
    26  N    0.486826
    27  O   -0.463010
    28  O   -0.455738
 Sum of Mulliken charges =  -0.00000

 Dipole moment (field-independent basis, Debye):
    X=              7.8597    Y=              1.1346    Z=             -5.1624  Tot=              9.4717
 Quadrupole moment (field-independent basis, Debye-Ang):
   XX=           -115.7175   YY=            -98.0390   ZZ=           -108.7111
   XY=            -14.8624   XZ=             -8.6821   YZ=             -1.9375

 Normal termination of Gaussian 16 at Thu May  6 13:04:42 2021.
