 Gaussian 16, Revision A.03,
 Gaussian 16:  EM64L-G16RevA.03 25-Dec-2016

 -------------
 #p 6-31g* mp2
 -------------

 ------------------------------------------------------
 Input file generated by CHIRIPA (05-May-2021 14:51:11)
 ------------------------------------------------------
 Symbolic Z-matrix:
 Charge =  0 Multiplicity = 1

                         Standard orientation:
 ---------------------------------------------------------------------
 Center     Atomic      Atomic             Coordinates (Angstroms)
 Number     Number       Type             X           Y           Z
 ---------------------------------------------------------------------
      1          6           0        2.985366   -0.852555    0.544275
      2          6           0        1.585380   -0.238061    0.523728
      3          6           0        0.563921   -1.068248    1.301677
      4          1           0        2.939763   -1.867071    0.125201
      5          1           0        3.315994   -0.959538    1.586692
      6          1           0        1.258054   -0.130990   -0.518390
      7          1           0        1.634356    0.775182    0.942722
      8          1           0        0.864037   -1.164529    2.350133
      9          1           0        0.485597   -2.075850    0.880719
     10          1           0       -0.429964   -0.610774    1.273924
     11          6           0        4.017631   -0.034079   -0.229194
     12          6           0        5.417617   -0.648573   -0.208647
     13          6           0        6.439076    0.181614   -0.986595
     14          1           0        3.687003    0.072904   -1.271611
     15          1           0        4.063235    0.980437    0.189880
     16          1           0        5.368641   -1.661816   -0.627641
     17          1           0        5.744943   -0.755644    0.833471
     18          1           0        6.517400    1.189216   -0.565638
     19          1           0        6.138960    0.277895   -2.035052
     20          1           0        7.432961   -0.275860   -0.958843
     21          6           0       -3.098731    0.909806    0.293678
     22          6           0       -2.048624    1.725846   -0.460865
     23          6           0       -1.251023    2.654340    0.455391
     24          1           0       -3.784511    1.595022    0.810523
     25          1           0       -2.601410    0.317596    1.074289
     26          1           0       -2.547613    2.315289   -1.240727
     27          1           0       -1.365378    1.038609   -0.976131
     28          1           0       -0.727360    2.078847    1.225577
     29          1           0       -1.916312    3.362781    0.959477
     30          1           0       -0.506046    3.228137   -0.104634
     31          6           0       -3.904266   -0.023172   -0.608759
     32          6           0       -4.954373   -0.839212    0.145785
     33          6           0       -5.751974   -1.767706   -0.770472
     34          1           0       -4.401587    0.569039   -1.389371
     35          1           0       -3.218486   -0.708389   -1.125605
     36          1           0       -5.637619   -0.151976    0.661049
     37          1           0       -4.455385   -1.428655    0.925645
     38          1           0       -5.086685   -2.476147   -1.274558
     39          1           0       -6.275636   -1.192214   -1.540658
     40          1           0       -6.496951   -2.341503   -0.210447
 ---------------------------------------------------------------------

 SCF Done:  E(RHF) =  -470.732775769     A.U. after   11 cycles
 E2 =    -0.1584004302D+01 EUMP2 =    -0.47231678007013D+03

 The electronic state is 1-A.
 Alpha  occ. eigenvalues --  -11.21624 -11.21611 -11.21591 -11.21584 -11.21422
 Alpha  occ. eigenvalues --  -11.21403 -11.21362 -11.21343 -11.21110 -11.21078
 Alpha  occ. eigenvalues --  -11.21062 -11.21030  -1.08473  -1.08408  -1.03606
 Alpha  occ. eigenvalues --   -1.03471  -0.96023  -0.95955  -0.87044  -0.86970
 Alpha  occ. eigenvalues --   -0.79621  -0.79580  -0.78271  -0.78236  -0.65125
 Alpha  occ. eigenvalues --   -0.65081  -0.61061  -0.60953  -0.59367  -0.59249
 Alpha  occ. eigenvalues --   -0.57580  -0.57571  -0.55343  -0.55207  -0.52726
 Alpha  occ. eigenvalues --   -0.52660  -0.52429  -0.52387  -0.49980  -0.49897
 Alpha  occ. eigenvalues --   -0.47937  -0.47888  -0.46796  -0.46480  -0.45841
 Alpha  occ. eigenvalues --   -0.45769  -0.45747  -0.45612  -0.43776  -0.43763
 Alpha virt. eigenvalues --    0.20101   0.23077   0.23658   0.25429   0.25832
 Alpha virt. eigenvalues --    0.26227   0.26680   0.27520   0.28070   0.29108
 Alpha virt. eigenvalues --    0.30560   0.31116   0.31345   0.31746   0.32005

 Mulliken charges:
               1
     1  C   -0.298572
     2  C   -0.301285
     3  C   -0.485625
     4  H    0.149533
     5  H    0.149609
     6  H    0.152611
     7  H    0.154516
     8  H    0.155503
     9  H    0.155231
    10  H    0.168289
    11  C   -0.298295
    12  C   -0.299648
    13  C   -0.475723
    14  H    0.149490
    15  H    0.149879
    16  H    0.151921
    17  H    0.151966
    18  H    0.155247
    19  H    0.155187
    20  H    0.160286
    21  C   -0.303641
    22  C   -0.302557
    23  C   -0.478212
    24  H    0.150223
    25  H    0.152907
    26  H    0.152306
    27  H    0.154668
    28  H    0.158811
    29  H    0.154590
    30  H    0.160290
    31  C   -0.298173
    32  C   -0.299773
    33  C   -0.475713
    34  H    0.149606
    35  H    0.149778
    36  H    0.151914
    37  H    0.152285
    38  H    0.155197
    39  H    0.155101
    40  H    0.160274
 Sum of Mulliken charges =  -0.00000

 Dipole moment (field-independent basis, Debye):
    X=              0.0099    Y=              0.0066    Z=              0.0003  Tot=              0.0120
 Quadrupole moment (field-independent basis, Debye-Ang):
   XX=            -85.4393   YY=            -84.7500   ZZ=            -84.5886
   XY=             -1.2455   XZ=              0.3938   YZ=              0.2276

 Normal termination of Gaussian 16 at Thu May  6 02:16:39 2021.
