 Gaussian 16, Revision A.03,
 Gaussian 16:  EM64L-G16RevA.03 25-Dec-2016

 -------------
 #p 6-31g* mp2
 -------------

 ------------------------------------------------------
 Input file generated by CHIRIPA (05-May-2021 14:57:26)
 ------------------------------------------------------
 Symbolic Z-matrix:
 Charge =  0 Multiplicity = 1

                         Standard orientation:
 ---------------------------------------------------------------------
 Center     Atomic      Atomic             Coordinates (Angstroms)
 Number     Number       Type             X           Y           Z
 ---------------------------------------------------------------------
      1          6           0        4.060628   -2.376714    0.773600
      2          6           0        3.015509   -1.619540    1.312985
      3          6           0        2.775781   -0.317930    0.862550
      4          6           0        3.604378    0.197427   -0.133002
      5          6           0        4.653597   -0.531958   -0.690161
      6          6           0        4.874901   -1.831468   -0.224492
      7          1           0        4.239698   -3.387020    1.129426
      8          1           0        2.381533   -2.040406    2.088220
      9          1           0        1.973693    0.290313    1.262691
     10          1           0        5.268700   -0.085241   -1.461855
     11          1           0        5.687288   -2.417186   -0.645212
     12          7           0        3.360341    1.574271   -0.617921
     13          8           0        4.104584    2.005357   -1.495932
     14          8           0        2.429443    2.196284   -0.110807
     15          6           0       -2.139957    1.781920    1.068453
     16          6           0       -1.631197    0.516020    0.759935
     17          6           0       -2.455718   -0.462699    0.197067
     18          6           0       -3.790062   -0.139924   -0.045081
     19          6           0       -4.326485    1.112170    0.251227
     20          6           0       -3.483608    2.075437    0.813564
     21          1           0       -1.492319    2.536211    1.505496
     22          1           0       -0.588104    0.285265    0.956795
     23          1           0       -2.087914   -1.450792   -0.051550
     24          1           0       -5.370552    1.312634    0.043484
     25          1           0       -3.881449    3.057704    1.052138
     26          7           0       -4.672662   -1.167871   -0.640683
     27          8           0       -5.844623   -0.858545   -0.844303
     28          8           0       -4.175770   -2.263437   -0.892618
 ---------------------------------------------------------------------

 SCF Done:  E(RHF) =  -868.337885837     A.U. after   16 cycles
 E2 =    -0.2599351043D+01 EUMP2 =    -0.87093723687997D+03

 The electronic state is 1-A.
 Alpha  occ. eigenvalues --  -20.61536 -20.61494 -20.60685 -20.60675 -15.86570
 Alpha  occ. eigenvalues --  -15.85737 -11.31925 -11.31042 -11.28584 -11.28409
 Alpha  occ. eigenvalues --  -11.28141 -11.27656 -11.27602 -11.27510 -11.27413
 Alpha  occ. eigenvalues --  -11.27283 -11.26663 -11.26561  -1.60584  -1.59759
 Alpha  occ. eigenvalues --   -1.40144  -1.39315  -1.20073  -1.19212  -1.09453
 Alpha  occ. eigenvalues --   -1.08598  -1.05484  -1.04624  -0.96304  -0.95444
 Alpha  occ. eigenvalues --   -0.86875  -0.86015  -0.83145  -0.82295  -0.78217
 Alpha  occ. eigenvalues --   -0.77365  -0.72792  -0.71956  -0.71900  -0.71177
 Alpha  occ. eigenvalues --   -0.71082  -0.70275  -0.65725  -0.65496  -0.64863
 Alpha  occ. eigenvalues --   -0.64644  -0.62860  -0.61966  -0.55940  -0.55057
 Alpha  occ. eigenvalues --   -0.53791  -0.53590  -0.52931  -0.52700  -0.49560
 Alpha  occ. eigenvalues --   -0.49528  -0.48715  -0.48708  -0.45550  -0.44735
 Alpha  occ. eigenvalues --   -0.38011  -0.37147  -0.37081  -0.36229
 Alpha virt. eigenvalues --    0.04310   0.05196   0.10522   0.11439   0.15851
 Alpha virt. eigenvalues --    0.16711   0.18995   0.21996   0.24938   0.27199
 Alpha virt. eigenvalues --    0.28395   0.29048   0.30362   0.30994   0.32133

 Mulliken charges:
               1
     1  C   -0.170044
     2  C   -0.218921
     3  C   -0.177641
     4  C    0.160884
     5  C   -0.169882
     6  C   -0.217421
     7  H    0.229044
     8  H    0.224050
     9  H    0.270426
    10  H    0.277953
    11  H    0.226805
    12  N    0.488506
    13  O   -0.455715
    14  O   -0.466607
    15  C   -0.169524
    16  C   -0.217574
    17  C   -0.172697
    18  C    0.158480
    19  C   -0.170690
    20  C   -0.218954
    21  H    0.232202
    22  H    0.218838
    23  H    0.273033
    24  H    0.275386
    25  H    0.224479
    26  N    0.488246
    27  O   -0.460374
    28  O   -0.462288
 Sum of Mulliken charges =  -0.00000

 Dipole moment (field-independent basis, Debye):
    X=              4.2295    Y=             -1.2065    Z=              3.7373  Tot=              5.7717
 Quadrupole moment (field-independent basis, Debye-Ang):
   XX=           -115.6934   YY=           -106.1841   ZZ=           -104.7446
   XY=            -35.7654   XZ=             -5.2808   YZ=              0.8911

 Normal termination of Gaussian 16 at Thu May  6 00:23:58 2021.
