 Gaussian 16, Revision A.03,
 Gaussian 16:  EM64L-G16RevA.03 25-Dec-2016

 -------------
 #p 6-31g* mp2
 -------------

 ------------------------------------------------------
 Input file generated by CHIRIPA (05-May-2021 14:51:09)
 ------------------------------------------------------
 Symbolic Z-matrix:
 Charge =  0 Multiplicity = 1

                         Standard orientation:
 ---------------------------------------------------------------------
 Center     Atomic      Atomic             Coordinates (Angstroms)
 Number     Number       Type             X           Y           Z
 ---------------------------------------------------------------------
      1          6           0       -3.004616   -0.648665   -0.218428
      2          6           0       -2.422825   -1.348349   -1.447227
      3          6           0       -2.175395   -2.839455   -1.216630
      4          1           0       -2.319250   -0.781185    0.629898
      5          1           0       -3.947334   -1.138679    0.061865
      6          1           0       -1.482187   -0.856283   -1.725949
      7          1           0       -3.109564   -1.213985   -2.292775
      8          1           0       -3.109486   -3.349889   -0.960639
      9          1           0       -1.472862   -2.990155   -0.390593
     10          1           0       -1.759427   -3.319896   -2.107701
     11          6           0       -3.257502    0.842498   -0.433397
     12          6           0       -3.839293    1.542182    0.795402
     13          6           0       -4.086724    3.033288    0.564806
     14          1           0       -2.314784    1.332512   -0.713689
     15          1           0       -3.942869    0.975018   -1.281722
     16          1           0       -3.152554    1.407818    1.640951
     17          1           0       -4.779931    1.050116    1.074125
     18          1           0       -4.789257    3.183988   -0.261232
     19          1           0       -3.152632    3.543722    0.308815
     20          1           0       -4.502691    3.513729    1.455877
     21          6           0        3.587093    0.515818    0.330622
     22          6           0        4.263787    0.778412   -1.015154
     23          6           0        5.172895    2.007508   -0.989858
     24          1           0        3.002440    1.400232    0.618612
     25          1           0        4.358760    0.386451    1.102107
     26          1           0        3.491097    0.905871   -1.784127
     27          1           0        4.846743   -0.106802   -1.300066
     28          1           0        5.964470    1.885883   -0.243388
     29          1           0        4.601122    2.904310   -0.730199
     30          1           0        5.646401    2.176704   -1.961981
     31          6           0        2.675026   -0.709651    0.321203
     32          6           0        1.998330   -0.972246    1.666979
     33          6           0        1.089223   -2.201341    1.641682
     34          1           0        1.903359   -0.580284   -0.450282
     35          1           0        3.259678   -1.594065    0.033213
     36          1           0        1.415375   -0.087031    1.951891
     37          1           0        2.771022   -1.099704    2.435952
     38          1           0        1.660997   -3.098143    1.382024
     39          1           0        0.297647   -2.079715    0.895213
     40          1           0        0.615717   -2.370536    2.613807
 ---------------------------------------------------------------------

 SCF Done:  E(RHF) =  -470.733273901     A.U. after   11 cycles
 E2 =    -0.1582910111D+01 EUMP2 =    -0.47231618401171D+03

 The electronic state is 1-A.
 Alpha  occ. eigenvalues --  -11.21664 -11.21633 -11.21627 -11.21622 -11.21453
 Alpha  occ. eigenvalues --  -11.21427 -11.21392 -11.21367 -11.21129 -11.21096
 Alpha  occ. eigenvalues --  -11.21091 -11.21038  -1.08481  -1.08449  -1.03590
 Alpha  occ. eigenvalues --   -1.03535  -0.96042  -0.95979  -0.87064  -0.86990
 Alpha  occ. eigenvalues --   -0.79670  -0.79580  -0.78294  -0.78258  -0.65193
 Alpha  occ. eigenvalues --   -0.65016  -0.61133  -0.60812  -0.59392  -0.59360
 Alpha  occ. eigenvalues --   -0.57681  -0.57565  -0.55436  -0.55177  -0.52722
 Alpha  occ. eigenvalues --   -0.52682  -0.52526  -0.52346  -0.50092  -0.49830
 Alpha  occ. eigenvalues --   -0.48049  -0.47837  -0.46766  -0.46534  -0.45887
 Alpha  occ. eigenvalues --   -0.45794  -0.45736  -0.45636  -0.43831  -0.43800
 Alpha virt. eigenvalues --    0.20165   0.23230   0.23653   0.24889   0.26100
 Alpha virt. eigenvalues --    0.26310   0.27043   0.27911   0.28049   0.28939
 Alpha virt. eigenvalues --    0.30538   0.31514   0.31649   0.31771   0.31881

 Mulliken charges:
               1
     1  C   -0.300652
     2  C   -0.299773
     3  C   -0.481601
     4  H    0.151322
     5  H    0.149927
     6  H    0.150965
     7  H    0.152317
     8  H    0.155385
     9  H    0.161183
    10  H    0.160387
    11  C   -0.298081
    12  C   -0.299682
    13  C   -0.475692
    14  H    0.148953
    15  H    0.149814
    16  H    0.151926
    17  H    0.152111
    18  H    0.155261
    19  H    0.154994
    20  H    0.160358
    21  C   -0.298336
    22  C   -0.299694
    23  C   -0.475733
    24  H    0.149505
    25  H    0.149745
    26  H    0.151904
    27  H    0.152104
    28  H    0.155258
    29  H    0.155175
    30  H    0.160403
    31  C   -0.298542
    32  C   -0.299362
    33  C   -0.483853
    34  H    0.149222
    35  H    0.150067
    36  H    0.151498
    37  H    0.152361
    38  H    0.155932
    39  H    0.162251
    40  H    0.160672
 Sum of Mulliken charges =  -0.00000

 Dipole moment (field-independent basis, Debye):
    X=              0.0104    Y=             -0.0148    Z=              0.0101  Tot=              0.0207
 Quadrupole moment (field-independent basis, Debye-Ang):
   XX=            -83.6788   YY=            -86.2886   ZZ=            -84.6447
   XY=             -0.6267   XZ=              0.6244   YZ=              0.0139

 Normal termination of Gaussian 16 at Thu May  6 03:45:07 2021.
