 Gaussian 16, Revision A.03,
 Gaussian 16:  EM64L-G16RevA.03 25-Dec-2016

 -------------
 #p 6-31g* mp2
 -------------

 ------------------------------------------------------
 Input file generated by CHIRIPA (05-May-2021 14:53:12)
 ------------------------------------------------------
 Symbolic Z-matrix:
 Charge =  0 Multiplicity = 1

                         Standard orientation:
 ---------------------------------------------------------------------
 Center     Atomic      Atomic             Coordinates (Angstroms)
 Number     Number       Type             X           Y           Z
 ---------------------------------------------------------------------
      1          6           0       -4.887750    0.008682   -0.575616
      2          6           0       -5.422043   -1.316364   -0.030850
      3          6           0       -6.508402   -1.925193   -0.917949
      4          1           0       -5.720246    0.718262   -0.677551
      5          1           0       -4.489011   -0.152696   -1.586734
      6          1           0       -5.818399   -1.152817    0.979482
      7          1           0       -4.588147   -2.022810    0.069981
      8          1           0       -6.121630   -2.116802   -1.924078
      9          1           0       -7.358872   -1.241866   -1.009409
     10          1           0       -6.876145   -2.871820   -0.509877
     11          6           0       -3.801063    0.629689    0.300277
     12          6           0       -3.266770    1.954735   -0.244489
     13          6           0       -2.180411    2.563564    0.642611
     14          1           0       -4.199802    0.791067    1.311395
     15          1           0       -2.968567   -0.079891    0.402213
     16          1           0       -4.100666    2.661181   -0.345319
     17          1           0       -2.870414    1.791188   -1.254821
     18          1           0       -1.329941    1.880237    0.734071
     19          1           0       -2.567183    2.755173    1.648739
     20          1           0       -1.812669    3.510191    0.234538
     21          6           0        5.545388    0.046532   -1.177043
     22          6           0        5.258809   -1.177677   -0.564094
     23          6           0        4.069868   -1.352946    0.150225
     24          6           0        3.186086   -0.277970    0.231744
     25          6           0        3.443159    0.953921   -0.367964
     26          6           0        4.638248    1.106555   -1.077197
     27          1           0        6.471374    0.173893   -1.729968
     28          1           0        5.961454   -2.002648   -0.639974
     29          1           0        3.822902   -2.289938    0.634444
     30          1           0        2.723213    1.757923   -0.274821
     31          1           0        4.858178    2.058418   -1.552205
     32          7           0        1.924154   -0.451538    0.985269
     33          8           0        1.162015    0.511026    1.042313
     34          8           0        1.721084   -1.546857    1.504572
 ---------------------------------------------------------------------

 SCF Done:  E(RHF) =  -669.536205202     A.U. after   15 cycles
 E2 =    -0.2090689369D+01 EUMP2 =    -0.67162689457093D+03

 The electronic state is 1-A.
 Alpha  occ. eigenvalues --  -20.60962 -20.60954 -15.86002 -11.31305 -11.27867
 Alpha  occ. eigenvalues --  -11.27862 -11.27603 -11.26872 -11.26862 -11.20899
 Alpha  occ. eigenvalues --  -11.20609 -11.20603 -11.20512 -11.20357 -11.19726
 Alpha  occ. eigenvalues --   -1.60025  -1.39581  -1.19473  -1.08880  -1.07551
 Alpha  occ. eigenvalues --   -1.04867  -1.02638  -0.95726  -0.95073  -0.86268
 Alpha  occ. eigenvalues --   -0.86087  -0.82559  -0.78720  -0.77614  -0.77339
 Alpha  occ. eigenvalues --   -0.72228  -0.71340  -0.70581  -0.65130  -0.64869
 Alpha  occ. eigenvalues --   -0.64183  -0.62213  -0.60030  -0.58481  -0.56686
 Alpha  occ. eigenvalues --   -0.55372  -0.54341  -0.53200  -0.52958  -0.51795
 Alpha  occ. eigenvalues --   -0.51482  -0.49104  -0.48980  -0.48857  -0.47016
 Alpha  occ. eigenvalues --   -0.45753  -0.45015  -0.44882  -0.44757  -0.42905
 Alpha  occ. eigenvalues --   -0.37452  -0.36468
 Alpha virt. eigenvalues --    0.04908   0.11188   0.16399   0.21301   0.23719
 Alpha virt. eigenvalues --    0.25222   0.27236   0.27506   0.28035   0.28429
 Alpha virt. eigenvalues --    0.29028   0.30867   0.32124   0.32471   0.32668

 Mulliken charges:
               1
     1  C   -0.297572
     2  C   -0.299449
     3  C   -0.475191
     4  H    0.146819
     5  H    0.147208
     6  H    0.151528
     7  H    0.154048
     8  H    0.153737
     9  H    0.153627
    10  H    0.158787
    11  C   -0.299650
    12  C   -0.297829
    13  C   -0.487544
    14  H    0.148428
    15  H    0.158769
    16  H    0.146506
    17  H    0.147570
    18  H    0.184321
    19  H    0.151806
    20  H    0.150783
    21  C   -0.170565
    22  C   -0.218616
    23  C   -0.170557
    24  C    0.157321
    25  C   -0.170748
    26  C   -0.218568
    27  H    0.226041
    28  H    0.223833
    29  H    0.275844
    30  H    0.276190
    31  H    0.223961
    32  N    0.494558
    33  O   -0.466413
    34  O   -0.458983
 Sum of Mulliken charges =  -0.00000

 Dipole moment (field-independent basis, Debye):
    X=              4.7667    Y=              0.5005    Z=             -2.5755  Tot=              5.4411
 Quadrupole moment (field-independent basis, Debye-Ang):
   XX=            -67.8342   YY=            -91.3430   ZZ=            -96.6525
   XY=             -1.1702   XZ=             -8.4803   YZ=             -0.3530

 Normal termination of Gaussian 16 at Thu May  6 05:42:22 2021.
