 Gaussian 16, Revision A.03,
 Gaussian 16:  EM64L-G16RevA.03 25-Dec-2016

 -------------
 #p 6-31g* mp2
 -------------

 ------------------------------------------------------
 Input file generated by CHIRIPA (05-May-2021 14:53:11)
 ------------------------------------------------------
 Symbolic Z-matrix:
 Charge =  0 Multiplicity = 1

                         Standard orientation:
 ---------------------------------------------------------------------
 Center     Atomic      Atomic             Coordinates (Angstroms)
 Number     Number       Type             X           Y           Z
 ---------------------------------------------------------------------
      1          6           0        2.939259   -0.944794   -0.453869
      2          6           0        1.849003   -1.417376    0.508416
      3          6           0        0.710211   -2.149587   -0.202087
      4          1           0        2.491691   -0.284406   -1.209193
      5          1           0        3.341392   -1.812008   -0.995741
      6          1           0        1.450007   -0.549706    1.049311
      7          1           0        2.299253   -2.076563    1.261651
      8          1           0        1.088469   -3.032413   -0.727578
      9          1           0        0.234398   -1.496880   -0.941124
     10          1           0       -0.058089   -2.478652    0.504518
     11          6           0        4.084595   -0.211047    0.241507
     12          6           0        5.174852    0.261535   -0.720778
     13          6           0        6.313644    0.993746   -0.010275
     14          1           0        3.682463    0.656167    0.783379
     15          1           0        4.532164   -0.871435    0.996831
     16          1           0        4.724602    0.920722   -1.474012
     17          1           0        5.573848   -0.606135   -1.261673
     18          1           0        6.789456    0.341039    0.728763
     19          1           0        5.935385    1.876571    0.515216
     20          1           0        7.081944    1.322811   -0.716880
     21          6           0       -1.381834    2.555417    0.374158
     22          6           0       -2.476959    2.545263   -0.495967
     23          6           0       -3.238654    1.385197   -0.665141
     24          6           0       -2.875352    0.248102    0.054801
     25          6           0       -1.789851    0.226722    0.929170
     26          6           0       -1.042374    1.398155    1.082700
     27          1           0       -0.795653    3.460999    0.499500
     28          1           0       -2.742910    3.442536   -1.047525
     29          1           0       -4.091405    1.349545   -1.332196
     30          1           0       -1.549190   -0.683232    1.465343
     31          1           0       -0.192402    1.403128    1.759138
     32          7           0       -3.674199   -0.986024   -0.116015
     33          8           0       -3.333488   -1.974714    0.529777
     34          8           0       -4.625919   -0.941275   -0.892457
 ---------------------------------------------------------------------

 SCF Done:  E(RHF) =  -669.534987215     A.U. after   15 cycles
 E2 =    -0.2093124931D+01 EUMP2 =    -0.67162811214597D+03

 The electronic state is 1-A.
 Alpha  occ. eigenvalues --  -20.60792 -20.60783 -15.85836 -11.31193 -11.27785
 Alpha  occ. eigenvalues --  -11.27761 -11.27531 -11.26788 -11.26774 -11.21995
 Alpha  occ. eigenvalues --  -11.21955 -11.21795 -11.21705 -11.21416 -11.21126
 Alpha  occ. eigenvalues --   -1.59857  -1.39412  -1.19385  -1.08794  -1.08774
 Alpha  occ. eigenvalues --   -1.04798  -1.03844  -0.96278  -0.95605  -0.87286
 Alpha  occ. eigenvalues --   -0.86177  -0.82448  -0.79918  -0.78620  -0.77493
 Alpha  occ. eigenvalues --   -0.72058  -0.71177  -0.70502  -0.65448  -0.65031
 Alpha  occ. eigenvalues --   -0.64797  -0.62241  -0.61199  -0.59617  -0.57887
 Alpha  occ. eigenvalues --   -0.55595  -0.55271  -0.53121  -0.53042  -0.52824
 Alpha  occ. eigenvalues --   -0.52592  -0.50192  -0.48814  -0.48813  -0.48222
 Alpha  occ. eigenvalues --   -0.46970  -0.46150  -0.46086  -0.44824  -0.44077
 Alpha  occ. eigenvalues --   -0.37362  -0.36348
 Alpha virt. eigenvalues --    0.05018   0.11228   0.16397   0.20159   0.22754
 Alpha virt. eigenvalues --    0.23968   0.25308   0.26465   0.26779   0.28338
 Alpha virt. eigenvalues --    0.28868   0.29718   0.31269   0.31525   0.32173

 Mulliken charges:
               1
     1  C   -0.298201
     2  C   -0.301755
     3  C   -0.481583
     4  H    0.150130
     5  H    0.152636
     6  H    0.140214
     7  H    0.153732
     8  H    0.159078
     9  H    0.156766
    10  H    0.167568
    11  C   -0.297279
    12  C   -0.299826
    13  C   -0.475642
    14  H    0.143712
    15  H    0.150956
    16  H    0.151410
    17  H    0.153910
    18  H    0.156143
    19  H    0.153304
    20  H    0.161349
    21  C   -0.171200
    22  C   -0.219036
    23  C   -0.170732
    24  C    0.156131
    25  C   -0.165590
    26  C   -0.221009
    27  H    0.225617
    28  H    0.223437
    29  H    0.275704
    30  H    0.278368
    31  H    0.224285
    32  N    0.488707
    33  O   -0.461108
    34  O   -0.460199
 Sum of Mulliken charges =  -0.00000

 Dipole moment (field-independent basis, Debye):
    X=              2.8072    Y=              4.2541    Z=              0.5275  Tot=              5.1240
 Quadrupole moment (field-independent basis, Debye-Ang):
   XX=           -110.0984   YY=            -91.2224   ZZ=            -93.2404
   XY=            -14.5691   XZ=              0.2300   YZ=             -1.6733

 Normal termination of Gaussian 16 at Thu May  6 02:28:45 2021.
