 Gaussian 16, Revision A.03,
 Gaussian 16:  EM64L-G16RevA.03 25-Dec-2016

 -------------
 #p 6-31g* mp2
 -------------

 ------------------------------------------------------
 Input file generated by CHIRIPA (05-May-2021 14:57:26)
 ------------------------------------------------------
 Symbolic Z-matrix:
 Charge =  0 Multiplicity = 1

                         Standard orientation:
 ---------------------------------------------------------------------
 Center     Atomic      Atomic             Coordinates (Angstroms)
 Number     Number       Type             X           Y           Z
 ---------------------------------------------------------------------
      1          6           0        3.471055   -2.407219    0.227846
      2          6           0        4.489510   -1.707509    0.883343
      3          6           0        4.565070   -0.314368    0.793918
      4          6           0        3.601280    0.350121    0.037048
      5          6           0        2.574518   -0.318718   -0.627560
      6          6           0        2.518489   -1.711817   -0.524188
      7          1           0        3.419945   -3.489428    0.302730
      8          1           0        5.230647   -2.244945    1.468085
      9          1           0        5.342892    0.252295    1.291217
     10          1           0        1.850067    0.244661   -1.203053
     11          1           0        1.726430   -2.252604   -1.034321
     12          7           0        3.670934    1.824955   -0.065004
     13          8           0        2.809717    2.387039   -0.738061
     14          8           0        4.585426    2.390920    0.529996
     15          6           0       -5.632481    1.176683    0.684648
     16          6           0       -4.538598    1.855866    0.138158
     17          6           0       -3.401554    1.154828   -0.274427
     18          6           0       -3.392321   -0.231158   -0.125265
     19          6           0       -4.466330   -0.936373    0.415535
     20          6           0       -5.592926   -0.214816    0.821352
     21          1           0       -6.511705    1.729236    1.002525
     22          1           0       -4.566525    2.936486    0.030794
     23          1           0       -2.540718    1.655456   -0.700748
     24          1           0       -4.409083   -2.013977    0.509930
     25          1           0       -6.440984   -0.744917    1.245421
     26          7           0       -2.194115   -0.984177   -0.558467
     27          8           0       -2.210809   -2.204903   -0.416391
     28          8           0       -1.260956   -0.339409   -1.031885
 ---------------------------------------------------------------------

 SCF Done:  E(RHF) =  -868.340929488     A.U. after   16 cycles
 E2 =    -0.2598326675D+01 EUMP2 =    -0.87093925616376D+03

 The electronic state is 1-A.
 Alpha  occ. eigenvalues --  -20.61446 -20.61436 -20.59951 -20.59942 -15.86460
 Alpha  occ. eigenvalues --  -15.84990 -11.31504 -11.30090 -11.28060 -11.27999
 Alpha  occ. eigenvalues --  -11.27736 -11.27006 -11.26956 -11.26723 -11.26454
 Alpha  occ. eigenvalues --  -11.26361 -11.25721 -11.25410  -1.60501  -1.59030
 Alpha  occ. eigenvalues --   -1.40061  -1.38588  -1.19651  -1.18245  -1.09111
 Alpha  occ. eigenvalues --   -1.07706  -1.05003  -1.03572  -0.95998  -0.94575
 Alpha  occ. eigenvalues --   -0.86418  -0.85001  -0.82841  -0.81391  -0.77914
 Alpha  occ. eigenvalues --   -0.76459  -0.72709  -0.71788  -0.71219  -0.70757
 Alpha  occ. eigenvalues --   -0.70349  -0.69360  -0.65309  -0.65005  -0.63886
 Alpha  occ. eigenvalues --   -0.63555  -0.62348  -0.60891  -0.55527  -0.54140
 Alpha  occ. eigenvalues --   -0.53354  -0.53089  -0.51973  -0.51633  -0.49462
 Alpha  occ. eigenvalues --   -0.49442  -0.47980  -0.47951  -0.45529  -0.44051
 Alpha  occ. eigenvalues --   -0.37620  -0.36591  -0.36265  -0.35167
 Alpha virt. eigenvalues --    0.04590   0.06019   0.11067   0.12463   0.16145
 Alpha virt. eigenvalues --    0.17560   0.21220   0.22651   0.27182   0.27973
 Alpha virt. eigenvalues --    0.28737   0.29426   0.30857   0.32154   0.32353

 Mulliken charges:
               1
     1  C   -0.172167
     2  C   -0.219629
     3  C   -0.173203
     4  C    0.156229
     5  C   -0.171916
     6  C   -0.220842
     7  H    0.223236
     8  H    0.218718
     9  H    0.271086
    10  H    0.286831
    11  H    0.238261
    12  N    0.488066
    13  O   -0.462001
    14  O   -0.465040
    15  C   -0.169764
    16  C   -0.218796
    17  C   -0.170233
    18  C    0.157193
    19  C   -0.170615
    20  C   -0.218801
    21  H    0.227214
    22  H    0.226688
    23  H    0.279724
    24  H    0.274725
    25  H    0.224123
    26  N    0.491858
    27  O   -0.462750
    28  O   -0.468195
 Sum of Mulliken charges =  -0.00000

 Dipole moment (field-independent basis, Debye):
    X=             -4.9864    Y=             -2.5477    Z=              1.7770  Tot=              5.8747
 Quadrupole moment (field-independent basis, Debye-Ang):
   XX=            -75.4016   YY=           -106.8771   ZZ=           -104.5042
   XY=            -25.4809   XZ=             -2.0029   YZ=             -2.0296

 Normal termination of Gaussian 16 at Fri May  7 09:40:58 2021.
