 Gaussian 16, Revision A.03,
 Gaussian 16:  EM64L-G16RevA.03 25-Dec-2016

 -------------
 #p 6-31g* mp2
 -------------

 ------------------------------------------------------
 Input file generated by CHIRIPA (05-May-2021 14:51:12)
 ------------------------------------------------------
 Symbolic Z-matrix:
 Charge =  0 Multiplicity = 1

                         Standard orientation:
 ---------------------------------------------------------------------
 Center     Atomic      Atomic             Coordinates (Angstroms)
 Number     Number       Type             X           Y           Z
 ---------------------------------------------------------------------
      1          6           0       -3.023720   -0.112810   -0.251825
      2          6           0       -4.517876   -0.192651   -0.566640
      3          6           0       -5.037980    1.052721   -1.285204
      4          1           0       -2.832591    0.775349    0.365904
      5          1           0       -2.466137    0.031421   -1.187610
      6          1           0       -5.072370   -0.338074    0.369311
      7          1           0       -4.705499   -1.080828   -1.183532
      8          1           0       -4.510755    1.198700   -2.233531
      9          1           0       -4.879710    1.945675   -0.671865
     10          1           0       -6.108185    0.974394   -1.500582
     11          6           0       -2.488976   -1.350461    0.466504
     12          6           0       -0.994821   -1.270619    0.781320
     13          6           0       -0.474717   -2.515992    1.499883
     14          1           0       -3.046560   -1.494691    1.402289
     15          1           0       -2.680106   -2.238619   -0.151225
     16          1           0       -0.807198   -0.382442    1.398211
     17          1           0       -0.440327   -1.125196   -0.154632
     18          1           0       -0.632987   -3.408945    0.886544
     19          1           0       -1.001942   -2.661971    2.448210
     20          1           0        0.595488   -2.437664    1.715261
     21          6           0        3.377028    0.292501   -0.034199
     22          6           0        3.590095   -0.657435   -1.213269
     23          6           0        4.835752   -1.529346   -1.052322
     24          1           0        4.262705    0.932903    0.077183
     25          1           0        3.297595   -0.294786    0.891101
     26          1           0        3.667719   -0.068621   -2.136247
     27          1           0        2.703729   -1.295521   -1.321976
     28          1           0        4.763272   -2.141422   -0.147495
     29          1           0        5.732740   -0.907551   -0.966392
     30          1           0        4.968912   -2.200761   -1.906330
     31          6           0        2.135669    1.170769   -0.180480
     32          6           0        1.922602    2.120706    0.998590
     33          6           0        0.676945    2.992617    0.837642
     34          1           0        2.215102    1.758056   -1.105780
     35          1           0        1.249991    0.530367   -0.291862
     36          1           0        2.808968    2.758792    1.107297
     37          1           0        1.844978    1.531891    1.921568
     38          1           0       -0.220044    2.370822    0.751714
     39          1           0        0.749425    3.604693   -0.067185
     40          1           0        0.543785    3.664032    1.691650
 ---------------------------------------------------------------------

 SCF Done:  E(RHF) =  -470.733040876     A.U. after   11 cycles
 E2 =    -0.1584065201D+01 EUMP2 =    -0.47231710607704D+03

 The electronic state is 1-A.
 Alpha  occ. eigenvalues --  -11.21719 -11.21645 -11.21586 -11.21543 -11.21482
 Alpha  occ. eigenvalues --  -11.21421 -11.21339 -11.21224 -11.21183 -11.21090
 Alpha  occ. eigenvalues --  -11.21057 -11.21019  -1.08521  -1.08365  -1.03614
 Alpha  occ. eigenvalues --   -1.03484  -0.96053  -0.95930  -0.87071  -0.86948
 Alpha  occ. eigenvalues --   -0.79714  -0.79541  -0.78412  -0.78099  -0.65148
 Alpha  occ. eigenvalues --   -0.65017  -0.61032  -0.60872  -0.59426  -0.59292
 Alpha  occ. eigenvalues --   -0.57688  -0.57526  -0.55336  -0.55216  -0.52749
 Alpha  occ. eigenvalues --   -0.52636  -0.52488  -0.52351  -0.50002  -0.49884
 Alpha  occ. eigenvalues --   -0.48107  -0.47834  -0.46767  -0.46612  -0.46146
 Alpha  occ. eigenvalues --   -0.45781  -0.45688  -0.45180  -0.43852  -0.43731
 Alpha virt. eigenvalues --    0.20019   0.22381   0.23372   0.24654   0.25301
 Alpha virt. eigenvalues --    0.25859   0.26519   0.27864   0.28902   0.29372
 Alpha virt. eigenvalues --    0.30907   0.31346   0.31786   0.31877   0.32120

 Mulliken charges:
               1
     1  C   -0.300581
     2  C   -0.299683
     3  C   -0.475825
     4  H    0.151147
     5  H    0.149984
     6  H    0.152073
     7  H    0.152143
     8  H    0.155418
     9  H    0.155560
    10  H    0.160367
    11  C   -0.297464
    12  C   -0.307264
    13  C   -0.475998
    14  H    0.149843
    15  H    0.150008
    16  H    0.154961
    17  H    0.155623
    18  H    0.155712
    19  H    0.155845
    20  H    0.160136
    21  C   -0.297871
    22  C   -0.300187
    23  C   -0.475573
    24  H    0.149426
    25  H    0.148901
    26  H    0.151890
    27  H    0.151558
    28  H    0.155094
    29  H    0.155252
    30  H    0.160092
    31  C   -0.307157
    32  C   -0.298938
    33  C   -0.479544
    34  H    0.148501
    35  H    0.160609
    36  H    0.151638
    37  H    0.151225
    38  H    0.158250
    39  H    0.155227
    40  H    0.159602
 Sum of Mulliken charges =  -0.00000

 Dipole moment (field-independent basis, Debye):
    X=             -0.0661    Y=             -0.0343    Z=             -0.0063  Tot=              0.0747
 Quadrupole moment (field-independent basis, Debye-Ang):
   XX=            -85.4802   YY=            -85.3247   ZZ=            -84.0190
   XY=              1.3362   XZ=             -0.7155   YZ=              0.4254

 Normal termination of Gaussian 16 at Wed May  5 21:33:34 2021.
