 Gaussian 16, Revision A.03,
 Gaussian 16:  EM64L-G16RevA.03 25-Dec-2016

 -------------
 #p 6-31g* mp2
 -------------

 ------------------------------------------------------
 Input file generated by CHIRIPA (05-May-2021 14:53:17)
 ------------------------------------------------------
 Symbolic Z-matrix:
 Charge =  0 Multiplicity = 1

                         Standard orientation:
 ---------------------------------------------------------------------
 Center     Atomic      Atomic             Coordinates (Angstroms)
 Number     Number       Type             X           Y           Z
 ---------------------------------------------------------------------
      1          6           0       -4.051028   -0.278739   -0.420128
      2          6           0       -5.464270    0.298117   -0.509408
      3          6           0       -6.098454    0.098274   -1.886241
      4          1           0       -3.420803    0.191390   -1.187421
      5          1           0       -4.084584   -1.351144   -0.657228
      6          1           0       -5.428262    1.368824   -0.270858
      7          1           0       -6.091155   -0.173302    0.258312
      8          1           0       -6.163589   -0.967199   -2.129397
      9          1           0       -5.496929    0.583688   -2.661574
     10          1           0       -7.108341    0.518105   -1.927843
     11          6           0       -3.403772   -0.086732    0.950244
     12          6           0       -1.990531   -0.663588    1.039525
     13          6           0       -1.356346   -0.463745    2.416357
     14          1           0       -3.370217    0.985673    1.187345
     15          1           0       -4.033998   -0.556861    1.717538
     16          1           0       -1.363645   -0.192169    0.271804
     17          1           0       -2.026539   -1.734295    0.800975
     18          1           0       -1.957871   -0.949159    3.191690
     19          1           0       -1.291211    0.601729    2.659513
     20          1           0       -0.346460   -0.883576    2.457960
     21          6           0        2.215501    2.542742    0.140580
     22          6           0        3.481231    2.249214   -0.377389
     23          6           0        3.877795    0.923110   -0.574198
     24          6           0        2.979370   -0.089259   -0.240687
     25          6           0        1.711571    0.171092    0.277188
     26          6           0        1.336261    1.504575    0.465642
     27          1           0        1.915697    3.575758    0.290220
     28          1           0        4.166133    3.053436   -0.630729
     29          1           0        4.851750    0.667549   -0.973596
     30          1           0        1.050672   -0.652019    0.520331
     31          1           0        0.352658    1.729564    0.868071
     32          7           0        3.387944   -1.497052   -0.444617
     33          8           0        2.577985   -2.370863   -0.142859
     34          8           0        4.510406   -1.700011   -0.902353
 ---------------------------------------------------------------------

 SCF Done:  E(RHF) =  -669.534511395     A.U. after   15 cycles
 E2 =    -0.2093042767D+01 EUMP2 =    -0.67162755416154D+03

 The electronic state is 1-A.
 Alpha  occ. eigenvalues --  -20.60729 -20.60724 -15.85780 -11.31120 -11.27707
 Alpha  occ. eigenvalues --  -11.27635 -11.27447 -11.26724 -11.26676 -11.22378
 Alpha  occ. eigenvalues --  -11.22011 -11.21963 -11.21939 -11.21803 -11.21341
 Alpha  occ. eigenvalues --   -1.59804  -1.39358  -1.19303  -1.09003  -1.08702
 Alpha  occ. eigenvalues --   -1.04734  -1.04101  -0.96567  -0.95537  -0.87567
 Alpha  occ. eigenvalues --   -0.86105  -0.82378  -0.80191  -0.78780  -0.77425
 Alpha  occ. eigenvalues --   -0.72002  -0.71126  -0.70440  -0.65691  -0.64950
 Alpha  occ. eigenvalues --   -0.64727  -0.62378  -0.61296  -0.59845  -0.58130
 Alpha  occ. eigenvalues --   -0.55846  -0.55174  -0.53295  -0.53096  -0.53009
 Alpha  occ. eigenvalues --   -0.52627  -0.50489  -0.48757  -0.48754  -0.48492
 Alpha  occ. eigenvalues --   -0.47229  -0.46313  -0.46221  -0.44768  -0.44348
 Alpha  occ. eigenvalues --   -0.37291  -0.36281
 Alpha virt. eigenvalues --    0.05074   0.11322   0.16507   0.19600   0.22705
 Alpha virt. eigenvalues --    0.23886   0.25645   0.26190   0.26983   0.27856
 Alpha virt. eigenvalues --    0.29043   0.30377   0.31318   0.31513   0.32764

 Mulliken charges:
               1
     1  C   -0.299082
     2  C   -0.300039
     3  C   -0.476055
     4  H    0.149653
     5  H    0.153225
     6  H    0.150792
     7  H    0.153104
     8  H    0.156972
     9  H    0.155396
    10  H    0.161137
    11  C   -0.297542
    12  C   -0.310519
    13  C   -0.484130
    14  H    0.145952
    15  H    0.153253
    16  H    0.146995
    17  H    0.162821
    18  H    0.164259
    19  H    0.149633
    20  H    0.163759
    21  C   -0.171308
    22  C   -0.218772
    23  C   -0.170633
    24  C    0.159226
    25  C   -0.178645
    26  C   -0.223132
    27  H    0.225333
    28  H    0.223206
    29  H    0.275359
    30  H    0.284914
    31  H    0.228154
    32  N    0.488090
    33  O   -0.460797
    34  O   -0.460579
 Sum of Mulliken charges =  -0.00000

 Dipole moment (field-independent basis, Debye):
    X=             -1.6227    Y=              4.8456    Z=              0.7385  Tot=              5.1632
 Quadrupole moment (field-independent basis, Debye-Ang):
   XX=            -99.1798   YY=            -94.8318   ZZ=            -95.8998
   XY=             17.2547   XZ=             -0.0025   YZ=             -2.3931

 Normal termination of Gaussian 16 at Thu May  6 12:16:41 2021.
