 Gaussian 16, Revision A.03,
 Gaussian 16:  EM64L-G16RevA.03 25-Dec-2016

 -------------
 #p 6-31g* mp2
 -------------

 ------------------------------------------------------
 Input file generated by CHIRIPA (05-May-2021 14:55:23)
 ------------------------------------------------------
 Symbolic Z-matrix:
 Charge =  0 Multiplicity = 1

                         Standard orientation:
 ---------------------------------------------------------------------
 Center     Atomic      Atomic             Coordinates (Angstroms)
 Number     Number       Type             X           Y           Z
 ---------------------------------------------------------------------
      1          6           0       -3.345516   -2.307667   -0.262914
      2          6           0       -2.160005   -1.575825   -0.387379
      3          6           0       -2.172208   -0.181591   -0.284862
      4          6           0       -3.393157    0.451215   -0.056541
      5          6           0       -4.591069   -0.250053    0.071986
      6          6           0       -4.555132   -1.643616   -0.034032
      7          1           0       -3.326818   -3.390480   -0.343912
      8          1           0       -1.219142   -2.088871   -0.565158
      9          1           0       -1.269211    0.409580   -0.377230
     10          1           0       -5.513590    0.289449    0.248932
     11          1           0       -5.477365   -2.209395    0.063047
     12          7           0       -3.418639    1.926873    0.053843
     13          8           0       -4.507279    2.460676    0.255223
     14          8           0       -2.349489    2.521749   -0.063110
     15          6           0        4.942152    0.100717    0.384800
     16          6           0        5.949238    0.541757   -0.677861
     17          6           0        7.152592    1.274532   -0.083914
     18          1           0        4.597699    0.982227    0.942689
     19          1           0        5.447595   -0.550901    1.110965
     20          1           0        5.441716    1.191234   -1.402579
     21          1           0        6.291190   -0.340881   -1.233410
     22          1           0        7.684408    0.630959    0.624315
     23          1           0        6.830108    2.171780    0.454185
     24          1           0        7.859768    1.580813   -0.861059
     25          6           0        3.733578   -0.633221   -0.193482
     26          6           0        2.726493   -1.074260    0.869180
     27          6           0        1.523138   -1.807035    0.275233
     28          1           0        3.228136    0.018398   -0.919647
     29          1           0        4.078032   -1.514729   -0.751369
     30          1           0        2.384541   -0.191623    1.424730
     31          1           0        3.234014   -1.723738    1.593898
     32          1           0        1.845622   -2.704283   -0.262866
     33          1           0        0.991322   -1.163463   -0.432996
     34          1           0        0.815963   -2.113315    1.052379
 ---------------------------------------------------------------------

 SCF Done:  E(RHF) =  -669.535000209     A.U. after   15 cycles
 E2 =    -0.2091631719D+01 EUMP2 =    -0.67162663192815D+03

 The electronic state is 1-A.
 Alpha  occ. eigenvalues --  -20.60716 -20.60711 -15.85766 -11.31104 -11.27665
 Alpha  occ. eigenvalues --  -11.27643 -11.27381 -11.26683 -11.26563 -11.22228
 Alpha  occ. eigenvalues --  -11.22124 -11.21816 -11.21781 -11.21632 -11.21181
 Alpha  occ. eigenvalues --   -1.59791  -1.39346  -1.19263  -1.08832  -1.08663
 Alpha  occ. eigenvalues --   -1.04667  -1.03991  -0.96488  -0.95507  -0.87537
 Alpha  occ. eigenvalues --   -0.86051  -0.82344  -0.80085  -0.78595  -0.77383
 Alpha  occ. eigenvalues --   -0.71986  -0.71113  -0.70382  -0.65466  -0.64912
 Alpha  occ. eigenvalues --   -0.64670  -0.62126  -0.61313  -0.59859  -0.58052
 Alpha  occ. eigenvalues --   -0.55784  -0.55153  -0.53360  -0.53007  -0.52888
 Alpha  occ. eigenvalues --   -0.52559  -0.50411  -0.48743  -0.48740  -0.48376
 Alpha  occ. eigenvalues --   -0.47069  -0.46150  -0.46035  -0.44758  -0.44217
 Alpha  occ. eigenvalues --   -0.37246  -0.36251
 Alpha virt. eigenvalues --    0.05129   0.11368   0.16599   0.20526   0.22531
 Alpha virt. eigenvalues --    0.23791   0.25678   0.26340   0.27218   0.27875
 Alpha virt. eigenvalues --    0.29029   0.29972   0.31054   0.31245   0.32158

 Mulliken charges:
               1
     1  C   -0.172379
     2  C   -0.223935
     3  C   -0.175341
     4  C    0.159103
     5  C   -0.171408
     6  C   -0.218459
     7  H    0.225429
     8  H    0.236143
     9  H    0.275259
    10  H    0.275148
    11  H    0.222917
    12  N    0.488384
    13  O   -0.460682
    14  O   -0.461128
    15  C   -0.299181
    16  C   -0.300157
    17  C   -0.476098
    18  H    0.152535
    19  H    0.149790
    20  H    0.153462
    21  H    0.151463
    22  H    0.155060
    23  H    0.156741
    24  H    0.161109
    25  C   -0.299365
    26  C   -0.300373
    27  C   -0.485010
    28  H    0.151043
    29  H    0.149413
    30  H    0.157320
    31  H    0.154748
    32  H    0.157354
    33  H    0.148742
    34  H    0.162354
 Sum of Mulliken charges =  -0.00000

 Dipole moment (field-independent basis, Debye):
    X=              0.3101    Y=             -5.1962    Z=             -0.3403  Tot=              5.2166
 Quadrupole moment (field-independent basis, Debye-Ang):
   XX=            -90.5614   YY=            -99.6116   ZZ=            -95.5383
   XY=             17.1924   XZ=              0.3938   YZ=             -0.1609

 Normal termination of Gaussian 16 at Thu May  6 03:06:26 2021.
