 Gaussian 16, Revision A.03,
 Gaussian 16:  EM64L-G16RevA.03 25-Dec-2016

 -------------
 #p 6-31g* mp2
 -------------

 ------------------------------------------------------
 Input file generated by CHIRIPA (05-May-2021 14:57:26)
 ------------------------------------------------------
 Symbolic Z-matrix:
 Charge =  0 Multiplicity = 1

                         Standard orientation:
 ---------------------------------------------------------------------
 Center     Atomic      Atomic             Coordinates (Angstroms)
 Number     Number       Type             X           Y           Z
 ---------------------------------------------------------------------
      1          6           0       -5.890779    0.226536   -0.370593
      2          6           0       -5.081989   -0.590947   -1.166898
      3          6           0       -3.720913   -0.736273   -0.882466
      4          6           0       -3.199371   -0.046424    0.210874
      5          6           0       -3.979276    0.775417    1.023041
      6          6           0       -5.337816    0.905911    0.719912
      7          1           0       -6.947111    0.333668   -0.598809
      8          1           0       -5.508709   -1.119758   -2.014432
      9          1           0       -3.071910   -1.362644   -1.482359
     10          1           0       -3.525259    1.289921    1.861237
     11          1           0       -5.963537    1.541460    1.340071
     12          7           0       -1.759803   -0.192423    0.521886
     13          8           0       -1.324504    0.426008    1.490748
     14          8           0       -1.094027   -0.922523   -0.209095
     15          6           0        3.583812    2.509244   -0.559206
     16          6           0        4.497078    1.882226    0.294793
     17          6           0        4.424980    0.504905    0.523564
     18          6           0        3.422400   -0.218062   -0.120984
     19          6           0        2.497871    0.377778   -0.977437
     20          6           0        2.588878    1.756346   -1.191481
     21          1           0        3.647163    3.579665   -0.731200
     22          1           0        5.270802    2.464424    0.787176
     23          1           0        5.119101   -0.005990    1.179767
     24          1           0        1.737600   -0.229060   -1.454044
     25          1           0        1.878271    2.240627   -1.855226
     26          7           0        3.336065   -1.676830    0.113410
     27          8           0        2.443491   -2.291414   -0.466449
     28          8           0        4.162604   -2.178007    0.872549
 ---------------------------------------------------------------------

 SCF Done:  E(RHF) =  -868.337814837     A.U. after   16 cycles
 E2 =    -0.2599451226D+01 EUMP2 =    -0.87093726606308D+03

 The electronic state is 1-A.
 Alpha  occ. eigenvalues --  -20.60886 -20.60872 -20.59491 -20.59418 -15.85918
 Alpha  occ. eigenvalues --  -15.84511 -11.31287 -11.29916 -11.27862 -11.27842
 Alpha  occ. eigenvalues --  -11.27600 -11.26874 -11.26857 -11.26604 -11.26434
 Alpha  occ. eigenvalues --  -11.26400 -11.25646 -11.25577  -1.59952  -1.58528
 Alpha  occ. eigenvalues --   -1.39502  -1.38076  -1.19461  -1.18134  -1.08856
 Alpha  occ. eigenvalues --   -1.07543  -1.04861  -1.03559  -0.95687  -0.94358
 Alpha  occ. eigenvalues --   -0.86259  -0.84963  -0.82514  -0.81198  -0.77564
 Alpha  occ. eigenvalues --   -0.76206  -0.72124  -0.71280  -0.70744  -0.70564
 Alpha  occ. eigenvalues --   -0.69836  -0.69284  -0.65110  -0.64862  -0.63810
 Alpha  occ. eigenvalues --   -0.63603  -0.62205  -0.60900  -0.55362  -0.54126
 Alpha  occ. eigenvalues --   -0.53195  -0.52950  -0.51876  -0.51679  -0.48897
 Alpha  occ. eigenvalues --   -0.48877  -0.47522  -0.47469  -0.44904  -0.43468
 Alpha  occ. eigenvalues --   -0.37446  -0.36467  -0.36153  -0.35144
 Alpha virt. eigenvalues --    0.04946   0.06346   0.11187   0.12504   0.16432
 Alpha virt. eigenvalues --    0.17784   0.21333   0.22484   0.27250   0.28169
 Alpha virt. eigenvalues --    0.28400   0.29438   0.30899   0.31951   0.32469

 Mulliken charges:
               1
     1  C   -0.170800
     2  C   -0.218648
     3  C   -0.171544
     4  C    0.157574
     5  C   -0.171244
     6  C   -0.218650
     7  H    0.225888
     8  H    0.224164
     9  H    0.277246
    10  H    0.275374
    11  H    0.223468
    12  N    0.487791
    13  O   -0.460345
    14  O   -0.458369
    15  C   -0.170528
    16  C   -0.219468
    17  C   -0.170793
    18  C    0.157758
    19  C   -0.161722
    20  C   -0.219523
    21  H    0.220341
    22  H    0.218604
    23  H    0.272366
    24  H    0.285538
    25  H    0.218205
    26  N    0.488315
    27  O   -0.453451
    28  O   -0.467548
 Sum of Mulliken charges =  -0.00000

 Dipole moment (field-independent basis, Debye):
    X=             -5.1055    Y=              5.4707    Z=             -1.9533  Tot=              7.7337
 Quadrupole moment (field-independent basis, Debye-Ang):
   XX=            -69.3365   YY=           -106.7919   ZZ=           -101.0954
   XY=             15.7928   XZ=              1.9249   YZ=              2.9199

 Normal termination of Gaussian 16 at Thu May  6 08:20:02 2021.
