 Gaussian 16, Revision A.03,
 Gaussian 16:  EM64L-G16RevA.03 25-Dec-2016

 -------------
 #p 6-31g* mp2
 -------------

 ------------------------------------------------------
 Input file generated by CHIRIPA (05-May-2021 14:55:25)
 ------------------------------------------------------
 Symbolic Z-matrix:
 Charge =  0 Multiplicity = 1

                         Standard orientation:
 ---------------------------------------------------------------------
 Center     Atomic      Atomic             Coordinates (Angstroms)
 Number     Number       Type             X           Y           Z
 ---------------------------------------------------------------------
      1          6           0        2.722035    2.578241    0.804051
      2          6           0        3.963094    2.027027    0.468706
      3          6           0        4.046753    0.735902   -0.060960
      4          6           0        2.863980    0.020896   -0.242911
      5          6           0        1.612570    0.542510    0.081403
      6          6           0        1.552795    1.835533    0.609672
      7          1           0        2.666324    3.581955    1.214966
      8          1           0        4.872790    2.601515    0.618579
      9          1           0        4.994381    0.284841   -0.329219
     10          1           0        0.723115   -0.054505   -0.079414
     11          1           0        0.587593    2.261062    0.869200
     12          7           0        2.939904   -1.346964   -0.802905
     13          8           0        1.883210   -1.956338   -0.953566
     14          8           0        4.054668   -1.783819   -1.080564
     15          6           0       -3.821503    0.322989   -0.190030
     16          6           0       -5.316454    0.477973   -0.471259
     17          6           0       -5.644006    1.759745   -1.237787
     18          1           0       -3.470140    1.193318    0.380948
     19          1           0       -3.273485    0.331987   -1.142390
     20          1           0       -5.861616    0.467295    0.481264
     21          1           0       -5.664340   -0.392919   -1.041469
     22          1           0       -5.125975    1.774946   -2.202159
     23          1           0       -5.324372    2.640047   -0.670775
     24          1           0       -6.717980    1.850367   -1.428119
     25          6           0       -3.478253   -0.953609    0.575609
     26          6           0       -1.983303   -1.108594    0.856839
     27          6           0       -1.655751   -2.390366    1.623366
     28          1           0       -4.026271   -0.962608    1.527970
     29          1           0       -3.829617   -1.823939    0.004632
     30          1           0       -1.635416   -0.237703    1.427048
     31          1           0       -1.438141   -1.097917   -0.095684
     32          1           0       -1.975385   -3.270668    1.056354
     33          1           0       -2.173782   -2.405567    2.587739
     34          1           0       -0.581777   -2.480988    1.813697
 ---------------------------------------------------------------------

 SCF Done:  E(RHF) =  -669.535786566     A.U. after   15 cycles
 E2 =    -0.2091772687D+01 EUMP2 =    -0.67162755925261D+03

 The electronic state is 1-A.
 Alpha  occ. eigenvalues --  -20.60761 -20.60755 -15.85806 -11.31123 -11.27712
 Alpha  occ. eigenvalues --  -11.27634 -11.27454 -11.26723 -11.26696 -11.21927
 Alpha  occ. eigenvalues --  -11.21825 -11.21690 -11.21587 -11.21293 -11.20993
 Alpha  occ. eigenvalues --   -1.59832  -1.39387  -1.19304  -1.08712  -1.08678
 Alpha  occ. eigenvalues --   -1.04701  -1.03724  -0.96132  -0.95549  -0.87147
 Alpha  occ. eigenvalues --   -0.86105  -0.82383  -0.79835  -0.78548  -0.77414
 Alpha  occ. eigenvalues --   -0.72027  -0.71152  -0.70419  -0.65306  -0.64956
 Alpha  occ. eigenvalues --   -0.64708  -0.62079  -0.61106  -0.59496  -0.57759
 Alpha  occ. eigenvalues --   -0.55407  -0.55211  -0.53037  -0.52849  -0.52758
 Alpha  occ. eigenvalues --   -0.52554  -0.50066  -0.48786  -0.48782  -0.48107
 Alpha  occ. eigenvalues --   -0.46847  -0.46048  -0.45966  -0.44800  -0.43975
 Alpha  occ. eigenvalues --   -0.37296  -0.36301
 Alpha virt. eigenvalues --    0.05081   0.11330   0.16576   0.20490   0.22814
 Alpha virt. eigenvalues --    0.23976   0.25569   0.25849   0.27540   0.28232
 Alpha virt. eigenvalues --    0.29455   0.29926   0.31554   0.31736   0.32104

 Mulliken charges:
               1
     1  C   -0.170356
     2  C   -0.219282
     3  C   -0.169856
     4  C    0.156342
     5  C   -0.179116
     6  C   -0.224131
     7  H    0.225344
     8  H    0.223170
     9  H    0.275341
    10  H    0.292339
    11  H    0.224166
    12  N    0.487028
    13  O   -0.462246
    14  O   -0.460168
    15  C   -0.298765
    16  C   -0.299775
    17  C   -0.475892
    18  H    0.143848
    19  H    0.150362
    20  H    0.152301
    21  H    0.154349
    22  H    0.155936
    23  H    0.153266
    24  H    0.161470
    25  C   -0.296277
    26  C   -0.311090
    27  C   -0.474647
    28  H    0.150221
    29  H    0.154180
    30  H    0.142153
    31  H    0.158926
    32  H    0.160877
    33  H    0.153039
    34  H    0.166944
 Sum of Mulliken charges =  -0.00000

 Dipole moment (field-independent basis, Debye):
    X=             -0.3598    Y=              4.6663    Z=              1.9418  Tot=              5.0670
 Quadrupole moment (field-independent basis, Debye-Ang):
   XX=            -91.2058   YY=            -95.3787   ZZ=            -96.1466
   XY=             15.0280   XZ=              5.2819   YZ=             -0.2430

 Normal termination of Gaussian 16 at Wed May  5 17:42:00 2021.
