 Gaussian 16, Revision A.03,
 Gaussian 16:  EM64L-G16RevA.03 25-Dec-2016

 -------------
 #p 6-31g* mp2
 -------------

 ------------------------------------------------------
 Input file generated by CHIRIPA (05-May-2021 14:53:16)
 ------------------------------------------------------
 Symbolic Z-matrix:
 Charge =  0 Multiplicity = 1

                         Standard orientation:
 ---------------------------------------------------------------------
 Center     Atomic      Atomic             Coordinates (Angstroms)
 Number     Number       Type             X           Y           Z
 ---------------------------------------------------------------------
      1          6           0       -3.394953   -0.430869   -0.391026
      2          6           0       -3.774338   -1.080560    0.940122
      3          6           0       -4.414988   -2.457693    0.764436
      4          1           0       -4.293078   -0.341821   -1.017433
      5          1           0       -2.702468   -1.092414   -0.929745
      6          1           0       -4.464819   -0.417353    1.476786
      7          1           0       -2.875240   -1.167898    1.563508
      8          1           0       -3.728849   -3.139121    0.251142
      9          1           0       -5.327460   -2.384311    0.163927
     10          1           0       -4.678281   -2.903929    1.728495
     11          6           0       -2.753357    0.946356   -0.231866
     12          6           0       -2.373973    1.596047   -1.563014
     13          6           0       -1.733323    2.973180   -1.387328
     14          1           0       -3.445843    1.607901    0.306853
     15          1           0       -1.855232    0.857308    0.394542
     16          1           0       -3.273071    1.683385   -2.186400
     17          1           0       -1.683492    0.932840   -2.099678
     18          1           0       -0.820851    2.899798   -0.786818
     19          1           0       -2.419462    3.654608   -0.874033
     20          1           0       -1.470029    3.419416   -2.351387
     21          6           0        1.715674    1.750414    1.687575
     22          6           0        2.957319    1.758494    1.043546
     23          6           0        3.347845    0.682490    0.240893
     24          6           0        2.468005   -0.390053    0.103691
     25          6           0        1.224371   -0.427559    0.732387
     26          6           0        0.854680    0.659337    1.530217
     27          1           0        1.420397    2.590511    2.309223
     28          1           0        3.628014    2.604496    1.163942
     29          1           0        4.303303    0.662754   -0.269134
     30          1           0        0.577240   -1.285051    0.593291
     31          1           0       -0.110204    0.650338    2.029179
     32          7           0        2.870408   -1.534936   -0.743488
     33          8           0        2.077158   -2.467896   -0.848255
     34          8           0        3.971443   -1.477656   -1.286701
 ---------------------------------------------------------------------

 SCF Done:  E(RHF) =  -669.535409347     A.U. after   15 cycles
 E2 =    -0.2092837872D+01 EUMP2 =    -0.67162824721916D+03

 The electronic state is 1-A.
 Alpha  occ. eigenvalues --  -20.60838 -20.60832 -15.85892 -11.31280 -11.27857
 Alpha  occ. eigenvalues --  -11.27844 -11.27597 -11.26867 -11.26857 -11.22121
 Alpha  occ. eigenvalues --  -11.21933 -11.21864 -11.21768 -11.21402 -11.21368
 Alpha  occ. eigenvalues --   -1.59913  -1.39466  -1.19459  -1.08883  -1.08831
 Alpha  occ. eigenvalues --   -1.04867  -1.03910  -0.96355  -0.95676  -0.87370
 Alpha  occ. eigenvalues --   -0.86259  -0.82514  -0.79984  -0.78714  -0.77545
 Alpha  occ. eigenvalues --   -0.72109  -0.71236  -0.70554  -0.65572  -0.65101
 Alpha  occ. eigenvalues --   -0.64837  -0.62205  -0.61307  -0.59721  -0.57971
 Alpha  occ. eigenvalues --   -0.55654  -0.55342  -0.53197  -0.53042  -0.52997
 Alpha  occ. eigenvalues --   -0.52733  -0.50289  -0.48872  -0.48863  -0.48295
 Alpha  occ. eigenvalues --   -0.47022  -0.46229  -0.46137  -0.44866  -0.44179
 Alpha  occ. eigenvalues --   -0.37422  -0.36422
 Alpha virt. eigenvalues --    0.04957   0.11110   0.16309   0.19430   0.22898
 Alpha virt. eigenvalues --    0.23790   0.24952   0.26517   0.27343   0.28352
 Alpha virt. eigenvalues --    0.29896   0.30697   0.31216   0.31664   0.31870

 Mulliken charges:
               1
     1  C   -0.300440
     2  C   -0.298586
     3  C   -0.476400
     4  H    0.152840
     5  H    0.153666
     6  H    0.152436
     7  H    0.142205
     8  H    0.159056
     9  H    0.157184
    10  H    0.160922
    11  C   -0.303071
    12  C   -0.299079
    13  C   -0.478200
    14  H    0.148708
    15  H    0.144161
    16  H    0.153774
    17  H    0.156209
    18  H    0.154458
    19  H    0.153194
    20  H    0.162444
    21  C   -0.172608
    22  C   -0.218496
    23  C   -0.170503
    24  C    0.158634
    25  C   -0.171532
    26  C   -0.218246
    27  H    0.226928
    28  H    0.224131
    29  H    0.276065
    30  H    0.276088
    31  H    0.226402
    32  N    0.488083
    33  O   -0.460432
    34  O   -0.459996
 Sum of Mulliken charges =  -0.00000

 Dipole moment (field-independent basis, Debye):
    X=             -1.4149    Y=              3.9939    Z=              2.9061  Tot=              5.1379
 Quadrupole moment (field-independent basis, Debye-Ang):
   XX=            -97.0800   YY=            -98.1942   ZZ=            -94.5801
   XY=             12.3370   XZ=              6.6246   YZ=             -1.1409

 Normal termination of Gaussian 16 at Thu May  6 01:11:23 2021.
