 Gaussian 16, Revision A.03,
 Gaussian 16:  EM64L-G16RevA.03 25-Dec-2016

 -------------
 #p 6-31g* mp2
 -------------

 ------------------------------------------------------
 Input file generated by CHIRIPA (05-May-2021 14:55:23)
 ------------------------------------------------------
 Symbolic Z-matrix:
 Charge =  0 Multiplicity = 1

                         Standard orientation:
 ---------------------------------------------------------------------
 Center     Atomic      Atomic             Coordinates (Angstroms)
 Number     Number       Type             X           Y           Z
 ---------------------------------------------------------------------
      1          6           0       -2.185207    1.705700    1.788132
      2          6           0       -1.253728    1.200559    0.875061
      3          6           0       -1.630250    0.233494   -0.061723
      4          6           0       -2.952517   -0.207957   -0.057251
      5          6           0       -3.903747    0.275953    0.839567
      6          6           0       -3.504917    1.242601    1.767507
      7          1           0       -1.884051    2.456778    2.512413
      8          1           0       -0.228138    1.558363    0.888764
      9          1           0       -0.929577   -0.174665   -0.779972
     10          1           0       -4.918886   -0.100163    0.801522
     11          1           0       -4.230460    1.633109    2.475417
     12          7           0       -3.362932   -1.231525   -1.044301
     13          8           0       -4.533946   -1.604033   -1.019775
     14          8           0       -2.505831   -1.641909   -1.823787
     15          6           0        3.516496   -0.632141    0.159574
     16          6           0        4.727711   -1.386196    0.709431
     17          6           0        4.359247   -2.749599    1.295233
     18          1           0        2.778896   -0.500384    0.963025
     19          1           0        3.031371   -1.245072   -0.612672
     20          1           0        5.211217   -0.771435    1.479436
     21          1           0        5.462595   -1.516006   -0.095373
     22          1           0        3.896811   -3.384377    0.532468
     23          1           0        3.644004   -2.635575    2.116225
     24          1           0        5.239911   -3.271418    1.682526
     25          6           0        3.868786    0.732649   -0.429465
     26          6           0        2.657571    1.486704   -0.979324
     27          6           0        3.026035    2.850106   -1.565124
     28          1           0        4.353912    1.345580    0.342781
     29          1           0        4.606386    0.600892   -1.232916
     30          1           0        1.922687    1.616513   -0.174519
     31          1           0        2.174066    0.871943   -1.749327
     32          1           0        3.741278    2.736083   -2.386116
     33          1           0        3.488471    3.484884   -0.802360
     34          1           0        2.145372    3.371926   -1.952417
 ---------------------------------------------------------------------

 SCF Done:  E(RHF) =  -669.535604030     A.U. after   15 cycles
 E2 =    -0.2091288835D+01 EUMP2 =    -0.67162689286542D+03

 The electronic state is 1-A.
 Alpha  occ. eigenvalues --  -20.60722 -20.60717 -15.85775 -11.31127 -11.27703
 Alpha  occ. eigenvalues --  -11.27678 -11.27445 -11.26720 -11.26680 -11.22486
 Alpha  occ. eigenvalues --  -11.21998 -11.21967 -11.21874 -11.21730 -11.21310
 Alpha  occ. eigenvalues --   -1.59798  -1.39352  -1.19301  -1.09008  -1.08701
 Alpha  occ. eigenvalues --   -1.04701  -1.04072  -0.96483  -0.95536  -0.87502
 Alpha  occ. eigenvalues --   -0.86104  -0.82372  -0.80175  -0.78816  -0.77409
 Alpha  occ. eigenvalues --   -0.71994  -0.71121  -0.70413  -0.65665  -0.64952
 Alpha  occ. eigenvalues --   -0.64704  -0.62085  -0.61442  -0.59867  -0.58102
 Alpha  occ. eigenvalues --   -0.55757  -0.55213  -0.53190  -0.53034  -0.52915
 Alpha  occ. eigenvalues --   -0.52796  -0.50421  -0.48761  -0.48749  -0.48454
 Alpha  occ. eigenvalues --   -0.47205  -0.46345  -0.46247  -0.44760  -0.44322
 Alpha  occ. eigenvalues --   -0.37289  -0.36303
 Alpha virt. eigenvalues --    0.05116   0.11346   0.16601   0.19437   0.22763
 Alpha virt. eigenvalues --    0.23816   0.24830   0.25606   0.27530   0.28278
 Alpha virt. eigenvalues --    0.29601   0.29666   0.31329   0.31448   0.32050

 Mulliken charges:
               1
     1  C   -0.171988
     2  C   -0.224862
     3  C   -0.173835
     4  C    0.158602
     5  C   -0.171060
     6  C   -0.218588
     7  H    0.225755
     8  H    0.232361
     9  H    0.276784
    10  H    0.275363
    11  H    0.223096
    12  N    0.488159
    13  O   -0.460740
    14  O   -0.460562
    15  C   -0.299651
    16  C   -0.300028
    17  C   -0.476347
    18  H    0.145186
    19  H    0.153143
    20  H    0.151623
    21  H    0.153857
    22  H    0.158116
    23  H    0.154861
    24  H    0.161548
    25  C   -0.297657
    26  C   -0.306733
    27  C   -0.475737
    28  H    0.149926
    29  H    0.153865
    30  H    0.142656
    31  H    0.156121
    32  H    0.159901
    33  H    0.155492
    34  H    0.161369
 Sum of Mulliken charges =  -0.00000

 Dipole moment (field-independent basis, Debye):
    X=              1.6406    Y=              3.5689    Z=              3.4013  Tot=              5.1959
 Quadrupole moment (field-independent basis, Debye-Ang):
   XX=            -98.3671   YY=            -97.6768   ZZ=            -94.3673
   XY=            -11.3771   XZ=            -12.8144   YZ=             -0.0745

 Normal termination of Gaussian 16 at Thu May  6 20:50:01 2021.
