 Gaussian 16, Revision A.03,
 Gaussian 16:  EM64L-G16RevA.03 25-Dec-2016

 -------------
 #p 6-31g* mp2
 -------------

 ------------------------------------------------------
 Input file generated by CHIRIPA (05-May-2021 14:53:12)
 ------------------------------------------------------
 Symbolic Z-matrix:
 Charge =  0 Multiplicity = 1

                         Standard orientation:
 ---------------------------------------------------------------------
 Center     Atomic      Atomic             Coordinates (Angstroms)
 Number     Number       Type             X           Y           Z
 ---------------------------------------------------------------------
      1          6           0        2.927098    0.468767   -0.503883
      2          6           0        3.125347    1.930322   -0.100721
      3          6           0        2.061435    2.856030   -0.691439
      4          1           0        2.940060    0.392330   -1.599755
      5          1           0        1.930796    0.138025   -0.179249
      6          1           0        4.121515    2.257797   -0.424796
      7          1           0        3.112103    2.003260    0.994323
      8          1           0        1.062436    2.556893   -0.358094
      9          1           0        2.077583    2.812876   -1.785275
     10          1           0        2.222244    3.895961   -0.390531
     11          6           0        3.982893   -0.468990    0.078901
     12          6           0        3.784644   -1.930545   -0.324262
     13          6           0        4.848556   -2.856254    0.266457
     14          1           0        4.979195   -0.138248   -0.245734
     15          1           0        3.969931   -0.392554    1.174772
     16          1           0        3.797888   -2.003483   -1.419305
     17          1           0        2.788475   -2.258020   -0.000187
     18          1           0        4.832407   -2.813100    1.360293
     19          1           0        5.847555   -2.557116   -0.066889
     20          1           0        4.687747   -3.896184   -0.034451
     21          6           0       -1.180691    1.781075    1.108395
     22          6           0       -1.540995    0.681076    1.893700
     23          6           0       -2.381782   -0.311747    1.381910
     24          6           0       -2.846021   -0.172092    0.074902
     25          6           0       -2.504977    0.912028   -0.732354
     26          6           0       -1.662982    1.892843   -0.199819
     27          1           0       -0.527078    2.547659    1.514023
     28          1           0       -1.167947    0.591658    2.910009
     29          1           0       -2.676545   -1.173773    1.967952
     30          1           0       -2.892717    0.973588   -1.741951
     31          1           0       -1.384825    2.746023   -0.811995
     32          7           0       -3.736764   -1.216792   -0.477887
     33          8           0       -4.132362   -1.070475   -1.632327
     34          8           0       -4.022464   -2.162166    0.253742
 ---------------------------------------------------------------------

 SCF Done:  E(RHF) =  -669.534376298     A.U. after   15 cycles
 E2 =    -0.2093023311D+01 EUMP2 =    -0.67162739960934D+03

 The electronic state is 1-A.
 Alpha  occ. eigenvalues --  -20.60811 -20.60805 -15.85864 -11.31257 -11.27829
 Alpha  occ. eigenvalues --  -11.27810 -11.27563 -11.26854 -11.26818 -11.22279
 Alpha  occ. eigenvalues --  -11.21883 -11.21861 -11.21832 -11.21738 -11.21282
 Alpha  occ. eigenvalues --   -1.59885  -1.39438  -1.19438  -1.08907  -1.08814
 Alpha  occ. eigenvalues --   -1.04842  -1.04018  -0.96490  -0.95657  -0.87520
 Alpha  occ. eigenvalues --   -0.86237  -0.82484  -0.80097  -0.78661  -0.77523
 Alpha  occ. eigenvalues --   -0.72084  -0.71208  -0.70571  -0.65547  -0.65091
 Alpha  occ. eigenvalues --   -0.64851  -0.62205  -0.61410  -0.59855  -0.58068
 Alpha  occ. eigenvalues --   -0.55864  -0.55273  -0.53274  -0.53186  -0.52964
 Alpha  occ. eigenvalues --   -0.52766  -0.50420  -0.48845  -0.48836  -0.48390
 Alpha  occ. eigenvalues --   -0.47117  -0.46212  -0.46113  -0.44837  -0.44252
 Alpha  occ. eigenvalues --   -0.37357  -0.36420
 Alpha virt. eigenvalues --    0.04977   0.11090   0.16411   0.20779   0.22600
 Alpha virt. eigenvalues --    0.24019   0.26233   0.26358   0.27163   0.27773
 Alpha virt. eigenvalues --    0.28945   0.30432   0.31057   0.31548   0.31969

 Mulliken charges:
               1
     1  C   -0.300596
     2  C   -0.298176
     3  C   -0.485789
     4  H    0.151337
     5  H    0.152538
     6  H    0.154899
     7  H    0.148078
     8  H    0.153799
     9  H    0.158310
    10  H    0.158678
    11  C   -0.298360
    12  C   -0.300188
    13  C   -0.475941
    14  H    0.150170
    15  H    0.147912
    16  H    0.153428
    17  H    0.153205
    18  H    0.154460
    19  H    0.155368
    20  H    0.162249
    21  C   -0.172000
    22  C   -0.220151
    23  C   -0.171151
    24  C    0.158469
    25  C   -0.172019
    26  C   -0.217655
    27  H    0.228560
    28  H    0.223784
    29  H    0.275870
    30  H    0.276153
    31  H    0.226978
    32  N    0.488100
    33  O   -0.460029
    34  O   -0.460289
 Sum of Mulliken charges =  -0.00000

 Dipole moment (field-independent basis, Debye):
    X=              3.1387    Y=              3.5941    Z=              1.9110  Tot=              5.1401
 Quadrupole moment (field-independent basis, Debye-Ang):
   XX=           -113.4041   YY=            -96.0929   ZZ=            -90.2738
   XY=            -10.8403   XZ=             -5.9329   YZ=             -2.3952

 Normal termination of Gaussian 16 at Thu May  6 16:59:09 2021.
