 Gaussian 16, Revision A.03,
 Gaussian 16:  EM64L-G16RevA.03 25-Dec-2016

 -------------
 #p 6-31g* mp2
 -------------

 ------------------------------------------------------
 Input file generated by CHIRIPA (05-May-2021 14:53:15)
 ------------------------------------------------------
 Symbolic Z-matrix:
 Charge =  0 Multiplicity = 1

                         Standard orientation:
 ---------------------------------------------------------------------
 Center     Atomic      Atomic             Coordinates (Angstroms)
 Number     Number       Type             X           Y           Z
 ---------------------------------------------------------------------
      1          6           0        3.921993   -0.518786    0.049716
      2          6           0        2.777412    0.123807    0.833931
      3          6           0        1.473137   -0.667478    0.731313
      4          1           0        3.629119   -0.610491   -1.005158
      5          1           0        4.082122   -1.540990    0.419651
      6          1           0        2.620405    1.144979    0.463565
      7          1           0        3.073118    0.214168    1.887026
      8          1           0        1.606770   -1.682452    1.119349
      9          1           0        1.151484   -0.746352   -0.312200
     10          1           0        0.668360   -0.190362    1.299251
     11          6           0        5.232545    0.260671    0.142604
     12          6           0        6.377126   -0.381921   -0.641611
     13          6           0        7.681400    0.409363   -0.538992
     14          1           0        5.072416    1.282875   -0.227331
     15          1           0        5.525419    0.352377    1.197479
     16          1           0        6.081419   -0.472283   -1.694706
     17          1           0        6.534133   -1.403094   -0.271245
     18          1           0        8.003054    0.488237    0.504521
     19          1           0        7.547768    1.424337   -0.927028
     20          1           0        8.486177   -0.067753   -1.106931
     21          6           0       -3.115306    2.580221    0.004192
     22          6           0       -2.088332    1.668563    0.270134
     23          6           0       -2.332148    0.292550    0.229038
     24          6           0       -3.620528   -0.138873   -0.082793
     25          6           0       -4.664606    0.744540   -0.352562
     26          6           0       -4.397905    2.116118   -0.305761
     27          1           0       -2.917015    3.647419    0.038333
     28          1           0       -1.091279    2.026128    0.511127
     29          1           0       -1.555521   -0.435192    0.430681
     30          1           0       -5.648289    0.357915   -0.589855
     31          1           0       -5.197397    2.821821   -0.512739
     32          7           0       -3.890759   -1.593249   -0.129320
     33          8           0       -5.034461   -1.947847   -0.406527
     34          8           0       -2.953748   -2.351052    0.112301
 ---------------------------------------------------------------------

 SCF Done:  E(RHF) =  -669.535389067     A.U. after   15 cycles
 E2 =    -0.2091289877D+01 EUMP2 =    -0.67162667894405D+03

 The electronic state is 1-A.
 Alpha  occ. eigenvalues --  -20.60690 -20.60684 -15.85741 -11.31087 -11.27681
 Alpha  occ. eigenvalues --  -11.27599 -11.27431 -11.26698 -11.26672 -11.22178
 Alpha  occ. eigenvalues --  -11.21829 -11.21774 -11.21763 -11.21675 -11.21267
 Alpha  occ. eigenvalues --   -1.59765  -1.39318  -1.19272  -1.08808  -1.08674
 Alpha  occ. eigenvalues --   -1.04678  -1.03943  -0.96405  -0.95506  -0.87432
 Alpha  occ. eigenvalues --   -0.86072  -0.82341  -0.80016  -0.78593  -0.77383
 Alpha  occ. eigenvalues --   -0.71961  -0.71088  -0.70393  -0.65433  -0.64929
 Alpha  occ. eigenvalues --   -0.64684  -0.62115  -0.61313  -0.59758  -0.57996
 Alpha  occ. eigenvalues --   -0.55669  -0.55187  -0.53197  -0.53012  -0.52811
 Alpha  occ. eigenvalues --   -0.52671  -0.50314  -0.48719  -0.48714  -0.48320
 Alpha  occ. eigenvalues --   -0.47022  -0.46140  -0.46048  -0.44727  -0.44194
 Alpha  occ. eigenvalues --   -0.37265  -0.36278
 Alpha virt. eigenvalues --    0.05135   0.11366   0.16616   0.20250   0.22650
 Alpha virt. eigenvalues --    0.23781   0.26036   0.26384   0.26874   0.28044
 Alpha virt. eigenvalues --    0.29172   0.29713   0.31044   0.31555   0.32222

 Mulliken charges:
               1
     1  C   -0.299293
     2  C   -0.299791
     3  C   -0.482668
     4  H    0.151268
     5  H    0.152740
     6  H    0.147548
     7  H    0.154244
     8  H    0.166254
     9  H    0.158708
    10  H    0.150833
    11  C   -0.298574
    12  C   -0.300068
    13  C   -0.475900
    14  H    0.148537
    15  H    0.150192
    16  H    0.152660
    17  H    0.153332
    18  H    0.155455
    19  H    0.154795
    20  H    0.161376
    21  C   -0.170632
    22  C   -0.222588
    23  C   -0.179480
    24  C    0.159273
    25  C   -0.170377
    26  C   -0.219095
    27  H    0.225148
    28  H    0.224119
    29  H    0.287020
    30  H    0.275267
    31  H    0.223075
    32  N    0.487681
    33  O   -0.460935
    34  O   -0.460121
 Sum of Mulliken charges =  -0.00000

 Dipole moment (field-independent basis, Debye):
    X=              1.1522    Y=              5.0234    Z=              0.1556  Tot=              5.1562
 Quadrupole moment (field-independent basis, Debye-Ang):
   XX=            -97.6733   YY=            -96.4790   ZZ=            -94.6820
   XY=            -20.7260   XZ=              0.9162   YZ=             -1.2266

 Normal termination of Gaussian 16 at Wed May  5 21:53:41 2021.
