 Gaussian 16, Revision A.03,
 Gaussian 16:  EM64L-G16RevA.03 25-Dec-2016

 -------------
 #p 6-31g* mp2
 -------------

 ------------------------------------------------------
 Input file generated by CHIRIPA (05-May-2021 14:51:08)
 ------------------------------------------------------
 Symbolic Z-matrix:
 Charge =  0 Multiplicity = 1

                         Standard orientation:
 ---------------------------------------------------------------------
 Center     Atomic      Atomic             Coordinates (Angstroms)
 Number     Number       Type             X           Y           Z
 ---------------------------------------------------------------------
      1          6           0        2.666627   -0.551293   -0.893918
      2          6           0        2.785971   -1.855729   -0.105130
      3          6           0        2.705590   -3.095203   -0.996779
      4          1           0        1.715381   -0.548295   -1.443525
      5          1           0        3.464002   -0.513269   -1.648995
      6          1           0        1.989447   -1.890647    0.649155
      7          1           0        3.736957   -1.855539    0.442814
      8          1           0        3.508940   -3.087479   -1.740533
      9          1           0        1.751501   -3.122787   -1.533020
     10          1           0        2.793096   -4.016478   -0.412437
     11          6           0        2.745174    0.696681   -0.016354
     12          6           0        2.625830    2.001118   -0.805142
     13          6           0        2.706211    3.240591    0.086507
     14          1           0        1.947799    0.658657    0.738723
     15          1           0        3.696420    0.693683    0.533253
     16          1           0        1.674844    2.000927   -1.353086
     17          1           0        3.422354    2.036036   -1.559427
     18          1           0        3.660300    3.268176    0.622748
     19          1           0        1.902861    3.232868    0.830261
     20          1           0        2.618705    4.161866   -0.497835
     21          6           0       -3.022960    0.292502   -0.136081
     22          6           0       -4.373685   -0.289283   -0.554478
     23          6           0       -4.995396    0.451953   -1.738470
     24          1           0       -3.151201    1.353143    0.119927
     25          1           0       -2.335771    0.258625   -0.992829
     26          1           0       -5.057695   -0.255590    0.303200
     27          1           0       -4.242249   -1.348712   -0.809334
     28          1           0       -4.335158    0.407229   -2.610644
     29          1           0       -5.155238    1.506562   -1.491788
     30          1           0       -5.960349    0.019573   -2.020910
     31          6           0       -2.388841   -0.437890    1.046352
     32          6           0       -1.038116    0.143895    1.464749
     33          6           0       -0.416405   -0.597341    2.648742
     34          1           0       -3.076030   -0.404013    1.903101
     35          1           0       -2.260600   -1.498532    0.790345
     36          1           0       -1.169552    1.203323    1.719607
     37          1           0       -0.354106    0.110201    0.607072
     38          1           0       -0.256563   -1.651950    2.402060
     39          1           0       -1.076643   -0.552618    3.520916
     40          1           0        0.548549   -0.164962    2.931182
 ---------------------------------------------------------------------

 SCF Done:  E(RHF) =  -470.732886229     A.U. after   11 cycles
 E2 =    -0.1584275499D+01 EUMP2 =    -0.47231716172806D+03

 The electronic state is 1-A.
 Alpha  occ. eigenvalues --  -11.21689 -11.21648 -11.21587 -11.21576 -11.21475
 Alpha  occ. eigenvalues --  -11.21415 -11.21393 -11.21296 -11.21165 -11.21107
 Alpha  occ. eigenvalues --  -11.21083 -11.21048  -1.08524  -1.08401  -1.03608
 Alpha  occ. eigenvalues --   -1.03516  -0.96062  -0.95962  -0.87067  -0.86984
 Alpha  occ. eigenvalues --   -0.79699  -0.79557  -0.78358  -0.78198  -0.65371
 Alpha  occ. eigenvalues --   -0.64879  -0.61029  -0.60882  -0.59428  -0.59333
 Alpha  occ. eigenvalues --   -0.57733  -0.57523  -0.55370  -0.55224  -0.52754
 Alpha  occ. eigenvalues --   -0.52657  -0.52494  -0.52375  -0.50050  -0.49863
 Alpha  occ. eigenvalues --   -0.47993  -0.47897  -0.46813  -0.46509  -0.45999
 Alpha  occ. eigenvalues --   -0.45812  -0.45734  -0.45451  -0.43856  -0.43768
 Alpha virt. eigenvalues --    0.19709   0.23170   0.23597   0.24004   0.25840
 Alpha virt. eigenvalues --    0.26406   0.26891   0.27637   0.28708   0.29510
 Alpha virt. eigenvalues --    0.30341   0.31492   0.31668   0.31895   0.32228

 Mulliken charges:
               1
     1  C   -0.298608
     2  C   -0.304317
     3  C   -0.475543
     4  H    0.148499
     5  H    0.149896
     6  H    0.156752
     7  H    0.152118
     8  H    0.155316
     9  H    0.154492
    10  H    0.160229
    11  C   -0.307395
    12  C   -0.299360
    13  C   -0.475864
    14  H    0.159518
    15  H    0.149607
    16  H    0.151793
    17  H    0.151832
    18  H    0.154993
    19  H    0.155407
    20  H    0.160151
    21  C   -0.298343
    22  C   -0.299721
    23  C   -0.475768
    24  H    0.149886
    25  H    0.148994
    26  H    0.152134
    27  H    0.152053
    28  H    0.155218
    29  H    0.155289
    30  H    0.160465
    31  C   -0.297783
    32  C   -0.306241
    33  C   -0.479057
    34  H    0.149907
    35  H    0.149749
    36  H    0.152125
    37  H    0.157035
    38  H    0.156160
    39  H    0.156143
    40  H    0.162238
 Sum of Mulliken charges =  -0.00000

 Dipole moment (field-independent basis, Debye):
    X=             -0.0286    Y=             -0.0004    Z=              0.0327  Tot=              0.0434
 Quadrupole moment (field-independent basis, Debye-Ang):
   XX=            -83.8562   YY=            -85.5836   ZZ=            -85.3044
   XY=             -0.0920   XZ=             -0.9139   YZ=              0.2601

 Normal termination of Gaussian 16 at Wed May  5 22:55:30 2021.
