 Gaussian 16, Revision A.03,
 Gaussian 16:  EM64L-G16RevA.03 25-Dec-2016

 -------------
 #p 6-31g* mp2
 -------------

 ------------------------------------------------------
 Input file generated by CHIRIPA (05-May-2021 14:53:11)
 ------------------------------------------------------
 Symbolic Z-matrix:
 Charge =  0 Multiplicity = 1

                         Standard orientation:
 ---------------------------------------------------------------------
 Center     Atomic      Atomic             Coordinates (Angstroms)
 Number     Number       Type             X           Y           Z
 ---------------------------------------------------------------------
      1          6           0        3.598577   -0.527322   -0.019063
      2          6           0        4.715876   -0.922782    0.946980
      3          6           0        4.897793   -2.437250    1.052288
      4          1           0        2.657576   -0.989097    0.309913
      5          1           0        3.819098   -0.941049   -1.012842
      6          1           0        4.494010   -0.507266    1.938311
      7          1           0        5.654288   -0.459857    0.615773
      8          1           0        5.143445   -2.864644    0.074745
      9          1           0        3.976574   -2.912323    1.404797
     10          1           0        5.701506   -2.697641    1.748061
     11          6           0        3.404585    0.983516   -0.135095
     12          6           0        2.287286    1.378977   -1.101139
     13          6           0        2.105370    2.893444   -1.206446
     14          1           0        3.184065    1.397243    0.858683
     15          1           0        4.345586    1.445291   -0.464072
     16          1           0        1.348874    0.916051   -0.769932
     17          1           0        2.509152    0.963460   -2.092470
     18          1           0        3.026588    3.368517   -1.558956
     19          1           0        1.859717    3.320838   -0.228903
     20          1           0        1.301656    3.153835   -1.902220
     21          6           0       -2.620993    2.087246    1.164998
     22          6           0       -3.696293    1.232822    1.429977
     23          6           0       -3.770140   -0.024667    0.823498
     24          6           0       -2.746691   -0.397216   -0.046587
     25          6           0       -1.662460    0.431612   -0.330803
     26          6           0       -1.609293    1.684623    0.287002
     27          1           0       -2.571660    3.062354    1.640525
     28          1           0       -4.483424    1.542859    2.111407
     29          1           0       -4.591232   -0.705947    1.010802
     30          1           0       -0.892882    0.094684   -1.014652
     31          1           0       -0.773010    2.346102    0.079347
     32          7           0       -2.813924   -1.726093   -0.694636
     33          8           0       -1.899537   -2.030783   -1.457328
     34          8           0       -3.779733   -2.437814   -0.427612
 ---------------------------------------------------------------------

 SCF Done:  E(RHF) =  -669.535228477     A.U. after   15 cycles
 E2 =    -0.2092239911D+01 EUMP2 =    -0.67162746838785D+03

 The electronic state is 1-A.
 Alpha  occ. eigenvalues --  -20.60746 -20.60740 -15.85797 -11.31156 -11.27731
 Alpha  occ. eigenvalues --  -11.27694 -11.27466 -11.26750 -11.26697 -11.22397
 Alpha  occ. eigenvalues --  -11.22012 -11.21886 -11.21762 -11.21605 -11.21094
 Alpha  occ. eigenvalues --   -1.59821  -1.39374  -1.19330  -1.08872  -1.08724
 Alpha  occ. eigenvalues --   -1.04740  -1.03998  -0.96438  -0.95563  -0.87455
 Alpha  occ. eigenvalues --   -0.86127  -0.82401  -0.80101  -0.78619  -0.77440
 Alpha  occ. eigenvalues --   -0.72016  -0.71144  -0.70450  -0.65549  -0.64974
 Alpha  occ. eigenvalues --   -0.64732  -0.62248  -0.61251  -0.59828  -0.58021
 Alpha  occ. eigenvalues --   -0.55738  -0.55213  -0.53156  -0.53071  -0.52896
 Alpha  occ. eigenvalues --   -0.52767  -0.50373  -0.48776  -0.48772  -0.48379
 Alpha  occ. eigenvalues --   -0.47131  -0.46159  -0.46049  -0.44780  -0.44221
 Alpha  occ. eigenvalues --   -0.37313  -0.36328
 Alpha virt. eigenvalues --    0.05066   0.11306   0.16515   0.19494   0.22935
 Alpha virt. eigenvalues --    0.23768   0.25197   0.26287   0.26993   0.28553
 Alpha virt. eigenvalues --    0.29466   0.30651   0.31237   0.31493   0.32124

 Mulliken charges:
               1
     1  C   -0.299733
     2  C   -0.300112
     3  C   -0.476223
     4  H    0.152657
     5  H    0.152660
     6  H    0.151164
     7  H    0.151768
     8  H    0.156822
     9  H    0.157671
    10  H    0.160394
    11  C   -0.297479
    12  C   -0.307286
    13  C   -0.480904
    14  H    0.148397
    15  H    0.151840
    16  H    0.146947
    17  H    0.159258
    18  H    0.162710
    19  H    0.150211
    20  H    0.159449
    21  C   -0.171896
    22  C   -0.218479
    23  C   -0.171118
    24  C    0.160165
    25  C   -0.178855
    26  C   -0.224752
    27  H    0.225752
    28  H    0.223318
    29  H    0.275445
    30  H    0.280293
    31  H    0.232621
    32  N    0.488338
    33  O   -0.460449
    34  O   -0.460593
 Sum of Mulliken charges =  -0.00000

 Dipole moment (field-independent basis, Debye):
    X=              0.4117    Y=              4.6262    Z=              2.2492  Tot=              5.1604
 Quadrupole moment (field-independent basis, Debye-Ang):
   XX=            -91.5238   YY=           -100.0540   ZZ=            -93.8480
   XY=            -11.9324   XZ=             -9.5367   YZ=             -1.4728

 Normal termination of Gaussian 16 at Wed May  5 21:42:04 2021.
