 Gaussian 16, Revision A.03,
 Gaussian 16:  EM64L-G16RevA.03 25-Dec-2016

 -------------
 #p 6-31g* mp2
 -------------

 ------------------------------------------------------
 Input file generated by CHIRIPA (05-May-2021 14:55:22)
 ------------------------------------------------------
 Symbolic Z-matrix:
 Charge =  0 Multiplicity = 1

                         Standard orientation:
 ---------------------------------------------------------------------
 Center     Atomic      Atomic             Coordinates (Angstroms)
 Number     Number       Type             X           Y           Z
 ---------------------------------------------------------------------
      1          6           0       -4.583239    0.789880    0.827415
      2          6           0       -4.675829   -0.122797   -0.228506
      3          6           0       -3.533873   -0.769991   -0.709780
      4          6           0       -2.309920   -0.479481   -0.109086
      5          6           0       -2.185245    0.424836    0.944459
      6          6           0       -3.340433    1.060307    1.409502
      7          1           0       -5.475477    1.288082    1.194976
      8          1           0       -5.639687   -0.334763   -0.682480
      9          1           0       -3.576942   -1.480971   -1.525911
     10          1           0       -1.210501    0.615594    1.376784
     11          1           0       -3.265527    1.768640    2.229683
     12          7           0       -1.093978   -1.158431   -0.609997
     13          8           0       -0.027428   -0.885149   -0.063714
     14          8           0       -1.230497   -1.951017   -1.539409
     15          6           0        3.410674   -0.036647    0.569903
     16          6           0        3.858323   -1.381565   -0.003500
     17          6           0        4.250147   -2.385612    1.081008
     18          1           0        4.220832    0.381258    1.183047
     19          1           0        2.559355   -0.199026    1.245390
     20          1           0        4.707664   -1.216533   -0.678778
     21          1           0        3.047077   -1.796226   -0.615506
     22          1           0        3.405345   -2.579533    1.749816
     23          1           0        5.075367   -1.996545    1.686185
     24          1           0        4.566862   -3.340024    0.648980
     25          6           0        3.015750    0.977656   -0.501988
     26          6           0        2.568101    2.322575    0.071415
     27          6           0        2.176278    3.326621   -1.013092
     28          1           0        3.867070    1.140036   -1.177476
     29          1           0        2.205593    0.559752   -1.115132
     30          1           0        3.379348    2.737235    0.683422
     31          1           0        1.718760    2.157542    0.746693
     32          1           0        1.351057    2.937554   -1.618270
     33          1           0        3.021080    3.520542   -1.681901
     34          1           0        1.859563    4.281034   -0.581065
 ---------------------------------------------------------------------

 SCF Done:  E(RHF) =  -669.536492894     A.U. after   15 cycles
 E2 =    -0.2092340764D+01 EUMP2 =    -0.67162883365874D+03

 The electronic state is 1-A.
 Alpha  occ. eigenvalues --  -20.61130 -20.61123 -15.86142 -11.31394 -11.27950
 Alpha  occ. eigenvalues --  -11.27944 -11.27671 -11.26938 -11.26928 -11.20824
 Alpha  occ. eigenvalues --  -11.20502 -11.20138 -11.20066 -11.19985 -11.19903
 Alpha  occ. eigenvalues --   -1.60180  -1.39739  -1.19555  -1.08973  -1.07206
 Alpha  occ. eigenvalues --   -1.04940  -1.02464  -0.95829  -0.94919  -0.86344
 Alpha  occ. eigenvalues --   -0.85957  -0.82666  -0.78545  -0.77728  -0.76989
 Alpha  occ. eigenvalues --   -0.72393  -0.71486  -0.70664  -0.65227  -0.64942
 Alpha  occ. eigenvalues --   -0.63748  -0.62289  -0.59849  -0.58336  -0.56540
 Alpha  occ. eigenvalues --   -0.55446  -0.54188  -0.53273  -0.53030  -0.51702
 Alpha  occ. eigenvalues --   -0.51371  -0.49157  -0.49116  -0.48862  -0.46883
 Alpha  occ. eigenvalues --   -0.45592  -0.45174  -0.44550  -0.44271  -0.42661
 Alpha  occ. eigenvalues --   -0.37528  -0.36536
 Alpha virt. eigenvalues --    0.04770   0.11113   0.16267   0.20727   0.23479
 Alpha virt. eigenvalues --    0.25218   0.26179   0.27464   0.28378   0.29041
 Alpha virt. eigenvalues --    0.29243   0.31138   0.31838   0.32520   0.32708

 Mulliken charges:
               1
     1  C   -0.170276
     2  C   -0.218599
     3  C   -0.170394
     4  C    0.157283
     5  C   -0.171251
     6  C   -0.218612
     7  H    0.226461
     8  H    0.224195
     9  H    0.276025
    10  H    0.276542
    11  H    0.224481
    12  N    0.493192
    13  O   -0.465244
    14  O   -0.457819
    15  C   -0.294821
    16  C   -0.303038
    17  C   -0.475199
    18  H    0.139978
    19  H    0.156308
    20  H    0.144698
    21  H    0.170421
    22  H    0.155900
    23  H    0.149023
    24  H    0.157000
    25  C   -0.301007
    26  C   -0.297503
    27  C   -0.474987
    28  H    0.142847
    29  H    0.167524
    30  H    0.147991
    31  H    0.145194
    32  H    0.154506
    33  H    0.154934
    34  H    0.154245
 Sum of Mulliken charges =  -0.00000

 Dipole moment (field-independent basis, Debye):
    X=             -4.6746    Y=              2.1938    Z=              1.6599  Tot=              5.4241
 Quadrupole moment (field-independent basis, Debye-Ang):
   XX=            -74.2311   YY=            -97.7621   ZZ=            -93.8395
   XY=             -1.7230   XZ=             -2.1706   YZ=              1.6250

 Normal termination of Gaussian 16 at Wed May  5 22:16:36 2021.
