 Gaussian 16, Revision A.03,
 Gaussian 16:  EM64L-G16RevA.03 25-Dec-2016

 -------------
 #p 6-31g* mp2
 -------------

 ------------------------------------------------------
 Input file generated by CHIRIPA (05-May-2021 14:53:13)
 ------------------------------------------------------
 Symbolic Z-matrix:
 Charge =  0 Multiplicity = 1

                         Standard orientation:
 ---------------------------------------------------------------------
 Center     Atomic      Atomic             Coordinates (Angstroms)
 Number     Number       Type             X           Y           Z
 ---------------------------------------------------------------------
      1          6           0        2.220797    0.718339   -0.460524
      2          6           0        2.566243    2.104602   -1.005434
      3          6           0        1.348270    3.024425   -1.096323
      4          1           0        1.458901    0.257742   -1.104194
      5          1           0        1.766269    0.825790    0.534088
      6          1           0        3.021250    1.994481   -1.998136
      7          1           0        3.327545    2.561874   -0.360501
      8          1           0        0.896286    3.163859   -0.108969
      9          1           0        0.588251    2.593242   -1.755909
     10          1           0        1.617920    4.010089   -1.488261
     11          6           0        3.428091   -0.212684   -0.363757
     12          6           0        3.082645   -1.598947    0.181152
     13          6           0        4.300618   -2.518771    0.272042
     14          1           0        3.882619   -0.320136   -1.358370
     15          1           0        4.189987    0.247912    0.279912
     16          1           0        2.321343   -2.056219   -0.463780
     17          1           0        2.627638   -1.488827    1.173855
     18          1           0        5.060637   -2.087588    0.931627
     19          1           0        4.752602   -2.658204   -0.715313
     20          1           0        4.030968   -3.504435    0.663979
     21          6           0       -0.827123    1.066309    2.014825
     22          6           0       -0.516932   -0.263470    1.711524
     23          6           0       -1.274412   -0.973442    0.775195
     24          6           0       -2.339959   -0.319704    0.158327
     25          6           0       -2.673965    1.004249    0.439181
     26          6           0       -1.902753    1.694816    1.378807
     27          1           0       -0.233361    1.610295    2.743469
     28          1           0        0.317849   -0.754124    2.203909
     29          1           0       -1.056293   -2.003740    0.521565
     30          1           0       -3.512091    1.466518   -0.068039
     31          1           0       -2.145959    2.727453    1.612382
     32          7           0       -3.149138   -1.061048   -0.834668
     33          8           0       -4.082844   -0.462443   -1.364294
     34          8           0       -2.834345   -2.226679   -1.064547
 ---------------------------------------------------------------------

 SCF Done:  E(RHF) =  -669.533847289     A.U. after   15 cycles
 E2 =    -0.2094910875D+01 EUMP2 =    -0.67162875816440D+03

 The electronic state is 1-A.
 Alpha  occ. eigenvalues --  -20.60789 -20.60784 -15.85840 -11.31214 -11.27755
 Alpha  occ. eigenvalues --  -11.27730 -11.27492 -11.26805 -11.26753 -11.22265
 Alpha  occ. eigenvalues --  -11.21941 -11.21833 -11.21645 -11.21553 -11.21410
 Alpha  occ. eigenvalues --   -1.59864  -1.39417  -1.19376  -1.08913  -1.08746
 Alpha  occ. eigenvalues --   -1.04773  -1.03981  -0.96400  -0.95613  -0.87423
 Alpha  occ. eigenvalues --   -0.86186  -0.82441  -0.80069  -0.78713  -0.77468
 Alpha  occ. eigenvalues --   -0.72059  -0.71187  -0.70489  -0.65584  -0.65028
 Alpha  occ. eigenvalues --   -0.64737  -0.62127  -0.61389  -0.59777  -0.58028
 Alpha  occ. eigenvalues --   -0.55691  -0.55289  -0.53293  -0.53068  -0.52863
 Alpha  occ. eigenvalues --   -0.52781  -0.50355  -0.48822  -0.48814  -0.48363
 Alpha  occ. eigenvalues --   -0.47116  -0.46191  -0.46154  -0.44821  -0.44213
 Alpha  occ. eigenvalues --   -0.37257  -0.36274
 Alpha virt. eigenvalues --    0.04994   0.11133   0.16400   0.19901   0.23013
 Alpha virt. eigenvalues --    0.23399   0.25363   0.26058   0.27444   0.28191
 Alpha virt. eigenvalues --    0.29493   0.29627   0.31111   0.31516   0.32118

 Mulliken charges:
               1
     1  C   -0.299403
     2  C   -0.300182
     3  C   -0.474783
     4  H    0.153065
     5  H    0.147400
     6  H    0.153912
     7  H    0.149580
     8  H    0.148991
     9  H    0.158680
    10  H    0.160128
    11  C   -0.298287
    12  C   -0.301454
    13  C   -0.475546
    14  H    0.152669
    15  H    0.148376
    16  H    0.155039
    17  H    0.140880
    18  H    0.155348
    19  H    0.158889
    20  H    0.160963
    21  C   -0.171687
    22  C   -0.215710
    23  C   -0.172331
    24  C    0.158442
    25  C   -0.171544
    26  C   -0.216298
    27  H    0.225212
    28  H    0.227073
    29  H    0.275875
    30  H    0.275671
    31  H    0.223850
    32  N    0.487923
    33  O   -0.460289
    34  O   -0.460452
 Sum of Mulliken charges =  -0.00000

 Dipole moment (field-independent basis, Debye):
    X=              2.8415    Y=              2.5719    Z=              3.4196  Tot=              5.1364
 Quadrupole moment (field-independent basis, Debye-Ang):
   XX=           -107.5429   YY=            -94.0331   ZZ=            -93.3417
   XY=             -9.3209   XZ=             -7.5047   YZ=             -0.8304

 Normal termination of Gaussian 16 at Thu May  6 18:41:12 2021.
