 Gaussian 16, Revision A.03,
 Gaussian 16:  EM64L-G16RevA.03 25-Dec-2016

 -------------
 #p 6-31g* mp2
 -------------

 ------------------------------------------------------
 Input file generated by CHIRIPA (05-May-2021 14:57:23)
 ------------------------------------------------------
 Symbolic Z-matrix:
 Charge =  0 Multiplicity = 1

                         Standard orientation:
 ---------------------------------------------------------------------
 Center     Atomic      Atomic             Coordinates (Angstroms)
 Number     Number       Type             X           Y           Z
 ---------------------------------------------------------------------
      1          6           0       -5.608289   -1.743887   -0.269248
      2          6           0       -6.022460   -0.446300   -0.587447
      3          6           0       -5.141331    0.631603   -0.459845
      4          6           0       -3.847448    0.374622   -0.009158
      5          6           0       -3.405031   -0.906778    0.315760
      6          6           0       -4.303197   -1.969587    0.180547
      7          1           0       -6.299389   -2.575366   -0.371328
      8          1           0       -7.035419   -0.268049   -0.937000
      9          1           0       -5.435702    1.646227   -0.699224
     10          1           0       -2.389014   -1.053172    0.661731
     11          1           0       -3.978793   -2.976254    0.428395
     12          7           0       -2.905618    1.507760    0.129957
     13          8           0       -1.770982    1.254939    0.529106
     14          8           0       -3.319881    2.627280   -0.162787
     15          6           0        1.589723   -0.676647    0.584072
     16          6           0        2.054900    0.642492    0.586001
     17          6           0        3.389857    0.925045    0.281690
     18          6           0        4.235948   -0.140614   -0.021277
     19          6           0        3.802442   -1.465475   -0.031525
     20          6           0        2.463437   -1.724573    0.275858
     21          1           0        0.551125   -0.887031    0.821661
     22          1           0        1.378620    1.458321    0.824982
     23          1           0        3.776419    1.936951    0.275838
     24          1           0        4.500382   -2.257698   -0.273762
     25          1           0        2.104946   -2.750010    0.273591
     26          7           0        5.651349    0.146097   -0.345064
     27          8           0        6.376671   -0.810509   -0.608595
     28          8           0        6.008617    1.321999   -0.329186
 ---------------------------------------------------------------------

 SCF Done:  E(RHF) =  -868.339585413     A.U. after   16 cycles
 E2 =    -0.2599240800D+01 EUMP2 =    -0.87093882621296D+03

 The electronic state is 1-A.
 Alpha  occ. eigenvalues --  -20.61958 -20.61903 -20.60223 -20.60210 -15.86968
 Alpha  occ. eigenvalues --  -15.85265 -11.32122 -11.30502 -11.28746 -11.28605
 Alpha  occ. eigenvalues --  -11.28320 -11.27643 -11.27572 -11.27098 -11.26952
 Alpha  occ. eigenvalues --  -11.26711 -11.26131 -11.25795  -1.60980  -1.59297
 Alpha  occ. eigenvalues --   -1.40549  -1.38854  -1.20261  -1.18639  -1.09684
 Alpha  occ. eigenvalues --   -1.08049  -1.05640  -1.04008  -0.96565  -0.94915
 Alpha  occ. eigenvalues --   -0.87046  -0.85398  -0.83415  -0.81746  -0.78499
 Alpha  occ. eigenvalues --   -0.76816  -0.73216  -0.72277  -0.71486  -0.71370
 Alpha  occ. eigenvalues --   -0.70618  -0.69735  -0.65922  -0.65638  -0.64277
 Alpha  occ. eigenvalues --   -0.63960  -0.63008  -0.61337  -0.56125  -0.54515
 Alpha  occ. eigenvalues --   -0.53963  -0.53721  -0.52366  -0.52068  -0.49967
 Alpha  occ. eigenvalues --   -0.49903  -0.48250  -0.48228  -0.45994  -0.44289
 Alpha  occ. eigenvalues --   -0.38204  -0.37227  -0.36612  -0.35612
 Alpha virt. eigenvalues --    0.04046   0.05687   0.10431   0.12043   0.15596
 Alpha virt. eigenvalues --    0.17220   0.19095   0.21996   0.24987   0.26914
 Alpha virt. eigenvalues --    0.28193   0.28878   0.30712   0.31009   0.33166

 Mulliken charges:
               1
     1  C   -0.169434
     2  C   -0.218261
     3  C   -0.169208
     4  C    0.158056
     5  C   -0.170225
     6  C   -0.219227
     7  H    0.228803
     8  H    0.226808
     9  H    0.277919
    10  H    0.269886
    11  H    0.224550
    12  N    0.492942
    13  O   -0.476617
    14  O   -0.453212
    15  C   -0.173757
    16  C   -0.222735
    17  C   -0.172771
    18  C    0.158251
    19  C   -0.172457
    20  C   -0.219880
    21  H    0.228190
    22  H    0.244255
    23  H    0.275201
    24  H    0.272272
    25  H    0.216725
    26  N    0.488047
    27  O   -0.463233
    28  O   -0.460886
 Sum of Mulliken charges =  -0.00000

 Dipole moment (field-independent basis, Debye):
    X=             -8.9032    Y=             -4.7805    Z=              0.6161  Tot=             10.1242
 Quadrupole moment (field-independent basis, Debye-Ang):
   XX=           -118.9857   YY=           -100.9830   ZZ=           -105.9547
   XY=              7.6680   XZ=              8.4724   YZ=             -0.6669

 Normal termination of Gaussian 16 at Thu May  6 09:44:09 2021.
