 Gaussian 16, Revision A.03,
 Gaussian 16:  EM64L-G16RevA.03 25-Dec-2016

 -------------
 #p 6-31g* mp2
 -------------

 ------------------------------------------------------
 Input file generated by CHIRIPA (05-May-2021 14:53:16)
 ------------------------------------------------------
 Symbolic Z-matrix:
 Charge =  0 Multiplicity = 1

                         Standard orientation:
 ---------------------------------------------------------------------
 Center     Atomic      Atomic             Coordinates (Angstroms)
 Number     Number       Type             X           Y           Z
 ---------------------------------------------------------------------
      1          6           0       -4.066180   -0.103610    0.029925
      2          6           0       -4.773886   -0.728036   -1.173083
      3          6           0       -5.688786   -1.889455   -0.783392
      4          1           0       -3.480047   -0.877212    0.544642
      5          1           0       -4.819883    0.247262    0.748407
      6          1           0       -4.019094   -1.076380   -1.889715
      7          1           0       -5.358250    0.047184   -1.685107
      8          1           0       -6.462987   -1.552850   -0.086318
      9          1           0       -5.116222   -2.682798   -0.292089
     10          1           0       -6.184587   -2.321031   -1.658482
     11          6           0       -3.147990    1.058781   -0.343572
     12          6           0       -2.440284    1.683208    0.859436
     13          6           0       -1.525384    2.844626    0.469745
     14          1           0       -2.394287    0.707910   -1.062054
     15          1           0       -3.734123    1.832384   -0.858289
     16          1           0       -1.855920    0.907988    1.371460
     17          1           0       -3.195076    2.031552    1.576068
     18          1           0       -2.097948    3.637969   -0.021558
     19          1           0       -0.751183    2.508021   -0.227329
     20          1           0       -1.029583    3.276203    1.344835
     21          6           0        1.098405   -1.423337    1.641013
     22          6           0        2.010423   -2.230175    0.952712
     23          6           0        2.967555   -1.659144    0.108690
     24          6           0        2.984283   -0.271582   -0.024284
     25          6           0        2.089084    0.559041    0.648006
     26          6           0        1.140572   -0.033755    1.486735
     27          1           0        0.358230   -1.875382    2.294614
     28          1           0        1.980014   -3.309629    1.070608
     29          1           0        3.685491   -2.260166   -0.436065
     30          1           0        2.144037    1.632087    0.510272
     31          1           0        0.433532    0.595320    2.020032
     32          7           0        3.992991    0.344464   -0.915010
     33          8           0        3.986927    1.569446   -1.015100
     34          8           0        4.770582   -0.409327   -1.496206
 ---------------------------------------------------------------------

 SCF Done:  E(RHF) =  -669.535432996     A.U. after   15 cycles
 E2 =    -0.2092001688D+01 EUMP2 =    -0.67162743468371D+03

 The electronic state is 1-A.
 Alpha  occ. eigenvalues --  -20.60776 -20.60771 -15.85829 -11.31206 -11.27779
 Alpha  occ. eigenvalues --  -11.27759 -11.27521 -11.26798 -11.26754 -11.22405
 Alpha  occ. eigenvalues --  -11.22046 -11.21974 -11.21914 -11.21830 -11.21488
 Alpha  occ. eigenvalues --   -1.59852  -1.39404  -1.19380  -1.09027  -1.08772
 Alpha  occ. eigenvalues --   -1.04786  -1.04135  -0.96574  -0.95606  -0.87588
 Alpha  occ. eigenvalues --   -0.86182  -0.82435  -0.80212  -0.78829  -0.77482
 Alpha  occ. eigenvalues --   -0.72047  -0.71175  -0.70486  -0.65717  -0.65030
 Alpha  occ. eigenvalues --   -0.64768  -0.62246  -0.61413  -0.59950  -0.58185
 Alpha  occ. eigenvalues --   -0.55860  -0.55268  -0.53280  -0.53116  -0.52987
 Alpha  occ. eigenvalues --   -0.52863  -0.50505  -0.48815  -0.48801  -0.48511
 Alpha  occ. eigenvalues --   -0.47232  -0.46372  -0.46270  -0.44807  -0.44382
 Alpha  occ. eigenvalues --   -0.37360  -0.36370
 Alpha virt. eigenvalues --    0.05031   0.11165   0.16453   0.19854   0.22712
 Alpha virt. eigenvalues --    0.23757   0.25680   0.26118   0.26548   0.28540
 Alpha virt. eigenvalues --    0.29157   0.29889   0.31200   0.31332   0.31898

 Mulliken charges:
               1
     1  C   -0.297779
     2  C   -0.300335
     3  C   -0.475784
     4  H    0.145545
     5  H    0.150100
     6  H    0.153482
     7  H    0.153769
     8  H    0.155621
     9  H    0.153621
    10  H    0.162136
    11  C   -0.298784
    12  C   -0.301583
    13  C   -0.481163
    14  H    0.153262
    15  H    0.152706
    16  H    0.142329
    17  H    0.154278
    18  H    0.161952
    19  H    0.158663
    20  H    0.156325
    21  C   -0.172591
    22  C   -0.218440
    23  C   -0.170977
    24  C    0.158599
    25  C   -0.173660
    26  C   -0.219874
    27  H    0.225583
    28  H    0.223473
    29  H    0.275683
    30  H    0.276883
    31  H    0.229515
    32  N    0.488051
    33  O   -0.460161
    34  O   -0.460445
 Sum of Mulliken charges =  -0.00000

 Dipole moment (field-independent basis, Debye):
    X=             -3.6640    Y=             -2.1345    Z=              3.0358  Tot=              5.2151
 Quadrupole moment (field-independent basis, Debye-Ang):
   XX=           -115.4703   YY=            -89.6634   ZZ=            -95.4694
   XY=             -8.7104   XZ=              9.3065   YZ=              0.3771

 Normal termination of Gaussian 16 at Thu May  6 18:55:05 2021.
