 Gaussian 16, Revision A.03,
 Gaussian 16:  EM64L-G16RevA.03 25-Dec-2016

 -------------
 #p 6-31g* mp2
 -------------

 ------------------------------------------------------
 Input file generated by CHIRIPA (05-May-2021 14:53:14)
 ------------------------------------------------------
 Symbolic Z-matrix:
 Charge =  0 Multiplicity = 1

                         Standard orientation:
 ---------------------------------------------------------------------
 Center     Atomic      Atomic             Coordinates (Angstroms)
 Number     Number       Type             X           Y           Z
 ---------------------------------------------------------------------
      1          6           0        3.065433    0.826777   -0.097422
      2          6           0        2.933482    2.095493    0.745748
      3          6           0        1.738174    2.956201    0.335609
      4          1           0        3.158626    1.105683   -1.155945
      5          1           0        2.141478    0.238607   -0.009337
      6          1           0        3.857948    2.680419    0.657198
      7          1           0        2.840784    1.813541    1.802406
      8          1           0        0.804546    2.394227    0.441079
      9          1           0        1.827489    3.266030   -0.710637
     10          1           0        1.662748    3.857973    0.951222
     11          6           0        4.255769   -0.044078    0.300620
     12          6           0        4.387720   -1.312793   -0.542550
     13          6           0        5.583028   -2.173502   -0.132411
     14          1           0        5.179724    0.544092    0.212535
     15          1           0        4.162576   -0.322984    1.359144
     16          1           0        4.480418   -1.030842   -1.599208
     17          1           0        3.463254   -1.897720   -0.454000
     18          1           0        5.493713   -2.483331    0.913835
     19          1           0        6.516656   -1.611528   -0.237880
     20          1           0        5.658454   -3.075274   -0.748023
     21          6           0       -3.031822    2.183468   -0.453784
     22          6           0       -4.130113    1.472480    0.040963
     23          6           0       -4.046178    0.093044    0.252291
     24          6           0       -2.843218   -0.546390   -0.043178
     25          6           0       -1.731459    0.134217   -0.537198
     26          6           0       -1.838105    1.513248   -0.740779
     27          1           0       -3.105846    3.254890   -0.614940
     28          1           0       -5.058430    1.990361    0.264728
     29          1           0       -4.880992   -0.481881    0.634345
     30          1           0       -0.819349   -0.409635   -0.750972
     31          1           0       -0.983539    2.062843   -1.125107
     32          7           0       -2.742339   -2.006523    0.176445
     33          8           0       -1.671314   -2.546560   -0.091703
     34          8           0       -3.736204   -2.583289    0.612575
 ---------------------------------------------------------------------

 SCF Done:  E(RHF) =  -669.535541725     A.U. after   15 cycles
 E2 =    -0.2091749291D+01 EUMP2 =    -0.67162729101564D+03

 The electronic state is 1-A.
 Alpha  occ. eigenvalues --  -20.60775 -20.60769 -15.85827 -11.31187 -11.27758
 Alpha  occ. eigenvalues --  -11.27749 -11.27481 -11.26769 -11.26704 -11.22111
 Alpha  occ. eigenvalues --  -11.21838 -11.21830 -11.21641 -11.21563 -11.21034
 Alpha  occ. eigenvalues --   -1.59850  -1.39404  -1.19358  -1.08761  -1.08739
 Alpha  occ. eigenvalues --   -1.04761  -1.03845  -0.96329  -0.95587  -0.87360
 Alpha  occ. eigenvalues --   -0.86148  -0.82422  -0.79939  -0.78538  -0.77464
 Alpha  occ. eigenvalues --   -0.72045  -0.71173  -0.70459  -0.65379  -0.65005
 Alpha  occ. eigenvalues --   -0.64771  -0.62141  -0.61212  -0.59706  -0.57922
 Alpha  occ. eigenvalues --   -0.55641  -0.55249  -0.53172  -0.53034  -0.52968
 Alpha  occ. eigenvalues --   -0.52514  -0.50256  -0.48807  -0.48801  -0.48226
 Alpha  occ. eigenvalues --   -0.46949  -0.46082  -0.45969  -0.44811  -0.44095
 Alpha  occ. eigenvalues --   -0.37330  -0.36340
 Alpha virt. eigenvalues --    0.05040   0.11233   0.16422   0.20273   0.22728
 Alpha virt. eigenvalues --    0.24012   0.25031   0.26240   0.26975   0.28542
 Alpha virt. eigenvalues --    0.29618   0.30802   0.31142   0.31449   0.31863

 Mulliken charges:
               1
     1  C   -0.300540
     2  C   -0.298712
     3  C   -0.484290
     4  H    0.148276
     5  H    0.147701
     6  H    0.154198
     7  H    0.155746
     8  H    0.154773
     9  H    0.151546
    10  H    0.163071
    11  C   -0.298387
    12  C   -0.301461
    13  C   -0.476016
    14  H    0.149809
    15  H    0.152188
    16  H    0.150820
    17  H    0.157172
    18  H    0.156657
    19  H    0.154113
    20  H    0.162199
    21  C   -0.172374
    22  C   -0.218555
    23  C   -0.170685
    24  C    0.159027
    25  C   -0.175301
    26  C   -0.220619
    27  H    0.226170
    28  H    0.223447
    29  H    0.275581
    30  H    0.277551
    31  H    0.229996
    32  N    0.488015
    33  O   -0.460740
    34  O   -0.460377
 Sum of Mulliken charges =  -0.00000

 Dipole moment (field-independent basis, Debye):
    X=             -0.2654    Y=              5.1018    Z=             -0.7224  Tot=              5.1596
 Quadrupole moment (field-independent basis, Debye-Ang):
   XX=            -88.0983   YY=           -101.2764   ZZ=            -94.5276
   XY=            -13.8440   XZ=              0.1158   YZ=              0.0207

 Normal termination of Gaussian 16 at Wed May  5 23:28:02 2021.
