 Gaussian 16, Revision A.03,
 Gaussian 16:  EM64L-G16RevA.03 25-Dec-2016

 -------------
 #p 6-31g* mp2
 -------------

 ------------------------------------------------------
 Input file generated by CHIRIPA (05-May-2021 14:53:16)
 ------------------------------------------------------
 Symbolic Z-matrix:
 Charge =  0 Multiplicity = 1

                         Standard orientation:
 ---------------------------------------------------------------------
 Center     Atomic      Atomic             Coordinates (Angstroms)
 Number     Number       Type             X           Y           Z
 ---------------------------------------------------------------------
      1          6           0        3.666721    0.694974    0.474116
      2          6           0        3.778134    1.751472   -0.625603
      3          6           0        4.205525    3.118633   -0.090812
      4          1           0        2.946167    1.036225    1.229956
      5          1           0        4.635460    0.603553    0.984589
      6          1           0        2.809857    1.839884   -1.134760
      7          1           0        4.498364    1.407580   -1.379011
      8          1           0        5.181985    3.052292    0.399826
      9          1           0        3.483885    3.487052    0.645465
     10          1           0        4.278873    3.858767   -0.893733
     11          6           0        3.240356   -0.677092   -0.044899
     12          6           0        3.128944   -1.733590    1.054820
     13          6           0        2.701553   -3.100751    0.520028
     14          1           0        2.271618   -0.585671   -0.555372
     15          1           0        3.960911   -1.018342   -0.800739
     16          1           0        2.408714   -1.389698    1.808228
     17          1           0        4.097221   -1.822002    1.563976
     18          1           0        3.423193   -3.469170   -0.216249
     19          1           0        1.725093   -3.034409    0.029390
     20          1           0        2.628205   -3.840884    1.322950
     21          6           0       -4.347966    1.681696    0.722365
     22          6           0       -3.119826    2.107865    0.206060
     23          6           0       -2.198012    1.181058   -0.289760
     24          6           0       -2.538572   -0.170241   -0.253707
     25          6           0       -3.754076   -0.626025    0.254331
     26          6           0       -4.660620    0.318514    0.744812
     27          1           0       -5.058121    2.408549    1.105456
     28          1           0       -2.874326    3.165895    0.187361
     29          1           0       -1.240059    1.483472   -0.695085
     30          1           0       -3.970485   -1.687418    0.259632
     31          1           0       -5.613659   -0.015340    1.145193
     32          7           0       -1.570772   -1.160796   -0.775784
     33          8           0       -1.894712   -2.345637   -0.732760
     34          8           0       -0.506597   -0.733595   -1.218126
 ---------------------------------------------------------------------

 SCF Done:  E(RHF) =  -669.536593398     A.U. after   15 cycles
 E2 =    -0.2091477321D+01 EUMP2 =    -0.67162807071884D+03

 The electronic state is 1-A.
 Alpha  occ. eigenvalues --  -20.61081 -20.61074 -15.86099 -11.31372 -11.27931
 Alpha  occ. eigenvalues --  -11.27923 -11.27656 -11.26924 -11.26914 -11.21037
 Alpha  occ. eigenvalues --  -11.20731 -11.20629 -11.20528 -11.20118 -11.19749
 Alpha  occ. eigenvalues --   -1.60129  -1.39687  -1.19535  -1.08948  -1.07533
 Alpha  occ. eigenvalues --   -1.04923  -1.02675  -0.95797  -0.95111  -0.86326
 Alpha  occ. eigenvalues --   -0.86126  -0.82634  -0.78778  -0.77700  -0.77271
 Alpha  occ. eigenvalues --   -0.72321  -0.71438  -0.70643  -0.65193  -0.64925
 Alpha  occ. eigenvalues --   -0.64160  -0.62271  -0.60074  -0.58530  -0.56713
 Alpha  occ. eigenvalues --   -0.55429  -0.54389  -0.53257  -0.53014  -0.51855
 Alpha  occ. eigenvalues --   -0.51520  -0.49100  -0.49079  -0.49024  -0.47078
 Alpha  occ. eigenvalues --   -0.45825  -0.45235  -0.44860  -0.44496  -0.42902
 Alpha  occ. eigenvalues --   -0.37509  -0.36522
 Alpha virt. eigenvalues --    0.04799   0.11134   0.16280   0.21143   0.23546
 Alpha virt. eigenvalues --    0.25209   0.26785   0.27409   0.27910   0.28796
 Alpha virt. eigenvalues --    0.28998   0.31024   0.32094   0.32377   0.32549

 Mulliken charges:
               1
     1  C   -0.296522
     2  C   -0.298888
     3  C   -0.474904
     4  H    0.144474
     5  H    0.146164
     6  H    0.151650
     7  H    0.152369
     8  H    0.154925
     9  H    0.150974
    10  H    0.157695
    11  C   -0.311107
    12  C   -0.296702
    13  C   -0.480855
    14  H    0.177279
    15  H    0.146020
    16  H    0.146841
    17  H    0.145783
    18  H    0.151522
    19  H    0.174289
    20  H    0.154014
    21  C   -0.170410
    22  C   -0.218542
    23  C   -0.170597
    24  C    0.157813
    25  C   -0.170485
    26  C   -0.218580
    27  H    0.226358
    28  H    0.224245
    29  H    0.275402
    30  H    0.276104
    31  H    0.224140
    32  N    0.492053
    33  O   -0.458255
    34  O   -0.464268
 Sum of Mulliken charges =  -0.00000

 Dipole moment (field-independent basis, Debye):
    X=             -3.7655    Y=              3.4070    Z=              1.6958  Tot=              5.3537
 Quadrupole moment (field-independent basis, Debye-Ang):
   XX=            -75.7456   YY=            -94.9062   ZZ=            -96.5342
   XY=             -6.3896   XZ=             -5.4843   YZ=             -2.0856

 Normal termination of Gaussian 16 at Thu May  6 12:12:03 2021.
