 Gaussian 16, Revision A.03,
 Gaussian 16:  EM64L-G16RevA.03 25-Dec-2016

 -------------
 #p 6-31g* mp2
 -------------

 ------------------------------------------------------
 Input file generated by CHIRIPA (05-May-2021 14:51:09)
 ------------------------------------------------------
 Symbolic Z-matrix:
 Charge =  0 Multiplicity = 1

                         Standard orientation:
 ---------------------------------------------------------------------
 Center     Atomic      Atomic             Coordinates (Angstroms)
 Number     Number       Type             X           Y           Z
 ---------------------------------------------------------------------
      1          6           0        4.613650   -0.357808   -0.376012
      2          6           0        5.776715   -0.955288    0.416630
      3          6           0        6.828912   -1.608985   -0.479672
      4          1           0        4.144614   -1.147816   -0.978371
      5          1           0        5.005329    0.384811   -1.084884
      6          1           0        5.382811   -1.695561    1.124763
      7          1           0        6.242917   -0.163806    1.017319
      8          1           0        7.249422   -0.877144   -1.176940
      9          1           0        6.384429   -2.417603   -1.068886
     10          1           0        7.651221   -2.029535    0.107529
     11          6           0        3.553585    0.299314    0.506135
     12          6           0        2.390520    0.896794   -0.286507
     13          6           0        1.338323    1.550491    0.609795
     14          1           0        3.161906   -0.443305    1.215007
     15          1           0        4.022621    1.089322    1.108494
     16          1           0        1.924318    0.105312   -0.887196
     17          1           0        2.784424    1.637067   -0.994639
     18          1           0        1.782806    2.359109    1.199009
     19          1           0        0.917813    0.818650    1.307063
     20          1           0        0.516014    1.971041    0.022594
     21          6           0       -4.340198   -0.584540    0.310256
     22          6           0       -5.397841   -1.370996   -0.464899
     23          6           0       -5.901377   -2.596049    0.298966
     24          1           0       -3.495112   -1.247613    0.540711
     25          1           0       -4.761741   -0.268753    1.274608
     26          1           0       -4.974879   -1.684020   -1.428089
     27          1           0       -6.240423   -0.705924   -0.693701
     28          1           0       -6.348419   -2.298271    1.252949
     29          1           0       -5.075684   -3.281925    0.514388
     30          1           0       -6.656677   -3.143561   -0.273410
     31          6           0       -3.827036    0.643035   -0.440379
     32          6           0       -2.769394    1.429490    0.334776
     33          6           0       -2.265858    2.654543   -0.429089
     34          1           0       -3.405493    0.327247   -1.404731
     35          1           0       -4.672123    1.306107   -0.670834
     36          1           0       -1.926812    0.764418    0.563578
     37          1           0       -3.192356    1.742514    1.297965
     38          1           0       -3.091551    3.340419   -0.644511
     39          1           0       -1.818816    2.356765   -1.383072
     40          1           0       -1.510558    3.202055    0.143287
 ---------------------------------------------------------------------

 SCF Done:  E(RHF) =  -470.732683616     A.U. after   11 cycles
 E2 =    -0.1582915737D+01 EUMP2 =    -0.47231559935277D+03

 The electronic state is 1-A.
 Alpha  occ. eigenvalues --  -11.21599 -11.21597 -11.21586 -11.21553 -11.21396
 Alpha  occ. eigenvalues --  -11.21392 -11.21337 -11.21332 -11.21070 -11.21070
 Alpha  occ. eigenvalues --  -11.21057 -11.20976  -1.08432  -1.08406  -1.03567
 Alpha  occ. eigenvalues --   -1.03473  -0.96057  -0.95890  -0.87071  -0.86911
 Alpha  occ. eigenvalues --   -0.79584  -0.79581  -0.78244  -0.78217  -0.65083
 Alpha  occ. eigenvalues --   -0.65027  -0.61030  -0.60869  -0.59647  -0.59086
 Alpha  occ. eigenvalues --   -0.57717  -0.57423  -0.55316  -0.55212  -0.52934
 Alpha  occ. eigenvalues --   -0.52504  -0.52412  -0.52182  -0.49956  -0.49872
 Alpha  occ. eigenvalues --   -0.47946  -0.47838  -0.46692  -0.46537  -0.45791
 Alpha  occ. eigenvalues --   -0.45760  -0.45718  -0.45657  -0.43880  -0.43627
 Alpha virt. eigenvalues --    0.21763   0.23090   0.23543   0.25119   0.26316
 Alpha virt. eigenvalues --    0.26765   0.27096   0.27276   0.27693   0.28931
 Alpha virt. eigenvalues --    0.30960   0.31091   0.31612   0.31929   0.32237

 Mulliken charges:
               1
     1  C   -0.298193
     2  C   -0.299606
     3  C   -0.475686
     4  H    0.149451
     5  H    0.149512
     6  H    0.151877
     7  H    0.151958
     8  H    0.155184
     9  H    0.155117
    10  H    0.160241
    11  C   -0.298522
    12  C   -0.299164
    13  C   -0.485292
    14  H    0.149350
    15  H    0.149670
    16  H    0.151167
    17  H    0.151822
    18  H    0.154344
    19  H    0.154941
    20  H    0.172675
    21  C   -0.298213
    22  C   -0.299629
    23  C   -0.475688
    24  H    0.149383
    25  H    0.149570
    26  H    0.151856
    27  H    0.151976
    28  H    0.155200
    29  H    0.155071
    30  H    0.160232
    31  C   -0.298155
    32  C   -0.302406
    33  C   -0.480366
    34  H    0.149301
    35  H    0.149552
    36  H    0.155945
    37  H    0.151950
    38  H    0.156383
    39  H    0.154330
    40  H    0.162864
 Sum of Mulliken charges =  -0.00000

 Dipole moment (field-independent basis, Debye):
    X=             -0.0126    Y=              0.0213    Z=              0.0026  Tot=              0.0249
 Quadrupole moment (field-independent basis, Debye-Ang):
   XX=            -85.0575   YY=            -84.7271   ZZ=            -85.0886
   XY=              0.0349   XZ=              0.2399   YZ=              0.3265

 Normal termination of Gaussian 16 at Wed May  5 16:36:30 2021.
