 Gaussian 16, Revision A.03,
 Gaussian 16:  EM64L-G16RevA.03 25-Dec-2016

 -------------
 #p 6-31g* mp2
 -------------

 ------------------------------------------------------
 Input file generated by CHIRIPA (05-May-2021 14:57:26)
 ------------------------------------------------------
 Symbolic Z-matrix:
 Charge =  0 Multiplicity = 1

                         Standard orientation:
 ---------------------------------------------------------------------
 Center     Atomic      Atomic             Coordinates (Angstroms)
 Number     Number       Type             X           Y           Z
 ---------------------------------------------------------------------
      1          6           0        4.093654    2.517641    0.380579
      2          6           0        5.029078    1.775648   -0.348083
      3          6           0        4.833649    0.409323   -0.570599
      4          6           0        3.686482   -0.185525   -0.047671
      5          6           0        2.736206    0.526760    0.682340
      6          6           0        2.952215    1.891932    0.892562
      7          1           0        4.253462    3.578586    0.548660
      8          1           0        5.916452    2.258940   -0.746883
      9          1           0        5.541685   -0.188910   -1.131152
     10          1           0        1.861298    0.017155    1.067383
     11          1           0        2.224061    2.465678    1.458824
     12          7           0        3.468695   -1.631381   -0.276731
     13          8           0        2.449875   -2.131943    0.194523
     14          8           0        4.320938   -2.236704   -0.923185
     15          6           0       -5.891824    1.111403   -0.541549
     16          6           0       -5.898165   -0.230435   -0.146640
     17          6           0       -4.702133   -0.885581    0.161317
     18          6           0       -3.512641   -0.165318    0.063233
     19          6           0       -3.473618    1.172312   -0.327297
     20          6           0       -4.681705    1.807266   -0.630460
     21          1           0       -6.825613    1.612494   -0.778915
     22          1           0       -6.836464   -0.773345   -0.076712
     23          1           0       -4.678183   -1.923748    0.469625
     24          1           0       -2.522508    1.687240   -0.387747
     25          1           0       -4.673755    2.849422   -0.936881
     26          7           0       -2.240075   -0.848204    0.386716
     27          8           0       -1.205445   -0.191471    0.292487
     28          8           0       -2.301364   -2.027253    0.728365
 ---------------------------------------------------------------------

 SCF Done:  E(RHF) =  -868.337707459     A.U. after   16 cycles
 E2 =    -0.2599244269D+01 EUMP2 =    -0.87093695172847D+03

 The electronic state is 1-A.
 Alpha  occ. eigenvalues --  -20.60845 -20.60795 -20.59651 -20.59570 -15.85876
 Alpha  occ. eigenvalues --  -15.84667 -11.31273 -11.30147 -11.27873 -11.27817
 Alpha  occ. eigenvalues --  -11.27589 -11.26882 -11.26845 -11.26844 -11.26638
 Alpha  occ. eigenvalues --  -11.26600 -11.25896 -11.25793  -1.59874  -1.58696
 Alpha  occ. eigenvalues --   -1.39436  -1.38237  -1.19444  -1.18372  -1.08830
 Alpha  occ. eigenvalues --   -1.07769  -1.04856  -1.03785  -0.95661  -0.94563
 Alpha  occ. eigenvalues --   -0.86252  -0.85185  -0.82500  -0.81384  -0.77542
 Alpha  occ. eigenvalues --   -0.76382  -0.72098  -0.71199  -0.70880  -0.70555
 Alpha  occ. eigenvalues --   -0.70029  -0.69489  -0.65102  -0.64858  -0.64026
 Alpha  occ. eigenvalues --   -0.63806  -0.62206  -0.61096  -0.55351  -0.54344
 Alpha  occ. eigenvalues --   -0.53179  -0.52950  -0.52136  -0.51877  -0.48842
 Alpha  occ. eigenvalues --   -0.48809  -0.47680  -0.47611  -0.44836  -0.43616
 Alpha  occ. eigenvalues --   -0.37424  -0.36460  -0.36416  -0.35396
 Alpha virt. eigenvalues --    0.05000   0.06133   0.11194   0.12246   0.16484
 Alpha virt. eigenvalues --    0.17563   0.21307   0.22319   0.27219   0.28028
 Alpha virt. eigenvalues --    0.28351   0.29300   0.30883   0.31819   0.32428

 Mulliken charges:
               1
     1  C   -0.171682
     2  C   -0.219967
     3  C   -0.171658
     4  C    0.155394
     5  C   -0.171848
     6  C   -0.221649
     7  H    0.220709
     8  H    0.219147
     9  H    0.272815
    10  H    0.295944
    11  H    0.220791
    12  N    0.486541
    13  O   -0.449148
    14  O   -0.467607
    15  C   -0.170830
    16  C   -0.218436
    17  C   -0.170391
    18  C    0.158768
    19  C   -0.171086
    20  C   -0.218356
    21  H    0.225735
    22  H    0.224235
    23  H    0.277338
    24  H    0.272324
    25  H    0.222522
    26  N    0.490504
    27  O   -0.468185
    28  O   -0.451922
 Sum of Mulliken charges =  -0.00000

 Dipole moment (field-independent basis, Debye):
    X=             -4.1462    Y=              7.2390    Z=             -0.2398  Tot=              8.3458
 Quadrupole moment (field-independent basis, Debye-Ang):
   XX=            -64.8075   YY=           -105.0408   ZZ=           -105.0847
   XY=             13.0392   XZ=              3.8641   YZ=             -1.0883

 Normal termination of Gaussian 16 at Fri May  7 09:41:42 2021.
