 Gaussian 16, Revision A.03,
 Gaussian 16:  EM64L-G16RevA.03 25-Dec-2016

 -------------
 #p 6-31g* mp2
 -------------

 ------------------------------------------------------
 Input file generated by CHIRIPA (05-May-2021 14:51:09)
 ------------------------------------------------------
 Symbolic Z-matrix:
 Charge =  0 Multiplicity = 1

                         Standard orientation:
 ---------------------------------------------------------------------
 Center     Atomic      Atomic             Coordinates (Angstroms)
 Number     Number       Type             X           Y           Z
 ---------------------------------------------------------------------
      1          6           0       -3.797866   -0.374249   -0.483140
      2          6           0       -3.632642   -1.666548    0.317266
      3          6           0       -3.959890   -2.915305   -0.502068
      4          1           0       -4.829517   -0.310356   -0.855374
      5          1           0       -3.148065   -0.413813   -1.368346
      6          1           0       -4.281527   -1.623969    1.201433
      7          1           0       -2.601316   -1.727278    0.687800
      8          1           0       -3.304364   -2.985285   -1.376133
      9          1           0       -4.994121   -2.881389   -0.859581
     10          1           0       -3.835158   -3.827662    0.089462
     11          6           0       -3.474334    0.882817    0.322368
     12          6           0       -3.639557    2.175115   -0.478039
     13          6           0       -3.312310    3.423873    0.341295
     14          1           0       -4.124134    0.922381    1.207573
     15          1           0       -2.442683    0.818924    0.694602
     16          1           0       -4.670883    2.235846   -0.848572
     17          1           0       -2.990673    2.132537   -1.362206
     18          1           0       -2.278078    3.389957    0.698808
     19          1           0       -3.967836    3.493853    1.215360
     20          1           0       -3.437042    4.336230   -0.250234
     21          6           0        4.169045    0.069374   -0.360802
     22          6           0        5.544060    0.142470    0.304009
     23          6           0        6.599622    0.792474   -0.591020
     24          1           0        4.252529   -0.493974   -1.300277
     25          1           0        3.846398    1.084033   -0.632391
     26          1           0        5.863405   -0.871888    0.575513
     27          1           0        5.457255    0.705545    1.242107
     28          1           0        6.307069    1.814748   -0.851731
     29          1           0        6.715527    0.228352   -1.522113
     30          1           0        7.574911    0.834459   -0.096139
     31          6           0        3.103155   -0.577942    0.521575
     32          6           0        1.728139   -0.651037   -0.143237
     33          6           0        0.672578   -1.301042    0.751793
     34          1           0        3.425801   -1.592601    0.793164
     35          1           0        3.019671   -0.014594    1.461050
     36          1           0        1.814945   -1.214113   -1.081334
     37          1           0        1.408795    0.363320   -0.414740
     38          1           0        0.556673   -0.736921    1.682885
     39          1           0        0.965130   -2.323315    1.012503
     40          1           0       -0.302711   -1.343027    0.256911
 ---------------------------------------------------------------------

 SCF Done:  E(RHF) =  -470.733276372     A.U. after   11 cycles
 E2 =    -0.1582720378D+01 EUMP2 =    -0.47231599675005D+03

 The electronic state is 1-A.
 Alpha  occ. eigenvalues --  -11.21675 -11.21629 -11.21589 -11.21539 -11.21449
 Alpha  occ. eigenvalues --  -11.21389 -11.21382 -11.21322 -11.21148 -11.21093
 Alpha  occ. eigenvalues --  -11.21069 -11.21043  -1.08479  -1.08408  -1.03586
 Alpha  occ. eigenvalues --   -1.03505  -0.96034  -0.95959  -0.87060  -0.86969
 Alpha  occ. eigenvalues --   -0.79668  -0.79550  -0.78290  -0.78216  -0.65115
 Alpha  occ. eigenvalues --   -0.65058  -0.60978  -0.60948  -0.59427  -0.59284
 Alpha  occ. eigenvalues --   -0.57640  -0.57566  -0.55330  -0.55235  -0.52787
 Alpha  occ. eigenvalues --   -0.52630  -0.52458  -0.52376  -0.49972  -0.49897
 Alpha  occ. eigenvalues --   -0.47997  -0.47857  -0.46677  -0.46602  -0.45831
 Alpha  occ. eigenvalues --   -0.45764  -0.45749  -0.45686  -0.43793  -0.43739
 Alpha virt. eigenvalues --    0.20699   0.23036   0.24048   0.24602   0.26202
 Alpha virt. eigenvalues --    0.26665   0.27160   0.27523   0.27913   0.29188
 Alpha virt. eigenvalues --    0.30512   0.31403   0.31678   0.31768   0.32053

 Mulliken charges:
               1
     1  C   -0.298195
     2  C   -0.306983
     3  C   -0.475406
     4  H    0.149735
     5  H    0.148968
     6  H    0.152087
     7  H    0.158926
     8  H    0.154709
     9  H    0.155110
    10  H    0.160342
    11  C   -0.300055
    12  C   -0.299579
    13  C   -0.475621
    14  H    0.149534
    15  H    0.151419
    16  H    0.151930
    17  H    0.151832
    18  H    0.154882
    19  H    0.155212
    20  H    0.160181
    21  C   -0.298279
    22  C   -0.299672
    23  C   -0.475734
    24  H    0.149719
    25  H    0.149557
    26  H    0.152006
    27  H    0.152026
    28  H    0.155232
    29  H    0.155216
    30  H    0.160368
    31  C   -0.298687
    32  C   -0.299487
    33  C   -0.482514
    34  H    0.149754
    35  H    0.149799
    36  H    0.152119
    37  H    0.151669
    38  H    0.155611
    39  H    0.155868
    40  H    0.166402
 Sum of Mulliken charges =  -0.00000

 Dipole moment (field-independent basis, Debye):
    X=              0.0297    Y=             -0.0097    Z=              0.0129  Tot=              0.0338
 Quadrupole moment (field-independent basis, Debye-Ang):
   XX=            -84.5936   YY=            -85.1334   ZZ=            -85.0496
   XY=             -0.8940   XZ=             -0.0521   YZ=              0.1463

 Normal termination of Gaussian 16 at Wed May  5 15:08:19 2021.
