 Gaussian 16, Revision A.03,
 Gaussian 16:  EM64L-G16RevA.03 25-Dec-2016

 -------------
 #p 6-31g* mp2
 -------------

 ------------------------------------------------------
 Input file generated by CHIRIPA (05-May-2021 14:53:13)
 ------------------------------------------------------
 Symbolic Z-matrix:
 Charge =  0 Multiplicity = 1

                         Standard orientation:
 ---------------------------------------------------------------------
 Center     Atomic      Atomic             Coordinates (Angstroms)
 Number     Number       Type             X           Y           Z
 ---------------------------------------------------------------------
      1          6           0        2.658068    0.380342    0.207917
      2          6           0        2.912200   -1.096430   -0.096299
      3          6           0        3.898736   -1.739614    0.878818
      4          1           0        3.612377    0.923800    0.178060
      5          1           0        2.276010    0.475729    1.233748
      6          1           0        3.292357   -1.189129   -1.121728
      7          1           0        1.957149   -1.636401   -0.065903
      8          1           0        3.522549   -1.676590    1.905031
      9          1           0        4.865344   -1.226776    0.843207
     10          1           0        4.065849   -2.795222    0.642971
     11          6           0        1.673936    1.037291   -0.758328
     12          6           0        1.419804    2.514063   -0.454111
     13          6           0        0.433267    3.157246   -1.429229
     14          1           0        2.055994    0.941904   -1.784158
     15          1           0        0.719626    0.493833   -0.728471
     16          1           0        2.374855    3.054034   -0.484508
     17          1           0        1.039647    2.606762    0.571317
     18          1           0       -0.533341    2.644409   -1.393618
     19          1           0        0.809454    3.094222   -2.455442
     20          1           0        0.266154    4.212855   -1.193381
     21          6           0       -1.923748    1.202857    2.011276
     22          6           0       -1.255937    0.004842    2.285700
     23          6           0       -1.121652   -0.975517    1.298070
     24          6           0       -1.669803   -0.723586    0.041347
     25          6           0       -2.340750    0.459888   -0.262804
     26          6           0       -2.463073    1.426163    0.740140
     27          1           0       -2.023418    1.958954    2.784439
     28          1           0       -0.836090   -0.171304    3.271979
     29          1           0       -0.609588   -1.911925    1.483400
     30          1           0       -2.748740    0.606782   -1.255470
     31          1           0       -2.982221    2.355620    0.524176
     32          7           0       -1.533973   -1.753993   -1.012319
     33          8           0       -2.025787   -1.507814   -2.111478
     34          8           0       -0.938269   -2.788294   -0.719071
 ---------------------------------------------------------------------

 SCF Done:  E(RHF) =  -669.534591276     A.U. after   15 cycles
 E2 =    -0.2097089767D+01 EUMP2 =    -0.67163168104260D+03

 The electronic state is 1-A.
 Alpha  occ. eigenvalues --  -20.60977 -20.60971 -15.85999 -11.31354 -11.27951
 Alpha  occ. eigenvalues --  -11.27942 -11.27712 -11.27000 -11.26983 -11.21628
 Alpha  occ. eigenvalues --  -11.21324 -11.21265 -11.21181 -11.21165 -11.20934
 Alpha  occ. eigenvalues --   -1.60031  -1.39585  -1.19590  -1.08968  -1.08324
 Alpha  occ. eigenvalues --   -1.04987  -1.03447  -0.95922  -0.95793  -0.86946
 Alpha  occ. eigenvalues --   -0.86370  -0.82622  -0.79511  -0.78145  -0.77664
 Alpha  occ. eigenvalues --   -0.72223  -0.71364  -0.70668  -0.65230  -0.65006
 Alpha  occ. eigenvalues --   -0.64968  -0.62335  -0.60875  -0.59287  -0.57523
 Alpha  occ. eigenvalues --   -0.55468  -0.55260  -0.53309  -0.53057  -0.52618
 Alpha  occ. eigenvalues --   -0.52356  -0.49896  -0.48988  -0.48984  -0.47820
 Alpha  occ. eigenvalues --   -0.46564  -0.45651  -0.45642  -0.44897  -0.43692
 Alpha  occ. eigenvalues --   -0.37445  -0.36520
 Alpha virt. eigenvalues --    0.04784   0.10957   0.16203   0.20799   0.22974
 Alpha virt. eigenvalues --    0.23921   0.26347   0.26620   0.27372   0.27989
 Alpha virt. eigenvalues --    0.28720   0.30490   0.31215   0.31663   0.32033

 Mulliken charges:
               1
     1  C   -0.297428
     2  C   -0.305931
     3  C   -0.474966
     4  H    0.148518
     5  H    0.142908
     6  H    0.155336
     7  H    0.159502
     8  H    0.148612
     9  H    0.154255
    10  H    0.163586
    11  C   -0.302061
    12  C   -0.297582
    13  C   -0.478023
    14  H    0.152122
    15  H    0.153927
    16  H    0.151277
    17  H    0.147544
    18  H    0.152101
    19  H    0.158017
    20  H    0.155891
    21  C   -0.171750
    22  C   -0.216664
    23  C   -0.172210
    24  C    0.156612
    25  C   -0.173610
    26  C   -0.213813
    27  H    0.227102
    28  H    0.224834
    29  H    0.276758
    30  H    0.276967
    31  H    0.225735
    32  N    0.491180
    33  O   -0.458526
    34  O   -0.460220
 Sum of Mulliken charges =  -0.00000

 Dipole moment (field-independent basis, Debye):
    X=             -0.6482    Y=              3.4967    Z=              3.6786  Tot=              5.1165
 Quadrupole moment (field-independent basis, Debye-Ang):
   XX=            -92.3774   YY=            -99.3629   ZZ=            -92.7084
   XY=             -7.0685   XZ=             -5.7010   YZ=             -4.2298

 Normal termination of Gaussian 16 at Thu May  6 13:41:31 2021.
