 Gaussian 16, Revision A.03,
 Gaussian 16:  EM64L-G16RevA.03 25-Dec-2016

 -------------
 #p 6-31g* mp2
 -------------

 ------------------------------------------------------
 Input file generated by CHIRIPA (05-May-2021 14:57:21)
 ------------------------------------------------------
 Symbolic Z-matrix:
 Charge =  0 Multiplicity = 1

                         Standard orientation:
 ---------------------------------------------------------------------
 Center     Atomic      Atomic             Coordinates (Angstroms)
 Number     Number       Type             X           Y           Z
 ---------------------------------------------------------------------
      1          6           0       -1.693309    1.106039    0.050908
      2          6           0       -1.978094    0.058892   -0.831646
      3          6           0       -3.240938   -0.540888   -0.837803
      4          6           0       -4.199650   -0.066358    0.056056
      5          6           0       -3.946405    0.975091    0.947425
      6          6           0       -2.676639    1.559996    0.936066
      7          1           0       -0.709613    1.566185    0.048887
      8          1           0       -1.216370   -0.295714   -1.520177
      9          1           0       -3.488317   -1.353185   -1.510406
     10          1           0       -4.726200    1.306905    1.622138
     11          1           0       -2.458291    2.373053    1.622584
     12          7           0       -5.540230   -0.693445    0.058809
     13          8           0       -6.367573   -0.257085    0.856135
     14          8           0       -5.738249   -1.609442   -0.736411
     15          6           0        2.918167    2.159904   -0.699671
     16          6           0        4.165473    2.143632   -0.066834
     17          6           0        4.762546    0.932243    0.294535
     18          6           0        4.081235   -0.249380    0.006665
     19          6           0        2.837515   -0.265981   -0.622759
     20          6           0        2.259330    0.957166   -0.975129
     21          1           0        2.461682    3.105506   -0.976896
     22          1           0        4.679437    3.076151    0.148332
     23          1           0        5.727289    0.890696    0.785417
     24          1           0        2.349433   -1.211829   -0.824163
     25          1           0        1.290564    0.966767   -1.466498
     26          7           0        4.703332   -1.538048    0.384466
     27          8           0        4.082611   -2.565325    0.119805
     28          8           0        5.799871   -1.496427    0.938094
 ---------------------------------------------------------------------

 SCF Done:  E(RHF) =  -868.336301863     A.U. after   16 cycles
 E2 =    -0.2600359865D+01 EUMP2 =    -0.87093666172798D+03

 The electronic state is 1-A.
 Alpha  occ. eigenvalues --  -20.61447 -20.61440 -20.61119 -20.61114 -15.86510
 Alpha  occ. eigenvalues --  -15.86179 -11.32073 -11.31674 -11.28748 -11.28647
 Alpha  occ. eigenvalues --  -11.28516 -11.28291 -11.28250 -11.28104 -11.27877
 Alpha  occ. eigenvalues --  -11.27672 -11.27423 -11.27303  -1.60518  -1.60192
 Alpha  occ. eigenvalues --   -1.40066  -1.39741  -1.20291  -1.19879  -1.09654
 Alpha  occ. eigenvalues --   -1.09269  -1.05738  -1.05306  -0.96444  -0.96075
 Alpha  occ. eigenvalues --   -0.87137  -0.86715  -0.83284  -0.82902  -0.78296
 Alpha  occ. eigenvalues --   -0.77908  -0.72724  -0.72397  -0.71844  -0.71516
 Alpha  occ. eigenvalues --   -0.71399  -0.71048  -0.65950  -0.65863  -0.65528
 Alpha  occ. eigenvalues --   -0.65289  -0.63089  -0.62631  -0.56244  -0.55878
 Alpha  occ. eigenvalues --   -0.54020  -0.53832  -0.53619  -0.53411  -0.49499
 Alpha  occ. eigenvalues --   -0.49465  -0.49168  -0.49140  -0.45427  -0.45117
 Alpha  occ. eigenvalues --   -0.38287  -0.37894  -0.37327  -0.36900
 Alpha virt. eigenvalues --    0.04271   0.04638   0.10141   0.10732   0.15663
 Alpha virt. eigenvalues --    0.16081   0.17915   0.22083   0.24436   0.26228
 Alpha virt. eigenvalues --    0.27892   0.29035   0.29726   0.30772   0.31918

 Mulliken charges:
               1
     1  C   -0.172017
     2  C   -0.220374
     3  C   -0.169079
     4  C    0.158951
     5  C   -0.169598
     6  C   -0.218468
     7  H    0.221184
     8  H    0.216321
     9  H    0.277821
    10  H    0.277504
    11  H    0.224564
    12  N    0.487990
    13  O   -0.458924
    14  O   -0.458810
    15  C   -0.172940
    16  C   -0.218084
    17  C   -0.168734
    18  C    0.159002
    19  C   -0.169327
    20  C   -0.224655
    21  H    0.226479
    22  H    0.226673
    23  H    0.278996
    24  H    0.276176
    25  H    0.217409
    26  N    0.488074
    27  O   -0.458467
    28  O   -0.457667
 Sum of Mulliken charges =  -0.00000

 Dipole moment (field-independent basis, Debye):
    X=              2.6577    Y=              6.6903    Z=             -1.2114  Tot=              7.3001
 Quadrupole moment (field-independent basis, Debye-Ang):
   XX=           -157.5110   YY=           -105.0130   ZZ=           -102.6356
   XY=             10.8891   XZ=             -4.6329   YZ=              4.3257

 Normal termination of Gaussian 16 at Thu May  6 12:48:12 2021.
