 Gaussian 16, Revision A.03,
 Gaussian 16:  EM64L-G16RevA.03 25-Dec-2016

 -------------
 #p 6-31g* mp2
 -------------

 ------------------------------------------------------
 Input file generated by CHIRIPA (05-May-2021 14:57:21)
 ------------------------------------------------------
 Symbolic Z-matrix:
 Charge =  0 Multiplicity = 1

                         Standard orientation:
 ---------------------------------------------------------------------
 Center     Atomic      Atomic             Coordinates (Angstroms)
 Number     Number       Type             X           Y           Z
 ---------------------------------------------------------------------
      1          6           0       -2.752102    2.389428   -0.157573
      2          6           0       -3.877907    1.946910    0.544753
      3          6           0       -4.232460    0.594579    0.538409
      4          6           0       -3.435161   -0.291807   -0.184035
      5          6           0       -2.307566    0.118335   -0.893684
      6          6           0       -1.971900    1.475340   -0.873289
      7          1           0       -2.484013    3.441767   -0.147188
      8          1           0       -4.485669    2.654552    1.101452
      9          1           0       -5.098789    0.224865    1.073388
     10          1           0       -1.721175   -0.610801   -1.439508
     11          1           0       -1.097037    1.816161   -1.419640
     12          7           0       -3.800513   -1.725933   -0.198189
     13          8           0       -3.081666   -2.486810   -0.842365
     14          8           0       -4.798804   -2.061968    0.435161
     15          6           0        1.163195    1.174222    0.653311
     16          6           0        1.400624   -0.126917    1.108487
     17          6           0        2.622395   -0.756633    0.852982
     18          6           0        3.588771   -0.052714    0.136109
     19          6           0        3.382245    1.244498   -0.330667
     20          6           0        2.153019    1.854578   -0.063549
     21          1           0        0.211198    1.655774    0.856304
     22          1           0        0.633747   -0.657700    1.665454
     23          1           0        2.832702   -1.763178    1.193651
     24          1           0        4.166011    1.748208   -0.883301
     25          1           0        1.971405    2.865138   -0.418272
     26          7           0        4.886152   -0.708972   -0.140529
     27          8           0        5.721231   -0.067374   -0.774273
     28          8           0        5.043393   -1.852519    0.281622
 ---------------------------------------------------------------------

 SCF Done:  E(RHF) =  -868.336349794     A.U. after   16 cycles
 E2 =    -0.2601983442D+01 EUMP2 =    -0.87093833323666D+03

 The electronic state is 1-A.
 Alpha  occ. eigenvalues --  -20.61536 -20.61530 -20.60998 -20.60984 -15.86593
 Alpha  occ. eigenvalues --  -15.86053 -11.32151 -11.31515 -11.28703 -11.28685
 Alpha  occ. eigenvalues --  -11.28524 -11.28160 -11.28073 -11.27808 -11.27785
 Alpha  occ. eigenvalues --  -11.27759 -11.27218 -11.27066  -1.60610  -1.60068
 Alpha  occ. eigenvalues --   -1.40156  -1.39618  -1.20351  -1.19718  -1.09726
 Alpha  occ. eigenvalues --   -1.09096  -1.05757  -1.05132  -0.96507  -0.95910
 Alpha  occ. eigenvalues --   -0.87158  -0.86527  -0.83324  -0.82727  -0.78333
 Alpha  occ. eigenvalues --   -0.77759  -0.72802  -0.72267  -0.71945  -0.71431
 Alpha  occ. eigenvalues --   -0.71395  -0.70854  -0.65981  -0.65756  -0.65353
 Alpha  occ. eigenvalues --   -0.65134  -0.63063  -0.62468  -0.56270  -0.55797
 Alpha  occ. eigenvalues --   -0.54001  -0.53844  -0.53375  -0.53215  -0.49578
 Alpha  occ. eigenvalues --   -0.49548  -0.49036  -0.49016  -0.45517  -0.45002
 Alpha  occ. eigenvalues --   -0.38405  -0.37999  -0.37036  -0.36725
 Alpha virt. eigenvalues --    0.04092   0.04818   0.10101   0.10882   0.15420
 Alpha virt. eigenvalues --    0.16442   0.20027   0.21524   0.25895   0.27118
 Alpha virt. eigenvalues --    0.27269   0.28678   0.29876   0.31097   0.31551

 Mulliken charges:
               1
     1  C   -0.176866
     2  C   -0.217616
     3  C   -0.170966
     4  C    0.157672
     5  C   -0.172311
     6  C   -0.227991
     7  H    0.226309
     8  H    0.226915
     9  H    0.278720
    10  H    0.280819
    11  H    0.227255
    12  N    0.487492
    13  O   -0.457627
    14  O   -0.457648
    15  C   -0.175976
    16  C   -0.222391
    17  C   -0.169448
    18  C    0.158082
    19  C   -0.169711
    20  C   -0.224882
    21  H    0.229018
    22  H    0.228112
    23  H    0.279005
    24  H    0.276135
    25  H    0.218282
    26  N    0.488072
    27  O   -0.460404
    28  O   -0.458049
 Sum of Mulliken charges =  -0.00000

 Dipole moment (field-independent basis, Debye):
    X=             -3.4478    Y=              7.1436    Z=              1.0475  Tot=              8.0010
 Quadrupole moment (field-independent basis, Debye-Ang):
   XX=           -142.7696   YY=           -105.4142   ZZ=           -102.7602
   XY=             -8.8925   XZ=             -0.9717   YZ=             -2.3318

 Normal termination of Gaussian 16 at Wed May  5 19:15:25 2021.
