 Gaussian 16, Revision A.03,
 Gaussian 16:  EM64L-G16RevA.03 25-Dec-2016

 -------------
 #p 6-31g* mp2
 -------------

 ------------------------------------------------------
 Input file generated by CHIRIPA (05-May-2021 14:53:18)
 ------------------------------------------------------
 Symbolic Z-matrix:
 Charge =  0 Multiplicity = 1

                         Standard orientation:
 ---------------------------------------------------------------------
 Center     Atomic      Atomic             Coordinates (Angstroms)
 Number     Number       Type             X           Y           Z
 ---------------------------------------------------------------------
      1          6           0        2.329673   -0.467999    0.674943
      2          6           0        1.770996    0.002983    2.018089
      3          6           0        0.345007   -0.487810    2.270025
      4          1           0        1.671727   -0.117253   -0.131920
      5          1           0        2.307515   -1.566075    0.641263
      6          1           0        1.795487    1.099803    2.049774
      7          1           0        2.430454   -0.348762    2.821835
      8          1           0        0.307692   -1.581969    2.265275
      9          1           0       -0.330882   -0.125174    1.488827
     10          1           0       -0.034702   -0.139592    3.235647
     11          6           0        3.754424    0.014611    0.408672
     12          6           0        4.313101   -0.456372   -0.934474
     13          6           0        5.739090    0.034421   -1.186410
     14          1           0        3.776583    1.112686    0.442353
     15          1           0        4.412371   -0.336135    1.215535
     16          1           0        3.653644   -0.104626   -1.738219
     17          1           0        4.288610   -1.553191   -0.966159
     18          1           0        6.414979   -0.328214   -0.405212
     19          1           0        5.776405    1.128581   -1.181659
     20          1           0        6.118800   -0.313797   -2.152031
     21          6           0       -3.217795   -2.201306   -0.461686
     22          6           0       -3.956471   -1.207990    0.189622
     23          6           0       -3.500010    0.113157    0.217246
     24          6           0       -2.295277    0.407041   -0.419575
     25          6           0       -1.536634   -0.560357   -1.076759
     26          6           0       -2.012360   -1.874896   -1.091687
     27          1           0       -3.579868   -3.225038   -0.478213
     28          1           0       -4.892973   -1.458587    0.679734
     29          1           0       -4.051853    0.901798    0.714169
     30          1           0       -0.606715   -0.280019   -1.556425
     31          1           0       -1.436598   -2.644259   -1.598266
     32          7           0       -1.801844    1.802182   -0.397051
     33          8           0       -0.737407    2.035318   -0.965608
     34          8           0       -2.488873    2.636139    0.188734
 ---------------------------------------------------------------------

 SCF Done:  E(RHF) =  -669.534430208     A.U. after   15 cycles
 E2 =    -0.2094263797D+01 EUMP2 =    -0.67162869400425D+03

 The electronic state is 1-A.
 Alpha  occ. eigenvalues --  -20.60892 -20.60886 -15.85920 -11.31196 -11.27801
 Alpha  occ. eigenvalues --  -11.27778 -11.27542 -11.26805 -11.26791 -11.21445
 Alpha  occ. eigenvalues --  -11.21295 -11.21194 -11.21110 -11.20893 -11.20816
 Alpha  occ. eigenvalues --   -1.59956  -1.39511  -1.19417  -1.08821  -1.08202
 Alpha  occ. eigenvalues --   -1.04803  -1.03311  -0.95775  -0.95657  -0.86798
 Alpha  occ. eigenvalues --   -0.86209  -0.82488  -0.79388  -0.78057  -0.77531
 Alpha  occ. eigenvalues --   -0.72146  -0.71302  -0.70522  -0.65069  -0.64874
 Alpha  occ. eigenvalues --   -0.64741  -0.62154  -0.60710  -0.59145  -0.57418
 Alpha  occ. eigenvalues --   -0.55310  -0.55139  -0.53272  -0.52900  -0.52465
 Alpha  occ. eigenvalues --   -0.52071  -0.49697  -0.48911  -0.48896  -0.47688
 Alpha  occ. eigenvalues --   -0.46406  -0.45606  -0.45491  -0.44855  -0.43567
 Alpha  occ. eigenvalues --   -0.37323  -0.36364
 Alpha virt. eigenvalues --    0.04936   0.11173   0.16457   0.20976   0.23070
 Alpha virt. eigenvalues --    0.24472   0.25531   0.27196   0.27743   0.28037
 Alpha virt. eigenvalues --    0.29124   0.30957   0.31655   0.31980   0.32010

 Mulliken charges:
               1
     1  C   -0.302528
     2  C   -0.299202
     3  C   -0.478453
     4  H    0.153808
     5  H    0.143091
     6  H    0.160146
     7  H    0.149769
     8  H    0.150123
     9  H    0.157409
    10  H    0.160232
    11  C   -0.298155
    12  C   -0.299888
    13  C   -0.475696
    14  H    0.155558
    15  H    0.148383
    16  H    0.152423
    17  H    0.148079
    18  H    0.154471
    19  H    0.157755
    20  H    0.158988
    21  C   -0.170685
    22  C   -0.217381
    23  C   -0.171140
    24  C    0.153887
    25  C   -0.172923
    26  C   -0.215333
    27  H    0.225881
    28  H    0.223699
    29  H    0.275781
    30  H    0.277229
    31  H    0.224085
    32  N    0.492225
    33  O   -0.462337
    34  O   -0.459301
 Sum of Mulliken charges =  -0.00000

 Dipole moment (field-independent basis, Debye):
    X=             -1.8232    Y=             -4.8087    Z=             -0.0935  Tot=              5.1436
 Quadrupole moment (field-independent basis, Debye-Ang):
   XX=            -84.6049   YY=            -98.3384   ZZ=            -93.9833
   XY=              9.3399   XZ=             -1.0706   YZ=              2.7833

 Normal termination of Gaussian 16 at Thu May  6 14:00:14 2021.
