 Gaussian 16, Revision A.03,
 Gaussian 16:  EM64L-G16RevA.03 25-Dec-2016

 -------------
 #p 6-31g* mp2
 -------------

 ------------------------------------------------------
 Input file generated by CHIRIPA (05-May-2021 14:57:25)
 ------------------------------------------------------
 Symbolic Z-matrix:
 Charge =  0 Multiplicity = 1

                         Standard orientation:
 ---------------------------------------------------------------------
 Center     Atomic      Atomic             Coordinates (Angstroms)
 Number     Number       Type             X           Y           Z
 ---------------------------------------------------------------------
      1          6           0        1.402607    2.253870   -1.110985
      2          6           0        2.767563    2.272976   -0.805939
      3          6           0        3.398508    1.131704   -0.302000
      4          6           0        2.630732   -0.016639   -0.114598
      5          6           0        1.269089   -0.067063   -0.409006
      6          6           0        0.659038    1.085971   -0.911896
      7          1           0        0.920589    3.145006   -1.502050
      8          1           0        3.347520    3.178570   -0.959541
      9          1           0        4.453707    1.118799   -0.057446
     10          1           0        0.717213   -0.984680   -0.245211
     11          1           0       -0.401162    1.068230   -1.147919
     12          7           0        3.287626   -1.231078    0.418344
     13          8           0        2.589050   -2.230210    0.574430
     14          8           0        4.488637   -1.160828    0.669887
     15          6           0       -2.503573    2.035779    1.402559
     16          6           0       -3.133651    1.917611    0.159353
     17          6           0       -3.150313    0.692863   -0.514638
     18          6           0       -2.524295   -0.398068    0.086410
     19          6           0       -1.888257   -0.312099    1.323890
     20          6           0       -1.883979    0.922508    1.979841
     21          1           0       -2.495440    2.991022    1.919124
     22          1           0       -3.615641    2.780504   -0.291366
     23          1           0       -3.630797    0.573356   -1.478105
     24          1           0       -1.416265   -1.190055    1.747960
     25          1           0       -1.393887    1.011342    2.945223
     26          7           0       -2.535379   -1.699874   -0.617565
     27          8           0       -1.976698   -2.645974   -0.066742
     28          8           0       -3.102537   -1.749478   -1.706834
 ---------------------------------------------------------------------

 SCF Done:  E(RHF) =  -868.336073006     A.U. after   16 cycles
 E2 =    -0.2605314698D+01 EUMP2 =    -0.87094138770407D+03

 The electronic state is 1-A.
 Alpha  occ. eigenvalues --  -20.61592 -20.61554 -20.60612 -20.60589 -15.86598
 Alpha  occ. eigenvalues --  -15.85652 -11.32103 -11.31072 -11.28704 -11.28593
 Alpha  occ. eigenvalues --  -11.28397 -11.27753 -11.27648 -11.27617 -11.27543
 Alpha  occ. eigenvalues --  -11.27395 -11.26714 -11.26523  -1.60642  -1.59683
 Alpha  occ. eigenvalues --   -1.40183  -1.39231  -1.20340  -1.19237  -1.09663
 Alpha  occ. eigenvalues --   -1.08637  -1.05706  -1.04643  -0.96464  -0.95463
 Alpha  occ. eigenvalues --   -0.87082  -0.86040  -0.83260  -0.82294  -0.78305
 Alpha  occ. eigenvalues --   -0.77343  -0.72785  -0.72029  -0.71852  -0.71342
 Alpha  occ. eigenvalues --   -0.71015  -0.70354  -0.65918  -0.65643  -0.64890
 Alpha  occ. eigenvalues --   -0.64689  -0.63007  -0.62049  -0.56142  -0.55257
 Alpha  occ. eigenvalues --   -0.54199  -0.53731  -0.52950  -0.52424  -0.49574
 Alpha  occ. eigenvalues --   -0.49556  -0.48634  -0.48617  -0.45517  -0.44625
 Alpha  occ. eigenvalues --   -0.38332  -0.37526  -0.37235  -0.35999
 Alpha virt. eigenvalues --    0.04086   0.05254   0.10201   0.11431   0.15627
 Alpha virt. eigenvalues --    0.16684   0.20606   0.21616   0.26404   0.27032
 Alpha virt. eigenvalues --    0.27752   0.28294   0.30450   0.30893   0.31636

 Mulliken charges:
               1
     1  C   -0.175764
     2  C   -0.218828
     3  C   -0.172622
     4  C    0.157006
     5  C   -0.181358
     6  C   -0.217573
     7  H    0.221700
     8  H    0.221556
     9  H    0.274665
    10  H    0.280548
    11  H    0.229826
    12  N    0.487147
    13  O   -0.456497
    14  O   -0.462153
    15  C   -0.171231
    16  C   -0.219187
    17  C   -0.185649
    18  C    0.152804
    19  C   -0.176300
    20  C   -0.212359
    21  H    0.228909
    22  H    0.225814
    23  H    0.278157
    24  H    0.284816
    25  H    0.230080
    26  N    0.486425
    27  O   -0.452851
    28  O   -0.457081
 Sum of Mulliken charges =  -0.00000

 Dipole moment (field-independent basis, Debye):
    X=             -2.5484    Y=              8.7073    Z=              0.8268  Tot=              9.1101
 Quadrupole moment (field-independent basis, Debye-Ang):
   XX=           -112.8250   YY=           -107.3485   ZZ=           -101.8549
   XY=              0.7580   XZ=             -8.8538   YZ=             -2.4511

 Normal termination of Gaussian 16 at Fri May  7 11:09:12 2021.
