 Gaussian 16, Revision A.03,
 Gaussian 16:  EM64L-G16RevA.03 25-Dec-2016

 -------------
 #p 6-31g* mp2
 -------------

 ------------------------------------------------------
 Input file generated by CHIRIPA (05-May-2021 14:53:17)
 ------------------------------------------------------
 Symbolic Z-matrix:
 Charge =  0 Multiplicity = 1

                         Standard orientation:
 ---------------------------------------------------------------------
 Center     Atomic      Atomic             Coordinates (Angstroms)
 Number     Number       Type             X           Y           Z
 ---------------------------------------------------------------------
      1          6           0       -3.714416   -0.303751    0.066478
      2          6           0       -4.327192    1.078544   -0.161013
      3          6           0       -5.632028    1.023170   -0.956078
      4          1           0       -3.532997   -0.781928   -0.905828
      5          1           0       -4.440557   -0.936524    0.595357
      6          1           0       -3.599593    1.708952   -0.688081
      7          1           0       -4.506996    1.553563    0.811943
      8          1           0       -6.377399    0.416750   -0.431409
      9          1           0       -5.464840    0.573022   -1.939956
     10          1           0       -6.052811    2.022162   -1.107134
     11          6           0       -2.409525   -0.264846    0.859871
     12          6           0       -1.796749   -1.647141    1.087362
     13          6           0       -0.491913   -1.591767    1.882427
     14          1           0       -1.683384    0.367927    0.330992
     15          1           0       -2.590944    0.213331    1.832177
     16          1           0       -1.616945   -2.122160    0.114406
     17          1           0       -2.524349   -2.277549    1.614430
     18          1           0       -0.659102   -1.141619    2.866305
     19          1           0        0.253458   -0.985347    1.357758
     20          1           0       -0.071130   -2.590759    2.033483
     21          6           0        2.803774    2.524752    0.583838
     22          6           0        1.732643    2.307745   -0.289149
     23          6           0        1.495093    1.036064   -0.819194
     24          6           0        2.352372   -0.000503   -0.453281
     25          6           0        3.427928    0.184032    0.414138
     26          6           0        3.646512    1.464072    0.932081
     27          1           0        2.980942    3.515870    0.990889
     28          1           0        1.076529    3.129612   -0.561352
     29          1           0        0.673237    0.840116   -1.497114
     30          1           0        4.064786   -0.654945    0.667014
     31          1           0        4.479140    1.629674    1.609836
     32          7           0        2.110928   -1.351199   -1.008010
     33          8           0        2.880703   -2.247785   -0.670049
     34          8           0        1.156481   -1.487713   -1.770265
 ---------------------------------------------------------------------

 SCF Done:  E(RHF) =  -669.535517321     A.U. after   15 cycles
 E2 =    -0.2093406615D+01 EUMP2 =    -0.67162892393617D+03

 The electronic state is 1-A.
 Alpha  occ. eigenvalues --  -20.60870 -20.60864 -15.85907 -11.31256 -11.27836
 Alpha  occ. eigenvalues --  -11.27823 -11.27563 -11.26851 -11.26837 -11.21600
 Alpha  occ. eigenvalues --  -11.21228 -11.21171 -11.21091 -11.21041 -11.20671
 Alpha  occ. eigenvalues --   -1.59933  -1.39487  -1.19446  -1.08839  -1.08226
 Alpha  occ. eigenvalues --   -1.04840  -1.03303  -0.95774  -0.95671  -0.86796
 Alpha  occ. eigenvalues --   -0.86238  -0.82502  -0.79383  -0.78037  -0.77551
 Alpha  occ. eigenvalues --   -0.72130  -0.71280  -0.70541  -0.65094  -0.64888
 Alpha  occ. eigenvalues --   -0.64803  -0.62186  -0.60697  -0.59139  -0.57377
 Alpha  occ. eigenvalues --   -0.55335  -0.55098  -0.53204  -0.52929  -0.52452
 Alpha  occ. eigenvalues --   -0.52173  -0.49732  -0.48890  -0.48885  -0.47695
 Alpha  occ. eigenvalues --   -0.46414  -0.45595  -0.45484  -0.44865  -0.43562
 Alpha  occ. eigenvalues --   -0.37374  -0.36426
 Alpha virt. eigenvalues --    0.04939   0.11148   0.16426   0.20948   0.22908
 Alpha virt. eigenvalues --    0.24367   0.25987   0.27326   0.27812   0.27940
 Alpha virt. eigenvalues --    0.28974   0.30837   0.31522   0.32058   0.32093

 Mulliken charges:
               1
     1  C   -0.299342
     2  C   -0.298158
     3  C   -0.475662
     4  H    0.154055
     5  H    0.150127
     6  H    0.146340
     7  H    0.150700
     8  H    0.156033
     9  H    0.156540
    10  H    0.158655
    11  C   -0.296914
    12  C   -0.302915
    13  C   -0.478233
    14  H    0.142550
    15  H    0.146814
    16  H    0.166629
    17  H    0.150232
    18  H    0.150999
    19  H    0.150453
    20  H    0.166172
    21  C   -0.170672
    22  C   -0.217326
    23  C   -0.172074
    24  C    0.155377
    25  C   -0.171396
    26  C   -0.217608
    27  H    0.226094
    28  H    0.224152
    29  H    0.275672
    30  H    0.276184
    31  H    0.223964
    32  N    0.493031
    33  O   -0.459129
    34  O   -0.461343
 Sum of Mulliken charges =  -0.00000

 Dipole moment (field-independent basis, Debye):
    X=              0.9536    Y=              4.6508    Z=              1.8996  Tot=              5.1135
 Quadrupole moment (field-independent basis, Debye-Ang):
   XX=            -88.4143   YY=            -94.4541   ZZ=            -95.6157
   XY=             10.2599   XZ=              5.7953   YZ=             -3.0792

 Normal termination of Gaussian 16 at Thu May  6 17:17:17 2021.
