 Gaussian 16, Revision A.03,
 Gaussian 16:  EM64L-G16RevA.03 25-Dec-2016

 -------------
 #p 6-31g* mp2
 -------------

 ------------------------------------------------------
 Input file generated by CHIRIPA (05-May-2021 14:55:20)
 ------------------------------------------------------
 Symbolic Z-matrix:
 Charge =  0 Multiplicity = 1

                         Standard orientation:
 ---------------------------------------------------------------------
 Center     Atomic      Atomic             Coordinates (Angstroms)
 Number     Number       Type             X           Y           Z
 ---------------------------------------------------------------------
      1          6           0       -3.499190    2.434167    0.801667
      2          6           0       -2.493009    1.656172    1.383771
      3          6           0       -2.207280    0.379785    0.890068
      4          6           0       -2.950671   -0.089392   -0.191844
      5          6           0       -3.959302    0.661713   -0.793337
      6          6           0       -4.227840    1.935334   -0.283117
      7          1           0       -3.714475    3.424621    1.191603
      8          1           0       -1.925519    2.040999    2.226331
      9          1           0       -1.433753   -0.243716    1.321717
     10          1           0       -4.508028    0.250984   -1.632157
     11          1           0       -5.009822    2.537313   -0.737177
     12          7           0       -2.657281   -1.439182   -0.723248
     13          8           0       -3.326541   -1.829635   -1.677331
     14          8           0       -1.763617   -2.081135   -0.175618
     15          6           0        3.109007   -0.390462    0.182921
     16          6           0        2.883787   -1.522483    1.185812
     17          6           0        1.418949   -1.951849    1.273494
     18          1           0        2.489264    0.471078    0.466844
     19          1           0        2.760584   -0.713123   -0.807979
     20          1           0        3.233805   -1.198285    2.174245
     21          1           0        3.504284   -2.381360    0.899579
     22          1           0        1.060881   -2.300974    0.299584
     23          1           0        0.788865   -1.111177    1.581493
     24          1           0        1.280653   -2.762085    1.996164
     25          6           0        4.568496    0.049804    0.083988
     26          6           0        4.793716    1.181825   -0.918901
     27          6           0        6.258554    1.611192   -1.006583
     28          1           0        4.916920    0.372465    1.074890
     29          1           0        5.188240   -0.811736   -0.199933
     30          1           0        4.173220    2.040703   -0.632668
     31          1           0        4.443698    0.857627   -1.907333
     32          1           0        6.888639    0.770518   -1.314581
     33          1           0        6.616623    1.960316   -0.032673
     34          1           0        6.396851    2.421428   -1.729253
 ---------------------------------------------------------------------

 SCF Done:  E(RHF) =  -669.535173669     A.U. after   15 cycles
 E2 =    -0.2091842277D+01 EUMP2 =    -0.67162701594615D+03

 The electronic state is 1-A.
 Alpha  occ. eigenvalues --  -20.60789 -20.60784 -15.85830 -11.31181 -11.27758
 Alpha  occ. eigenvalues --  -11.27727 -11.27504 -11.26773 -11.26761 -11.21495
 Alpha  occ. eigenvalues --  -11.21231 -11.21212 -11.21123 -11.20994 -11.20447
 Alpha  occ. eigenvalues --   -1.59862  -1.39415  -1.19358  -1.08759  -1.08206
 Alpha  occ. eigenvalues --   -1.04761  -1.03259  -0.95723  -0.95566  -0.86705
 Alpha  occ. eigenvalues --   -0.86158  -0.82430  -0.79335  -0.78034  -0.77446
 Alpha  occ. eigenvalues --   -0.72056  -0.71180  -0.70477  -0.65016  -0.64865
 Alpha  occ. eigenvalues --   -0.64754  -0.62136  -0.60652  -0.59079  -0.57302
 Alpha  occ. eigenvalues --   -0.55296  -0.54964  -0.53090  -0.52886  -0.52368
 Alpha  occ. eigenvalues --   -0.52072  -0.49634  -0.48823  -0.48807  -0.47603
 Alpha  occ. eigenvalues --   -0.46370  -0.45566  -0.45482  -0.44774  -0.43519
 Alpha  occ. eigenvalues --   -0.37342  -0.36362
 Alpha virt. eigenvalues --    0.05038   0.11276   0.16517   0.20851   0.23083
 Alpha virt. eigenvalues --    0.24290   0.25797   0.27133   0.27718   0.27817
 Alpha virt. eigenvalues --    0.29385   0.30634   0.31497   0.32015   0.32381

 Mulliken charges:
               1
     1  C   -0.170394
     2  C   -0.221891
     3  C   -0.176214
     4  C    0.155442
     5  C   -0.170054
     6  C   -0.219009
     7  H    0.225570
     8  H    0.223431
     9  H    0.288830
    10  H    0.275556
    11  H    0.223401
    12  N    0.489612
    13  O   -0.460404
    14  O   -0.462147
    15  C   -0.297213
    16  C   -0.301497
    17  C   -0.473479
    18  H    0.143587
    19  H    0.153174
    20  H    0.147175
    21  H    0.152901
    22  H    0.177667
    23  H    0.137647
    24  H    0.160304
    25  C   -0.297889
    26  C   -0.299285
    27  C   -0.475529
    28  H    0.147818
    29  H    0.150610
    30  H    0.149606
    31  H    0.153050
    32  H    0.155822
    33  H    0.154273
    34  H    0.159527
 Sum of Mulliken charges =  -0.00000

 Dipole moment (field-independent basis, Debye):
    X=             -1.1145    Y=              4.6061    Z=              1.7668  Tot=              5.0577
 Quadrupole moment (field-independent basis, Debye-Ang):
   XX=            -87.8916   YY=            -95.5632   ZZ=            -93.2701
   XY=            -15.4235   XZ=             -2.6735   YZ=             -0.7990

 Normal termination of Gaussian 16 at Wed May  5 22:10:00 2021.
