 Gaussian 16, Revision A.03,
 Gaussian 16:  EM64L-G16RevA.03 25-Dec-2016

 -------------
 #p 6-31g* mp2
 -------------

 ------------------------------------------------------
 Input file generated by CHIRIPA (05-May-2021 14:53:13)
 ------------------------------------------------------
 Symbolic Z-matrix:
 Charge =  0 Multiplicity = 1

                         Standard orientation:
 ---------------------------------------------------------------------
 Center     Atomic      Atomic             Coordinates (Angstroms)
 Number     Number       Type             X           Y           Z
 ---------------------------------------------------------------------
      1          6           0        2.855096   -0.670963   -0.564405
      2          6           0        1.690139   -1.338296    0.167392
      3          6           0        0.549798   -1.732150   -0.771913
      4          1           0        2.486943    0.220504   -1.090421
      5          1           0        3.234246   -1.355007   -1.336237
      6          1           0        1.314194   -0.653742    0.938540
      7          1           0        2.061145   -2.228171    0.691885
      8          1           0        0.903379   -2.434350   -1.533816
      9          1           0        0.152184   -0.850976   -1.285759
     10          1           0       -0.272414   -2.207451   -0.227930
     11          6           0        4.002847   -0.271452    0.361223
     12          6           0        5.167804    0.395881   -0.370574
     13          6           0        6.308145    0.789735    0.568732
     14          1           0        3.623697    0.412592    1.133055
     15          1           0        4.371000   -1.162919    0.887240
     16          1           0        4.796798    1.285756   -0.895066
     17          1           0        5.543749   -0.288673   -1.141721
     18          1           0        6.705759   -0.091439    1.082578
     19          1           0        5.954564    1.491935    1.330634
     20          1           0        7.130357    1.265036    0.024749
     21          6           0       -2.046590    2.789808   -0.239391
     22          6           0       -2.309316    1.982749   -1.351214
     23          6           0       -2.660525    0.639594   -1.186488
     24          6           0       -2.740011    0.134012    0.110184
     25          6           0       -2.484190    0.912657    1.237818
     26          6           0       -2.134710    2.253133    1.049304
     27          1           0       -1.774433    3.832163   -0.376593
     28          1           0       -2.241649    2.396845   -2.353208
     29          1           0       -2.869159   -0.007660   -2.029669
     30          1           0       -2.559742    0.471485    2.224264
     31          1           0       -1.931223    2.877552    1.914601
     32          7           0       -3.110906   -1.286508    0.297163
     33          8           0       -3.174097   -1.707965    1.449994
     34          8           0       -3.331400   -1.951556   -0.712653
 ---------------------------------------------------------------------

 SCF Done:  E(RHF) =  -669.535567888     A.U. after   15 cycles
 E2 =    -0.2092525472D+01 EUMP2 =    -0.67162809335934D+03

 The electronic state is 1-A.
 Alpha  occ. eigenvalues --  -20.60817 -20.60807 -15.85850 -11.31221 -11.27803
 Alpha  occ. eigenvalues --  -11.27789 -11.27549 -11.26826 -11.26815 -11.21669
 Alpha  occ. eigenvalues --  -11.21422 -11.21397 -11.21309 -11.21154 -11.20733
 Alpha  occ. eigenvalues --   -1.59888  -1.39439  -1.19406  -1.08800  -1.08391
 Alpha  occ. eigenvalues --   -1.04813  -1.03456  -0.95904  -0.95634  -0.86923
 Alpha  occ. eigenvalues --   -0.86205  -0.82467  -0.79528  -0.78205  -0.77511
 Alpha  occ. eigenvalues --   -0.72078  -0.71227  -0.70514  -0.65061  -0.65027
 Alpha  occ. eigenvalues --   -0.64813  -0.62158  -0.60865  -0.59265  -0.57506
 Alpha  occ. eigenvalues --   -0.55326  -0.55229  -0.53131  -0.52902  -0.52563
 Alpha  occ. eigenvalues --   -0.52311  -0.49842  -0.48841  -0.48834  -0.47835
 Alpha  occ. eigenvalues --   -0.46575  -0.45744  -0.45680  -0.44848  -0.43691
 Alpha  occ. eigenvalues --   -0.37363  -0.36398
 Alpha virt. eigenvalues --    0.05000   0.11204   0.16500   0.21359   0.22849
 Alpha virt. eigenvalues --    0.24277   0.26638   0.27185   0.27548   0.27813
 Alpha virt. eigenvalues --    0.28419   0.30874   0.31337   0.31818   0.32079

 Mulliken charges:
               1
     1  C   -0.297856
     2  C   -0.298848
     3  C   -0.482609
     4  H    0.146505
     5  H    0.150053
     6  H    0.149003
     7  H    0.154141
     8  H    0.156507
     9  H    0.151051
    10  H    0.170011
    11  C   -0.297817
    12  C   -0.299291
    13  C   -0.475516
    14  H    0.147532
    15  H    0.150913
    16  H    0.149859
    17  H    0.152571
    18  H    0.156086
    19  H    0.154026
    20  H    0.159885
    21  C   -0.170811
    22  C   -0.219612
    23  C   -0.171170
    24  C    0.161748
    25  C   -0.171645
    26  C   -0.218738
    27  H    0.225710
    28  H    0.223769
    29  H    0.276485
    30  H    0.275844
    31  H    0.223565
    32  N    0.487947
    33  O   -0.460488
    34  O   -0.458809
 Sum of Mulliken charges =  -0.00000

 Dipole moment (field-independent basis, Debye):
    X=              1.2218    Y=              4.9461    Z=             -0.6581  Tot=              5.1371
 Quadrupole moment (field-independent basis, Debye-Ang):
   XX=           -103.5202   YY=            -93.0709   ZZ=            -90.3066
   XY=            -14.4179   XZ=              1.8853   YZ=              1.0538

 Normal termination of Gaussian 16 at Thu May  6 01:00:15 2021.
