 Gaussian 16, Revision A.03,
 Gaussian 16:  EM64L-G16RevA.03 25-Dec-2016

 -------------
 #p 6-31g* mp2
 -------------

 ------------------------------------------------------
 Input file generated by CHIRIPA (05-May-2021 14:53:11)
 ------------------------------------------------------
 Symbolic Z-matrix:
 Charge =  0 Multiplicity = 1

                         Standard orientation:
 ---------------------------------------------------------------------
 Center     Atomic      Atomic             Coordinates (Angstroms)
 Number     Number       Type             X           Y           Z
 ---------------------------------------------------------------------
      1          6           0       -5.628982    0.035815    0.136112
      2          6           0       -6.097481   -1.399956   -0.102749
      3          6           0       -7.604620   -1.569915    0.090741
      4          1           0       -5.906008    0.340504    1.154624
      5          1           0       -6.165504    0.707787   -0.547988
      6          1           0       -5.559227   -2.069189    0.580645
      7          1           0       -5.819138   -1.701328   -1.120745
      8          1           0       -8.156901   -0.925759   -0.601103
      9          1           0       -7.895514   -1.295709    1.109953
     10          1           0       -7.917870   -2.603778   -0.084939
     11          6           0       -4.124577    0.221640   -0.053529
     12          6           0       -3.656078    1.657412    0.185332
     13          6           0       -2.148939    1.827371   -0.008158
     14          1           0       -3.588055   -0.450331    0.630571
     15          1           0       -3.847551   -0.083048   -1.072041
     16          1           0       -3.934421    1.958784    1.203328
     17          1           0       -4.194332    2.326645   -0.498062
     18          1           0       -1.858045    1.553165   -1.027370
     19          1           0       -1.596657    1.183215    0.683686
     20          1           0       -1.835689    2.861234    0.167522
     21          6           0        1.642640    1.172960   -0.248288
     22          6           0        2.845182    1.863655   -0.065658
     23          6           0        4.052032    1.168358    0.055256
     24          6           0        4.019515   -0.223689   -0.011374
     25          6           0        2.837645   -0.940377   -0.192566
     26          6           0        1.642709   -0.224388   -0.311048
     27          1           0        0.709757    1.721121   -0.341273
     28          1           0        2.848143    2.948839   -0.016538
     29          1           0        4.997341    1.677896    0.197319
     30          1           0        2.866451   -2.022304   -0.237533
     31          1           0        0.710303   -0.763431   -0.452809
     32          7           0        5.290847   -0.970722    0.115345
     33          8           0        5.235386   -2.196980    0.053270
     34          8           0        6.318703   -0.315843    0.274344
 ---------------------------------------------------------------------

 SCF Done:  E(RHF) =  -669.535643124     A.U. after   15 cycles
 E2 =    -0.2091101277D+01 EUMP2 =    -0.67162674440102D+03

 The electronic state is 1-A.
 Alpha  occ. eigenvalues --  -20.60682 -20.60677 -15.85736 -11.31072 -11.27648
 Alpha  occ. eigenvalues --  -11.27645 -11.27284 -11.26633 -11.26622 -11.22645
 Alpha  occ. eigenvalues --  -11.22517 -11.22260 -11.22164 -11.22043 -11.21525
 Alpha  occ. eigenvalues --   -1.59759  -1.39313  -1.19240  -1.09243  -1.08629
 Alpha  occ. eigenvalues --   -1.04644  -1.04385  -0.96879  -0.95468  -0.87913
 Alpha  occ. eigenvalues --   -0.86035  -0.82313  -0.80480  -0.79009  -0.77369
 Alpha  occ. eigenvalues --   -0.71953  -0.71082  -0.70322  -0.65863  -0.64887
 Alpha  occ. eigenvalues --   -0.64649  -0.61998  -0.61771  -0.60266  -0.58452
 Alpha  occ. eigenvalues --   -0.56160  -0.55220  -0.53506  -0.53246  -0.52968
 Alpha  occ. eigenvalues --   -0.52729  -0.50808  -0.48772  -0.48710  -0.48702
 Alpha  occ. eigenvalues --   -0.47471  -0.46562  -0.46448  -0.44725  -0.44618
 Alpha  occ. eigenvalues --   -0.37200  -0.36258
 Alpha virt. eigenvalues --    0.05164   0.11375   0.16649   0.20492   0.22180
 Alpha virt. eigenvalues --    0.23656   0.25797   0.25839   0.26637   0.27579
 Alpha virt. eigenvalues --    0.29130   0.30083   0.30534   0.31026   0.31814

 Mulliken charges:
               1
     1  C   -0.298992
     2  C   -0.300271
     3  C   -0.476169
     4  H    0.151338
     5  H    0.151033
     6  H    0.152452
     7  H    0.152329
     8  H    0.155952
     9  H    0.156092
    10  H    0.161991
    11  C   -0.299598
    12  C   -0.299460
    13  C   -0.487414
    14  H    0.149199
    15  H    0.149473
    16  H    0.156150
    17  H    0.155749
    18  H    0.153403
    19  H    0.155330
    20  H    0.161452
    21  C   -0.178919
    22  C   -0.220984
    23  C   -0.170680
    24  C    0.157908
    25  C   -0.170808
    26  C   -0.223638
    27  H    0.243770
    28  H    0.223270
    29  H    0.275045
    30  H    0.275082
    31  H    0.223518
    32  N    0.488062
    33  O   -0.460865
    34  O   -0.460801
 Sum of Mulliken charges =  -0.00000

 Dipole moment (field-independent basis, Debye):
    X=             -4.7983    Y=              2.6600    Z=             -0.4265  Tot=              5.5028
 Quadrupole moment (field-independent basis, Debye-Ang):
   XX=           -130.2458   YY=            -92.3226   ZZ=            -94.6235
   XY=             13.7546   XZ=             -1.2778   YZ=              0.4201

 Normal termination of Gaussian 16 at Thu May  6 05:42:02 2021.
