 Gaussian 16, Revision A.03,
 Gaussian 16:  EM64L-G16RevA.03 25-Dec-2016

 -------------
 #p 6-31g* mp2
 -------------

 ------------------------------------------------------
 Input file generated by CHIRIPA (05-May-2021 14:55:22)
 ------------------------------------------------------
 Symbolic Z-matrix:
 Charge =  0 Multiplicity = 1

                         Standard orientation:
 ---------------------------------------------------------------------
 Center     Atomic      Atomic             Coordinates (Angstroms)
 Number     Number       Type             X           Y           Z
 ---------------------------------------------------------------------
      1          6           0        0.250689   -2.868122   -0.158852
      2          6           0        0.022013   -2.256189    1.077986
      3          6           0       -0.931504   -1.241383    1.202572
      4          6           0       -1.641468   -0.861606    0.064587
      5          6           0       -1.436468   -1.452092   -1.181443
      6          6           0       -0.477997   -2.464831   -1.282638
      7          1           0        0.993328   -3.655644   -0.246548
      8          1           0        0.586436   -2.567352    1.952428
      9          1           0       -1.128687   -0.750706    2.147968
     10          1           0       -2.014749   -1.120438   -2.035267
     11          1           0       -0.302516   -2.938290   -2.244452
     12          7           0       -2.653537    0.211630    0.184099
     13          8           0       -3.265816    0.528086   -0.833549
     14          8           0       -2.815353    0.716053    1.293157
     15          6           0        1.554539    1.885353   -0.461546
     16          6           0        0.674306    2.805875    0.384512
     17          6           0        0.014938    3.913321   -0.438040
     18          1           0        2.328941    2.484875   -0.959362
     19          1           0        0.945067    1.437813   -1.258820
     20          1           0        1.284948    3.250474    1.180794
     21          1           0       -0.097971    2.204064    0.880523
     22          1           0       -0.617468    3.485773   -1.222812
     23          1           0        0.773308    4.538129   -0.920835
     24          1           0       -0.609676    4.559586    0.186506
     25          6           0        2.220609    0.773177    0.346628
     26          6           0        3.100842   -0.147346   -0.499430
     27          6           0        3.760210   -1.254791    0.323121
     28          1           0        2.830082    1.220717    1.143902
     29          1           0        1.446208    0.173655    0.844444
     30          1           0        3.873119    0.454466   -0.995441
     31          1           0        2.490201   -0.591944   -1.295712
     32          1           0        3.001840   -1.879599    0.805916
     33          1           0        4.392616   -0.827244    1.107894
     34          1           0        4.384824   -1.901056   -0.301424
 ---------------------------------------------------------------------

 SCF Done:  E(RHF) =  -669.534035725     A.U. after   15 cycles
 E2 =    -0.2097618546D+01 EUMP2 =    -0.67163165427104D+03

 The electronic state is 1-A.
 Alpha  occ. eigenvalues --  -20.61013 -20.61006 -15.86038 -11.31412 -11.27985
 Alpha  occ. eigenvalues --  -11.27948 -11.27697 -11.26991 -11.26950 -11.21790
 Alpha  occ. eigenvalues --  -11.21566 -11.21255 -11.21205 -11.21151 -11.20496
 Alpha  occ. eigenvalues --   -1.60067  -1.39622  -1.19602  -1.08988  -1.08338
 Alpha  occ. eigenvalues --   -1.05005  -1.03449  -0.95953  -0.95770  -0.86940
 Alpha  occ. eigenvalues --   -0.86386  -0.82643  -0.79543  -0.78142  -0.77678
 Alpha  occ. eigenvalues --   -0.72258  -0.71395  -0.70681  -0.65247  -0.65085
 Alpha  occ. eigenvalues --   -0.64950  -0.62336  -0.60887  -0.59326  -0.57498
 Alpha  occ. eigenvalues --   -0.55491  -0.55234  -0.53294  -0.53073  -0.52601
 Alpha  occ. eigenvalues --   -0.52345  -0.49882  -0.49022  -0.49018  -0.47834
 Alpha  occ. eigenvalues --   -0.46605  -0.45752  -0.45624  -0.44863  -0.43670
 Alpha  occ. eigenvalues --   -0.37514  -0.36415
 Alpha virt. eigenvalues --    0.04809   0.10819   0.16228   0.20529   0.22989
 Alpha virt. eigenvalues --    0.24232   0.26064   0.26788   0.27304   0.28489
 Alpha virt. eigenvalues --    0.28876   0.30422   0.31246   0.31606   0.32140

 Mulliken charges:
               1
     1  C   -0.166469
     2  C   -0.217902
     3  C   -0.176966
     4  C    0.162940
     5  C   -0.171677
     6  C   -0.219384
     7  H    0.228279
     8  H    0.225918
     9  H    0.277387
    10  H    0.276540
    11  H    0.224947
    12  N    0.488455
    13  O   -0.458548
    14  O   -0.459087
    15  C   -0.298528
    16  C   -0.305096
    17  C   -0.475335
    18  H    0.148446
    19  H    0.147567
    20  H    0.150051
    21  H    0.156514
    22  H    0.159352
    23  H    0.151207
    24  H    0.164749
    25  C   -0.304583
    26  C   -0.298113
    27  C   -0.477117
    28  H    0.147208
    29  H    0.156264
    30  H    0.152637
    31  H    0.150087
    32  H    0.145462
    33  H    0.157140
    34  H    0.157653
 Sum of Mulliken charges =  -0.00000

 Dipole moment (field-independent basis, Debye):
    X=              3.2942    Y=             -3.8258    Z=             -0.4235  Tot=              5.0664
 Quadrupole moment (field-independent basis, Debye-Ang):
   XX=           -107.1481   YY=            -89.0204   ZZ=            -90.2460
   XY=              4.1082   XZ=              1.9722   YZ=              1.1879

 Normal termination of Gaussian 16 at Thu May  6 03:02:03 2021.
