 Gaussian 16, Revision A.03,
 Gaussian 16:  EM64L-G16RevA.03 25-Dec-2016

 -------------
 #p 6-31g* mp2
 -------------

 ------------------------------------------------------
 Input file generated by CHIRIPA (05-May-2021 14:51:08)
 ------------------------------------------------------
 Symbolic Z-matrix:
 Charge =  0 Multiplicity = 1

                         Standard orientation:
 ---------------------------------------------------------------------
 Center     Atomic      Atomic             Coordinates (Angstroms)
 Number     Number       Type             X           Y           Z
 ---------------------------------------------------------------------
      1          6           0       -2.561063    0.777072   -0.104072
      2          6           0       -2.213581    2.259073    0.040550
      3          6           0       -0.719196    2.535061   -0.128085
      4          1           0       -1.993991    0.199830    0.639005
      5          1           0       -2.231343    0.424965   -1.091341
      6          1           0       -2.545102    2.608623    1.026717
      7          1           0       -2.781691    2.832876   -0.702831
      8          1           0       -0.377254    2.213440   -1.117144
      9          1           0       -0.139321    1.987913    0.622231
     10          1           0       -0.493112    3.600542   -0.020862
     11          6           0       -4.051368    0.485256    0.061953
     12          6           0       -4.398850   -0.996744   -0.082670
     13          6           0       -5.893235   -1.272732    0.085966
     14          1           0       -4.381088    0.837364    1.049222
     15          1           0       -4.618440    1.062499   -0.681125
     16          1           0       -3.830740   -1.570547    0.660712
     17          1           0       -4.067329   -1.346295   -1.068836
     18          1           0       -6.473110   -0.725585   -0.664351
     19          1           0       -6.235177   -0.951111    1.075024
     20          1           0       -6.119319   -2.338213   -0.021257
     21          6           0        2.560675   -0.580863    0.179399
     22          6           0        1.772178   -1.831447   -0.210854
     23          6           0        0.282199   -1.715587    0.112151
     24          1           0        2.430485   -0.393574    1.254071
     25          1           0        2.137845    0.288531   -0.342869
     26          1           0        2.197245   -2.698441    0.310928
     27          1           0        1.904415   -2.015890   -1.284683
     28          1           0       -0.162629   -0.868540   -0.420052
     29          1           0        0.131864   -1.554969    1.184625
     30          1           0       -0.262388   -2.620482   -0.174991
     31          6           0        4.051755   -0.681465   -0.137280
     32          6           0        4.840253    0.569118    0.252973
     33          6           0        6.330233    0.453259   -0.070031
     34          1           0        4.474585   -1.550859    0.384989
     35          1           0        4.181945   -0.868755   -1.211951
     36          1           0        4.708015    0.753562    1.326803
     37          1           0        4.415187    1.436112   -0.268809
     38          1           0        6.480568    0.292641   -1.142506
     39          1           0        6.775061   -0.393788    0.462172
     40          1           0        6.874819    1.358154    0.217110
 ---------------------------------------------------------------------

 SCF Done:  E(RHF) =  -470.732080960     A.U. after   11 cycles
 E2 =    -0.1584091732D+01 EUMP2 =    -0.47231617269158D+03

 The electronic state is 1-A.
 Alpha  occ. eigenvalues --  -11.21583 -11.21561 -11.21554 -11.21517 -11.21351
 Alpha  occ. eigenvalues --  -11.21342 -11.21289 -11.21265 -11.21080 -11.21041
 Alpha  occ. eigenvalues --  -11.21040 -11.20901  -1.08419  -1.08354  -1.03529
 Alpha  occ. eigenvalues --   -1.03449  -0.95991  -0.95889  -0.87039  -0.86886
 Alpha  occ. eigenvalues --   -0.79692  -0.79470  -0.78330  -0.78041  -0.65031
 Alpha  occ. eigenvalues --   -0.65004  -0.60907  -0.60876  -0.59394  -0.59232
 Alpha  occ. eigenvalues --   -0.57672  -0.57452  -0.55251  -0.55215  -0.52742
 Alpha  occ. eigenvalues --   -0.52612  -0.52554  -0.52120  -0.49899  -0.49872
 Alpha  occ. eigenvalues --   -0.48187  -0.47692  -0.46642  -0.46598  -0.45980
 Alpha  occ. eigenvalues --   -0.45751  -0.45583  -0.45121  -0.43759  -0.43713
 Alpha virt. eigenvalues --    0.21598   0.22936   0.23579   0.25025   0.25567
 Alpha virt. eigenvalues --    0.26309   0.26510   0.27217   0.28574   0.29824
 Alpha virt. eigenvalues --    0.30445   0.31264   0.31587   0.31820   0.32085

 Mulliken charges:
               1
     1  C   -0.304472
     2  C   -0.298977
     3  C   -0.479187
     4  H    0.158649
     5  H    0.148623
     6  H    0.151736
     7  H    0.151477
     8  H    0.153917
     9  H    0.158981
    10  H    0.160437
    11  C   -0.297453
    12  C   -0.299813
    13  C   -0.475654
    14  H    0.149128
    15  H    0.149054
    16  H    0.152654
    17  H    0.151755
    18  H    0.155022
    19  H    0.155038
    20  H    0.160119
    21  C   -0.300915
    22  C   -0.299743
    23  C   -0.481745
    24  H    0.148576
    25  H    0.153101
    26  H    0.151044
    27  H    0.151243
    28  H    0.166147
    29  H    0.152144
    30  H    0.159456
    31  C   -0.298124
    32  C   -0.299656
    33  C   -0.475664
    34  H    0.149357
    35  H    0.149446
    36  H    0.151726
    37  H    0.152279
    38  H    0.155088
    39  H    0.155061
    40  H    0.160145
 Sum of Mulliken charges =  -0.00000

 Dipole moment (field-independent basis, Debye):
    X=             -0.0271    Y=              0.0196    Z=              0.0042  Tot=              0.0337
 Quadrupole moment (field-independent basis, Debye-Ang):
   XX=            -87.2904   YY=            -84.8831   ZZ=            -82.9329
   XY=             -0.4425   XZ=              0.5378   YZ=             -0.4175

 Normal termination of Gaussian 16 at Wed May  5 15:04:50 2021.
