 Gaussian 16, Revision A.03,
 Gaussian 16:  EM64L-G16RevA.03 25-Dec-2016

 -------------
 #p 6-31g* mp2
 -------------

 ------------------------------------------------------
 Input file generated by CHIRIPA (05-May-2021 14:51:07)
 ------------------------------------------------------
 Symbolic Z-matrix:
 Charge =  0 Multiplicity = 1

                         Standard orientation:
 ---------------------------------------------------------------------
 Center     Atomic      Atomic             Coordinates (Angstroms)
 Number     Number       Type             X           Y           Z
 ---------------------------------------------------------------------
      1          6           0        3.646389   -0.041261    0.033714
      2          6           0        4.653518   -0.429401   -1.049349
      3          6           0        5.711920    0.648369   -1.285971
      4          1           0        3.156185    0.899884   -0.250696
      5          1           0        4.184617    0.157415    0.970856
      6          1           0        4.113418   -0.628630   -1.983809
      7          1           0        5.141243   -1.369832   -0.762419
      8          1           0        6.276346    0.842120   -0.368101
      9          1           0        5.242680    1.587534   -1.596431
     10          1           0        6.421533    0.350222   -2.064057
     11          6           0        2.581977   -1.108618    0.281714
     12          6           0        1.574848   -0.720479    1.364777
     13          6           0        0.516446   -1.798248    1.601399
     14          1           0        2.043749   -1.307294   -0.655428
     15          1           0        3.072181   -2.049764    0.566124
     16          1           0        1.087122    0.219953    1.077847
     17          1           0        2.114948   -0.521250    2.299237
     18          1           0        0.985686   -2.737413    1.911859
     19          1           0       -0.047980   -1.991999    0.683529
     20          1           0       -0.193167   -1.500101    2.379485
     21          6           0       -2.789192    1.037112    0.356299
     22          6           0       -1.436346    1.589129   -0.094334
     23          6           0       -0.798712    2.512049    0.944625
     24          1           0       -3.467112    1.874810    0.569918
     25          1           0       -2.658521    0.491945    1.301346
     26          1           0       -1.569290    2.131917   -1.038964
     27          1           0       -0.761629    0.750018   -0.307089
     28          1           0       -0.637294    1.978194    1.886720
     29          1           0       -1.449543    3.367944    1.150687
     30          1           0        0.167510    2.895303    0.601998
     31          6           0       -3.439174    0.112767   -0.671728
     32          6           0       -4.792020   -0.439250   -0.221094
     33          6           0       -5.429654   -1.362169   -1.260052
     34          1           0       -3.569846    0.657934   -1.616774
     35          1           0       -2.761254   -0.724930   -0.885345
     36          1           0       -5.466736    0.399861   -0.008340
     37          1           0       -4.659076   -0.982037    0.723536
     38          1           0       -4.778822   -2.218065   -1.466115
     39          1           0       -5.591072   -0.828315   -2.202149
     40          1           0       -6.395876   -1.745424   -0.917426
 ---------------------------------------------------------------------

 SCF Done:  E(RHF) =  -470.732772180     A.U. after   11 cycles
 E2 =    -0.1584091975D+01 EUMP2 =    -0.47231686415418D+03

 The electronic state is 1-A.
 Alpha  occ. eigenvalues --  -11.21625 -11.21604 -11.21603 -11.21545 -11.21418
 Alpha  occ. eigenvalues --  -11.21411 -11.21359 -11.21352 -11.21138 -11.21112
 Alpha  occ. eigenvalues --  -11.21073 -11.21072  -1.08483  -1.08404  -1.03624
 Alpha  occ. eigenvalues --   -1.03478  -0.96025  -0.95982  -0.87042  -0.86990
 Alpha  occ. eigenvalues --   -0.79627  -0.79597  -0.78280  -0.78234  -0.65353
 Alpha  occ. eigenvalues --   -0.64865  -0.61344  -0.60585  -0.59382  -0.59329
 Alpha  occ. eigenvalues --   -0.57620  -0.57598  -0.55355  -0.55226  -0.52712
 Alpha  occ. eigenvalues --   -0.52681  -0.52431  -0.52415  -0.50006  -0.49883
 Alpha  occ. eigenvalues --   -0.47994  -0.47858  -0.46729  -0.46538  -0.45899
 Alpha  occ. eigenvalues --   -0.45752  -0.45734  -0.45574  -0.43804  -0.43792
 Alpha virt. eigenvalues --    0.19732   0.22948   0.23683   0.24563   0.25713
 Alpha virt. eigenvalues --    0.26356   0.26559   0.27834   0.28798   0.29427
 Alpha virt. eigenvalues --    0.30844   0.31333   0.31675   0.31962   0.32272

 Mulliken charges:
               1
     1  C   -0.298266
     2  C   -0.299676
     3  C   -0.475717
     4  H    0.149461
     5  H    0.149691
     6  H    0.151978
     7  H    0.151972
     8  H    0.155206
     9  H    0.155170
    10  H    0.160276
    11  C   -0.298341
    12  C   -0.310623
    13  C   -0.476898
    14  H    0.149020
    15  H    0.149643
    16  H    0.165300
    17  H    0.152029
    18  H    0.155825
    19  H    0.154767
    20  H    0.159742
    21  C   -0.298145
    22  C   -0.305088
    23  C   -0.479097
    24  H    0.149687
    25  H    0.150576
    26  H    0.152126
    27  H    0.156015
    28  H    0.156971
    29  H    0.156702
    30  H    0.159873
    31  C   -0.298801
    32  C   -0.299719
    33  C   -0.475743
    34  H    0.149422
    35  H    0.149766
    36  H    0.151914
    37  H    0.152319
    38  H    0.155255
    39  H    0.155083
    40  H    0.160324
 Sum of Mulliken charges =  -0.00000

 Dipole moment (field-independent basis, Debye):
    X=             -0.0067    Y=              0.0172    Z=              0.0114  Tot=              0.0217
 Quadrupole moment (field-independent basis, Debye-Ang):
   XX=            -85.2398   YY=            -84.9113   ZZ=            -84.6155
   XY=             -1.6073   XZ=              0.4706   YZ=             -0.8789

 Normal termination of Gaussian 16 at Thu May  6 06:51:20 2021.
