 Gaussian 16, Revision A.03,
 Gaussian 16:  EM64L-G16RevA.03 25-Dec-2016

 -------------
 #p 6-31g* mp2
 -------------

 ------------------------------------------------------
 Input file generated by CHIRIPA (05-May-2021 14:57:24)
 ------------------------------------------------------
 Symbolic Z-matrix:
 Charge =  0 Multiplicity = 1

                         Standard orientation:
 ---------------------------------------------------------------------
 Center     Atomic      Atomic             Coordinates (Angstroms)
 Number     Number       Type             X           Y           Z
 ---------------------------------------------------------------------
      1          6           0       -2.618196    2.275444   -0.382752
      2          6           0       -2.051625    0.996598   -0.374345
      3          6           0       -2.852169   -0.133393   -0.182516
      4          6           0       -4.221746    0.052958   -0.001348
      5          6           0       -4.815917    1.314005   -0.004609
      6          6           0       -3.996105    2.429794   -0.198183
      7          1           0       -1.988831    3.147732   -0.532447
      8          1           0       -0.981826    0.873716   -0.517432
      9          1           0       -2.439739   -1.134990   -0.171494
     10          1           0       -5.885530    1.404761    0.140680
     11          1           0       -4.438857    3.421751   -0.204240
     12          7           0       -5.079446   -1.135796    0.202656
     13          8           0       -6.283357   -0.944824    0.360027
     14          8           0       -4.531559   -2.236002    0.201322
     15          6           0        6.053324    1.312631    0.222410
     16          6           0        4.756261    1.796325    0.422878
     17          6           0        3.655657    0.940202    0.321522
     18          6           0        3.889651   -0.399839    0.016849
     19          6           0        5.169903   -0.911806   -0.188424
     20          6           0        6.255649   -0.037511   -0.082065
     21          1           0        6.902529    1.984745    0.303089
     22          1           0        4.596135    2.844387    0.659459
     23          1           0        2.640886    1.288147    0.471828
     24          1           0        5.297935   -1.961572   -0.422975
     25          1           0        7.261851   -0.415934   -0.238264
     26          7           0        2.732356   -1.315797   -0.093100
     27          8           0        2.965174   -2.492148   -0.362602
     28          8           0        1.614363   -0.840030    0.092304
 ---------------------------------------------------------------------

 SCF Done:  E(RHF) =  -868.339107531     A.U. after   16 cycles
 E2 =    -0.2598597756D+01 EUMP2 =    -0.87093770528670D+03

 The electronic state is 1-A.
 Alpha  occ. eigenvalues --  -20.61594 -20.61525 -20.60089 -20.60066 -15.86607
 Alpha  occ. eigenvalues --  -15.85128 -11.31828 -11.30432 -11.28427 -11.28340
 Alpha  occ. eigenvalues --  -11.28073 -11.27377 -11.27324 -11.27053 -11.26865
 Alpha  occ. eigenvalues --  -11.26790 -11.26105 -11.25863  -1.60617  -1.59158
 Alpha  occ. eigenvalues --   -1.40182  -1.38710  -1.19981  -1.18603  -1.09396
 Alpha  occ. eigenvalues --   -1.08033  -1.05367  -1.03968  -0.96260  -0.94871
 Alpha  occ. eigenvalues --   -0.86771  -0.85389  -0.83105  -0.81677  -0.78173
 Alpha  occ. eigenvalues --   -0.76716  -0.72837  -0.71924  -0.71349  -0.71088
 Alpha  occ. eigenvalues --   -0.70480  -0.69750  -0.65641  -0.65367  -0.64252
 Alpha  occ. eigenvalues --   -0.63956  -0.62724  -0.61285  -0.55860  -0.54551
 Alpha  occ. eigenvalues --   -0.53696  -0.53459  -0.52346  -0.52038  -0.49599
 Alpha  occ. eigenvalues --   -0.49550  -0.48111  -0.48097  -0.45615  -0.44128
 Alpha  occ. eigenvalues --   -0.37942  -0.36962  -0.36637  -0.35570
 Alpha virt. eigenvalues --    0.04355   0.05774   0.10695   0.12061   0.15870
 Alpha virt. eigenvalues --    0.17267   0.20589   0.22145   0.26201   0.27124
 Alpha virt. eigenvalues --    0.28635   0.28992   0.30286   0.31305   0.32529

 Mulliken charges:
               1
     1  C   -0.172384
     2  C   -0.224752
     3  C   -0.172229
     4  C    0.157930
     5  C   -0.172575
     6  C   -0.218718
     7  H    0.219622
     8  H    0.238344
     9  H    0.284463
    10  H    0.272997
    11  H    0.219510
    12  N    0.487842
    13  O   -0.463783
    14  O   -0.458218
    15  C   -0.170129
    16  C   -0.218085
    17  C   -0.170276
    18  C    0.158799
    19  C   -0.170224
    20  C   -0.218231
    21  H    0.227617
    22  H    0.223704
    23  H    0.269778
    24  H    0.277585
    25  H    0.225854
    26  N    0.492553
    27  O   -0.453736
    28  O   -0.473260
 Sum of Mulliken charges =  -0.00000

 Dipole moment (field-independent basis, Debye):
    X=              7.5924    Y=              7.1988    Z=             -0.3491  Tot=             10.4684
 Quadrupole moment (field-independent basis, Debye-Ang):
   XX=            -93.7848   YY=           -103.1085   ZZ=           -106.3335
   XY=            -11.5992   XZ=              3.5250   YZ=              1.1195

 Normal termination of Gaussian 16 at Fri May  7 08:01:09 2021.
