 Gaussian 16, Revision A.03,
 Gaussian 16:  EM64L-G16RevA.03 25-Dec-2016

 -------------
 #p 6-31g* mp2
 -------------

 ------------------------------------------------------
 Input file generated by CHIRIPA (05-May-2021 14:55:20)
 ------------------------------------------------------
 Symbolic Z-matrix:
 Charge =  0 Multiplicity = 1

                         Standard orientation:
 ---------------------------------------------------------------------
 Center     Atomic      Atomic             Coordinates (Angstroms)
 Number     Number       Type             X           Y           Z
 ---------------------------------------------------------------------
      1          6           0       -1.332936   -2.170690    1.085118
      2          6           0       -0.900296   -1.667676   -0.146272
      3          6           0       -1.560720   -0.590595   -0.744840
      4          6           0       -2.655130   -0.038155   -0.081238
      5          6           0       -3.110185   -0.516916    1.146362
      6          6           0       -2.434557   -1.594720    1.726375
      7          1           0       -0.813997   -3.007673    1.542893
      8          1           0       -0.045055   -2.113001   -0.646564
      9          1           0       -1.246966   -0.181409   -1.697491
     10          1           0       -3.965814   -0.052125    1.621005
     11          1           0       -2.772771   -1.983295    2.682756
     12          7           0       -3.362339    1.102485   -0.705094
     13          8           0       -4.323913    1.571566   -0.100135
     14          8           0       -2.941685    1.505839   -1.787218
     15          6           0        3.380293   -0.448001    0.122153
     16          6           0        3.107318   -1.366499   -1.069414
     17          6           0        3.373800   -2.838717   -0.754208
     18          1           0        4.423932   -0.572947    0.441763
     19          1           0        2.754354   -0.761752    0.969003
     20          1           0        3.732573   -1.050247   -1.914195
     21          1           0        2.064261   -1.239209   -1.386345
     22          1           0        2.739820   -3.176693    0.071892
     23          1           0        4.417611   -2.986657   -0.458957
     24          1           0        3.172277   -3.477465   -1.619801
     25          6           0        3.118456    1.026936   -0.177399
     26          6           0        3.391430    1.945434    1.014168
     27          6           0        3.124948    3.417653    0.698963
     28          1           0        3.744395    1.340687   -1.024249
     29          1           0        2.074817    1.151883   -0.497009
     30          1           0        4.434487    1.818144    1.331099
     31          1           0        2.766174    1.629182    1.858950
     32          1           0        2.081137    3.565591    0.403712
     33          1           0        3.758928    3.755627   -0.127138
     34          1           0        3.326471    4.056400    1.564555
 ---------------------------------------------------------------------

 SCF Done:  E(RHF) =  -669.535550504     A.U. after   15 cycles
 E2 =    -0.2091873283D+01 EUMP2 =    -0.67162742378672D+03

 The electronic state is 1-A.
 Alpha  occ. eigenvalues --  -20.60796 -20.60791 -15.85850 -11.31229 -11.27799
 Alpha  occ. eigenvalues --  -11.27795 -11.27537 -11.26814 -11.26783 -11.22470
 Alpha  occ. eigenvalues --  -11.22019 -11.21993 -11.21861 -11.21753 -11.21166
 Alpha  occ. eigenvalues --   -1.59871  -1.39424  -1.19401  -1.08974  -1.08789
 Alpha  occ. eigenvalues --   -1.04807  -1.04071  -0.96502  -0.95625  -0.87518
 Alpha  occ. eigenvalues --   -0.86201  -0.82460  -0.80162  -0.78733  -0.77504
 Alpha  occ. eigenvalues --   -0.72067  -0.71195  -0.70506  -0.65709  -0.65051
 Alpha  occ. eigenvalues --   -0.64760  -0.62225  -0.61384  -0.59903  -0.58097
 Alpha  occ. eigenvalues --   -0.55798  -0.55298  -0.53211  -0.53128  -0.52951
 Alpha  occ. eigenvalues --   -0.52853  -0.50453  -0.48831  -0.48822  -0.48448
 Alpha  occ. eigenvalues --   -0.47209  -0.46275  -0.46173  -0.44827  -0.44301
 Alpha  occ. eigenvalues --   -0.37379  -0.36400
 Alpha virt. eigenvalues --    0.05012   0.11189   0.16416   0.19218   0.23001
 Alpha virt. eigenvalues --    0.23783   0.25260   0.26119   0.27186   0.28626
 Alpha virt. eigenvalues --    0.28934   0.30356   0.31071   0.31303   0.32051

 Mulliken charges:
               1
     1  C   -0.172215
     2  C   -0.223157
     3  C   -0.173149
     4  C    0.158617
     5  C   -0.170973
     6  C   -0.218413
     7  H    0.225917
     8  H    0.231790
     9  H    0.275724
    10  H    0.275791
    11  H    0.223619
    12  N    0.488051
    13  O   -0.460317
    14  O   -0.460277
    15  C   -0.298017
    16  C   -0.302498
    17  C   -0.477259
    18  H    0.151988
    19  H    0.147824
    20  H    0.157798
    21  H    0.142944
    22  H    0.147874
    23  H    0.161031
    24  H    0.161575
    25  C   -0.298998
    26  C   -0.300072
    27  C   -0.476621
    28  H    0.151200
    29  H    0.150662
    30  H    0.151742
    31  H    0.151967
    32  H    0.158896
    33  H    0.155826
    34  H    0.161129
 Sum of Mulliken charges =  -0.00000

 Dipole moment (field-independent basis, Debye):
    X=              2.6030    Y=             -3.9372    Z=              2.2141  Tot=              5.2134
 Quadrupole moment (field-independent basis, Debye-Ang):
   XX=           -104.9518   YY=            -96.2455   ZZ=            -92.3349
   XY=             10.8539   XZ=             -9.3684   YZ=              0.3632

 Normal termination of Gaussian 16 at Thu May  6 17:28:13 2021.
