 Gaussian 16, Revision A.03,
 Gaussian 16:  EM64L-G16RevA.03 25-Dec-2016

 -------------
 #p 6-31g* mp2
 -------------

 ------------------------------------------------------
 Input file generated by CHIRIPA (05-May-2021 14:57:24)
 ------------------------------------------------------
 Symbolic Z-matrix:
 Charge =  0 Multiplicity = 1

                         Standard orientation:
 ---------------------------------------------------------------------
 Center     Atomic      Atomic             Coordinates (Angstroms)
 Number     Number       Type             X           Y           Z
 ---------------------------------------------------------------------
      1          6           0        2.746754    2.600939   -0.200175
      2          6           0        4.105076    2.283985   -0.095179
      3          6           0        4.523532    0.950160   -0.076390
      4          6           0        3.552343   -0.045959   -0.164870
      5          6           0        2.191607    0.237846   -0.270422
      6          6           0        1.796031    1.578660   -0.287307
      7          1           0        2.430574    3.639801   -0.214032
      8          1           0        4.845636    3.075829   -0.027357
      9          1           0        5.568563    0.676563    0.004063
     10          1           0        1.476730   -0.573336   -0.336405
     11          1           0        0.740456    1.821852   -0.368936
     12          7           0        3.983233   -1.461719   -0.145986
     13          8           0        3.107900   -2.320869   -0.225309
     14          8           0        5.188138   -1.685435   -0.052219
     15          6           0       -5.729733    0.558550   -0.700459
     16          6           0       -4.927023    1.449143    0.019972
     17          6           0       -3.679442    1.046713    0.505914
     18          6           0       -3.263960   -0.259489    0.251940
     19          6           0       -4.040818   -1.170122   -0.462572
     20          6           0       -5.284854   -0.745940   -0.939011
     21          1           0       -6.697507    0.879617   -1.074259
     22          1           0       -5.269954    2.462830    0.206742
     23          1           0       -3.037801    1.715608    1.066533
     24          1           0       -3.671910   -2.174275   -0.632871
     25          1           0       -5.906131   -1.439743   -1.498205
     26          7           0       -1.945079   -0.697038    0.761354
     27          8           0       -1.601882   -1.853155    0.524193
     28          8           0       -1.279509    0.124414    1.388148
 ---------------------------------------------------------------------

 SCF Done:  E(RHF) =  -868.338989007     A.U. after   16 cycles
 E2 =    -0.2599571124D+01 EUMP2 =    -0.87093856013069D+03

 The electronic state is 1-A.
 Alpha  occ. eigenvalues --  -20.61588 -20.61512 -20.59729 -20.59687 -15.86554
 Alpha  occ. eigenvalues --  -15.84760 -11.31769 -11.30072 -11.28350 -11.28276
 Alpha  occ. eigenvalues --  -11.28014 -11.27305 -11.27255 -11.26733 -11.26507
 Alpha  occ. eigenvalues --  -11.26482 -11.25776 -11.25597  -1.60612  -1.58791
 Alpha  occ. eigenvalues --   -1.40164  -1.38341  -1.19924  -1.18266  -1.09346
 Alpha  occ. eigenvalues --   -1.07697  -1.05298  -1.03643  -0.96201  -0.94525
 Alpha  occ. eigenvalues --   -0.86703  -0.85065  -0.83033  -0.81342  -0.78110
 Alpha  occ. eigenvalues --   -0.76376  -0.72748  -0.71935  -0.71021  -0.70982
 Alpha  occ. eigenvalues --   -0.70114  -0.69406  -0.65572  -0.65292  -0.63922
 Alpha  occ. eigenvalues --   -0.63666  -0.62645  -0.60972  -0.55795  -0.54230
 Alpha  occ. eigenvalues --   -0.53639  -0.53382  -0.52006  -0.51746  -0.49540
 Alpha  occ. eigenvalues --   -0.49498  -0.47756  -0.47723  -0.45585  -0.43757
 Alpha  occ. eigenvalues --   -0.37893  -0.36895  -0.36303  -0.35223
 Alpha virt. eigenvalues --    0.04361   0.06141   0.10756   0.12404   0.15876
 Alpha virt. eigenvalues --    0.17617   0.20888   0.22436   0.26786   0.27507
 Alpha virt. eigenvalues --    0.28495   0.29282   0.30631   0.31519   0.32471

 Mulliken charges:
               1
     1  C   -0.172243
     2  C   -0.219479
     3  C   -0.172267
     4  C    0.155802
     5  C   -0.167959
     6  C   -0.215071
     7  H    0.219761
     8  H    0.218620
     9  H    0.272108
    10  H    0.287144
    11  H    0.222824
    12  N    0.487570
    13  O   -0.455655
    14  O   -0.466010
    15  C   -0.170061
    16  C   -0.218345
    17  C   -0.172830
    18  C    0.157537
    19  C   -0.170292
    20  C   -0.218408
    21  H    0.227650
    22  H    0.224270
    23  H    0.273057
    24  H    0.278858
    25  H    0.226193
    26  N    0.485880
    27  O   -0.452081
    28  O   -0.466571
 Sum of Mulliken charges =  -0.00000

 Dipole moment (field-independent basis, Debye):
    X=             -6.7031    Y=              6.2574    Z=             -1.8531  Tot=              9.3552
 Quadrupole moment (field-independent basis, Debye-Ang):
   XX=            -81.7419   YY=           -102.4552   ZZ=           -106.5133
   XY=             16.1573   XZ=              5.9599   YZ=              2.3014

 Normal termination of Gaussian 16 at Thu May  6 01:54:50 2021.
