 Gaussian 16, Revision A.03,
 Gaussian 16:  EM64L-G16RevA.03 25-Dec-2016

 -------------
 #p 6-31g* mp2
 -------------

 ------------------------------------------------------
 Input file generated by CHIRIPA (05-May-2021 14:51:10)
 ------------------------------------------------------
 Symbolic Z-matrix:
 Charge =  0 Multiplicity = 1

                         Standard orientation:
 ---------------------------------------------------------------------
 Center     Atomic      Atomic             Coordinates (Angstroms)
 Number     Number       Type             X           Y           Z
 ---------------------------------------------------------------------
      1          6           0       -3.892819   -0.088543   -0.493219
      2          6           0       -4.368584   -1.292253    0.320856
      3          6           0       -5.139810   -2.308399   -0.522026
      4          1           0       -4.761580    0.400137   -0.955162
      5          1           0       -3.257128   -0.440351   -1.317550
      6          1           0       -5.002064   -0.938167    1.144228
      7          1           0       -3.498609   -1.778012    0.781070
      8          1           0       -4.513062   -2.689638   -1.334703
      9          1           0       -6.025059   -1.845022   -0.969482
     10          1           0       -5.470526   -3.160653    0.079763
     11          6           0       -3.120232    0.936143    0.335548
     12          6           0       -2.644467    2.139852   -0.478526
     13          6           0       -1.873241    3.155999    0.364356
     14          1           0       -3.755924    1.287950    1.159880
     15          1           0       -2.251472    0.447462    0.797491
     16          1           0       -3.514443    2.625611   -0.938741
     17          1           0       -2.010987    1.785767   -1.301899
     18          1           0       -0.987992    2.692621    0.811812
     19          1           0       -2.499990    3.537238    1.177033
     20          1           0       -1.542526    4.008253   -0.237434
     21          6           0        2.773088   -0.322974   -0.109141
     22          6           0        1.802714   -1.046928    0.824802
     23          6           0        0.339210   -0.835659    0.435809
     24          1           0        2.542703    0.751203   -0.105784
     25          1           0        2.611785   -0.674034   -1.137797
     26          1           0        1.966743   -0.695617    1.851590
     27          1           0        2.035557   -2.119481    0.819370
     28          1           0        0.153294   -1.203210   -0.578560
     29          1           0        0.084089    0.228743    0.459525
     30          1           0       -0.337139   -1.361890    1.116612
     31          6           0        4.239964   -0.524625    0.266811
     32          6           0        5.210338    0.199328   -0.667132
     33          6           0        6.673842   -0.011940   -0.278138
     34          1           0        4.401266   -0.173566    1.295467
     35          1           0        4.470349   -1.598802    0.263454
     36          1           0        4.977494    1.271882   -0.661699
     37          1           0        5.046308   -0.151982   -1.693919
     38          1           0        6.928963   -1.076342   -0.301855
     39          1           0        6.859757    0.355611    0.736229
     40          1           0        7.350190    0.514291   -0.958941
 ---------------------------------------------------------------------

 SCF Done:  E(RHF) =  -470.732623685     A.U. after   11 cycles
 E2 =    -0.1583666587D+01 EUMP2 =    -0.47231629027180D+03

 The electronic state is 1-A.
 Alpha  occ. eigenvalues --  -11.21687 -11.21635 -11.21530 -11.21523 -11.21465
 Alpha  occ. eigenvalues --  -11.21402 -11.21278 -11.21204 -11.21163 -11.21097
 Alpha  occ. eigenvalues --  -11.21065 -11.21018  -1.08497  -1.08328  -1.03609
 Alpha  occ. eigenvalues --   -1.03462  -0.96070  -0.95904  -0.87101  -0.86919
 Alpha  occ. eigenvalues --   -0.79699  -0.79512  -0.78316  -0.78121  -0.65165
 Alpha  occ. eigenvalues --   -0.64946  -0.61114  -0.60778  -0.59433  -0.59281
 Alpha  occ. eigenvalues --   -0.57661  -0.57518  -0.55350  -0.55215  -0.52789
 Alpha  occ. eigenvalues --   -0.52612  -0.52484  -0.52322  -0.50065  -0.49823
 Alpha  occ. eigenvalues --   -0.48031  -0.47807  -0.46793  -0.46498  -0.45917
 Alpha  occ. eigenvalues --   -0.45783  -0.45646  -0.45430  -0.43806  -0.43692
 Alpha virt. eigenvalues --    0.20725   0.22857   0.23418   0.24522   0.25951
 Alpha virt. eigenvalues --    0.26384   0.26830   0.27572   0.27895   0.29366
 Alpha virt. eigenvalues --    0.30088   0.31427   0.31751   0.31976   0.32255

 Mulliken charges:
               1
     1  C   -0.297624
     2  C   -0.300469
     3  C   -0.475594
     4  H    0.148920
     5  H    0.149570
     6  H    0.151625
     7  H    0.152324
     8  H    0.155036
     9  H    0.155058
    10  H    0.159868
    11  C   -0.306264
    12  C   -0.300009
    13  C   -0.477961
    14  H    0.148139
    15  H    0.161003
    16  H    0.151819
    17  H    0.152227
    18  H    0.155218
    19  H    0.155506
    20  H    0.160187
    21  C   -0.298780
    22  C   -0.299891
    23  C   -0.482410
    24  H    0.149924
    25  H    0.149587
    26  H    0.152399
    27  H    0.152300
    28  H    0.155744
    29  H    0.160578
    30  H    0.161303
    31  C   -0.298362
    32  C   -0.299718
    33  C   -0.475752
    34  H    0.149717
    35  H    0.149787
    36  H    0.152135
    37  H    0.151965
    38  H    0.155213
    39  H    0.155279
    40  H    0.160403
 Sum of Mulliken charges =  -0.00000

 Dipole moment (field-independent basis, Debye):
    X=              0.0645    Y=             -0.0199    Z=              0.0073  Tot=              0.0679
 Quadrupole moment (field-independent basis, Debye-Ang):
   XX=            -85.7491   YY=            -84.6261   ZZ=            -84.6428
   XY=             -0.8584   XZ=             -0.6567   YZ=              0.2253

 Normal termination of Gaussian 16 at Thu May  6 02:12:54 2021.
