 Gaussian 16, Revision A.03,
 Gaussian 16:  EM64L-G16RevA.03 25-Dec-2016

 -------------
 #p 6-31g* mp2
 -------------

 ------------------------------------------------------
 Input file generated by CHIRIPA (05-May-2021 14:57:26)
 ------------------------------------------------------
 Symbolic Z-matrix:
 Charge =  0 Multiplicity = 1

                         Standard orientation:
 ---------------------------------------------------------------------
 Center     Atomic      Atomic             Coordinates (Angstroms)
 Number     Number       Type             X           Y           Z
 ---------------------------------------------------------------------
      1          6           0       -3.652117   -2.062379   -0.903260
      2          6           0       -4.304001   -0.932746   -1.408726
      3          6           0       -4.039187    0.334923   -0.882003
      4          6           0       -3.112519    0.436907    0.154422
      5          6           0       -2.446777   -0.669655    0.679398
      6          6           0       -2.727217   -1.927466    0.137354
      7          1           0       -3.863901   -3.043306   -1.318382
      8          1           0       -5.022769   -1.034521   -2.216847
      9          1           0       -4.529512    1.226143   -1.254464
     10          1           0       -1.735308   -0.536591    1.485328
     11          1           0       -2.219452   -2.803005    0.531882
     12          7           0       -2.823901    1.773713    0.720149
     13          8           0       -2.003255    1.836875    1.632940
     14          8           0       -3.423793    2.733028    0.240064
     15          6           0        1.139193   -1.526864    0.690534
     16          6           0        2.359445   -1.678481    1.357256
     17          6           0        3.485727   -0.957580    0.949413
     18          6           0        3.355459   -0.089912   -0.133856
     19          6           0        2.153501    0.082909   -0.818487
     20          6           0        1.040289   -0.648202   -0.393298
     21          1           0        0.269346   -2.090844    1.014093
     22          1           0        2.439189   -2.360144    2.199289
     23          1           0        4.442591   -1.055756    1.447602
     24          1           0        2.104930    0.769991   -1.654535
     25          1           0        0.093902   -0.528442   -0.912966
     26          7           0        4.540886    0.678678   -0.574801
     27          8           0        4.400012    1.436705   -1.531978
     28          8           0        5.588450    0.508519    0.045110
 ---------------------------------------------------------------------

 SCF Done:  E(RHF) =  -868.335631568     A.U. after   16 cycles
 E2 =    -0.2602707419D+01 EUMP2 =    -0.87093833898731D+03

 The electronic state is 1-A.
 Alpha  occ. eigenvalues --  -20.61526 -20.61519 -20.60721 -20.60714 -15.86591
 Alpha  occ. eigenvalues --  -15.85773 -11.32209 -11.31229 -11.28855 -11.28753
 Alpha  occ. eigenvalues --  -11.28556 -11.27951 -11.27788 -11.27762 -11.27749
 Alpha  occ. eigenvalues --  -11.27683 -11.26906 -11.26805  -1.60601  -1.59791
 Alpha  occ. eigenvalues --   -1.40144  -1.39342  -1.20425  -1.19406  -1.09739
 Alpha  occ. eigenvalues --   -1.08832  -1.05877  -1.04806  -0.96538  -0.95647
 Alpha  occ. eigenvalues --   -0.87226  -0.86227  -0.83387  -0.82461  -0.78398
 Alpha  occ. eigenvalues --   -0.77461  -0.72798  -0.72001  -0.71939  -0.71521
 Alpha  occ. eigenvalues --   -0.71109  -0.70606  -0.66052  -0.65851  -0.65080
 Alpha  occ. eigenvalues --   -0.64856  -0.63171  -0.62156  -0.56303  -0.55423
 Alpha  occ. eigenvalues --   -0.54208  -0.53957  -0.53109  -0.52862  -0.49576
 Alpha  occ. eigenvalues --   -0.49538  -0.48761  -0.48742  -0.45492  -0.44727
 Alpha  occ. eigenvalues --   -0.38397  -0.37598  -0.37306  -0.36359
 Alpha virt. eigenvalues --    0.04129   0.05025   0.09987   0.11417   0.15480
 Alpha virt. eigenvalues --    0.16400   0.19046   0.21995   0.24876   0.27218
 Alpha virt. eigenvalues --    0.27369   0.29137   0.29870   0.31504   0.32433

 Mulliken charges:
               1
     1  C   -0.169999
     2  C   -0.218566
     3  C   -0.169940
     4  C    0.157927
     5  C   -0.180492
     6  C   -0.224427
     7  H    0.229583
     8  H    0.228022
     9  H    0.279769
    10  H    0.277590
    11  H    0.220452
    12  N    0.487933
    13  O   -0.457274
    14  O   -0.456841
    15  C   -0.174824
    16  C   -0.217185
    17  C   -0.170478
    18  C    0.160249
    19  C   -0.168878
    20  C   -0.217699
    21  H    0.212796
    22  H    0.222741
    23  H    0.276228
    24  H    0.277294
    25  H    0.227038
    26  N    0.487989
    27  O   -0.458925
    28  O   -0.460083
 Sum of Mulliken charges =  -0.00000

 Dipole moment (field-independent basis, Debye):
    X=             -5.3581    Y=             -7.1910    Z=             -0.5620  Tot=              8.9853
 Quadrupole moment (field-independent basis, Debye-Ang):
   XX=           -122.3041   YY=           -107.9410   ZZ=           -101.8993
   XY=              2.7396   XZ=             16.9396   YZ=             -4.4724

 Normal termination of Gaussian 16 at Fri May  7 00:28:55 2021.
