 Gaussian 16, Revision A.03,
 Gaussian 16:  EM64L-G16RevA.03 25-Dec-2016

 -------------
 #p 6-31g* mp2
 -------------

 ------------------------------------------------------
 Input file generated by CHIRIPA (05-May-2021 14:51:08)
 ------------------------------------------------------
 Symbolic Z-matrix:
 Charge =  0 Multiplicity = 1

                         Standard orientation:
 ---------------------------------------------------------------------
 Center     Atomic      Atomic             Coordinates (Angstroms)
 Number     Number       Type             X           Y           Z
 ---------------------------------------------------------------------
      1          6           0        3.190783   -0.307078    0.332107
      2          6           0        4.100167   -1.462396   -0.087710
      3          6           0        3.606007   -2.817786    0.418765
      4          1           0        3.117553   -0.286078    1.428073
      5          1           0        2.175725   -0.492765   -0.045482
      6          1           0        5.113524   -1.273906    0.289378
      7          1           0        4.171393   -1.480530   -1.182796
      8          1           0        2.604543   -3.031882    0.031683
      9          1           0        3.552026   -2.824085    1.512221
     10          1           0        4.270824   -3.629467    0.107231
     11          6           0        3.671614    1.054437   -0.166698
     12          6           0        2.762229    2.209755    0.253119
     13          6           0        3.256389    3.565145   -0.253356
     14          1           0        4.686672    1.240124    0.210890
     15          1           0        3.744843    1.033437   -1.262664
     16          1           0        2.691003    2.227889    1.348205
     17          1           0        1.748872    2.021265   -0.123969
     18          1           0        3.310370    3.571444   -1.346812
     19          1           0        4.257854    3.779241    0.133726
     20          1           0        2.591572    4.376826    0.058178
     21          6           0       -3.829829    0.271102    0.011005
     22          6           0       -5.337936    0.041792    0.115961
     23          6           0       -6.121832    1.341120    0.303174
     24          1           0       -3.479618    0.785051    0.916628
     25          1           0       -3.626548    0.947581   -0.830688
     26          1           0       -5.538203   -0.635152    0.956351
     27          1           0       -5.684566   -0.471841   -0.789933
     28          1           0       -5.951405    2.018711   -0.539694
     29          1           0       -5.804211    1.854472    1.216512
     30          1           0       -7.197730    1.153974    0.375848
     31          6           0       -3.032568   -1.018462   -0.176414
     32          6           0       -1.524460   -0.789151   -0.281370
     33          6           0       -0.740564   -2.088478   -0.468583
     34          1           0       -3.235848   -1.694940    0.665280
     35          1           0       -3.382779   -1.532411   -1.082038
     36          1           0       -1.177831   -0.275517    0.624524
     37          1           0       -1.324194   -0.112206   -1.121760
     38          1           0       -1.058186   -2.601832   -1.381922
     39          1           0       -0.910991   -2.766070    0.374285
     40          1           0        0.335333   -1.901334   -0.541256
 ---------------------------------------------------------------------

 SCF Done:  E(RHF) =  -470.733088129     A.U. after   11 cycles
 E2 =    -0.1583141745D+01 EUMP2 =    -0.47231622987448D+03

 The electronic state is 1-A.
 Alpha  occ. eigenvalues --  -11.21642 -11.21614 -11.21589 -11.21586 -11.21427
 Alpha  occ. eigenvalues --  -11.21393 -11.21367 -11.21333 -11.21094 -11.21080
 Alpha  occ. eigenvalues --  -11.21061 -11.21031  -1.08458  -1.08417  -1.03564
 Alpha  occ. eigenvalues --   -1.03509  -0.96008  -0.95964  -0.87026  -0.86980
 Alpha  occ. eigenvalues --   -0.79645  -0.79550  -0.78271  -0.78234  -0.65089
 Alpha  occ. eigenvalues --   -0.65070  -0.60963  -0.60933  -0.59469  -0.59242
 Alpha  occ. eigenvalues --   -0.57632  -0.57564  -0.55288  -0.55254  -0.52748
 Alpha  occ. eigenvalues --   -0.52645  -0.52471  -0.52357  -0.49949  -0.49901
 Alpha  occ. eigenvalues --   -0.48020  -0.47823  -0.46650  -0.46593  -0.45812
 Alpha  occ. eigenvalues --   -0.45762  -0.45728  -0.45677  -0.43779  -0.43744
 Alpha virt. eigenvalues --    0.20926   0.23072   0.23627   0.24460   0.26177
 Alpha virt. eigenvalues --    0.26621   0.26981   0.27293   0.28028   0.29298
 Alpha virt. eigenvalues --    0.30256   0.31379   0.31712   0.31912   0.32207

 Mulliken charges:
               1
     1  C   -0.306202
     2  C   -0.299376
     3  C   -0.479941
     4  H    0.149615
     5  H    0.156694
     6  H    0.152002
     7  H    0.151594
     8  H    0.159574
     9  H    0.155059
    10  H    0.160246
    11  C   -0.297581
    12  C   -0.300169
    13  C   -0.475689
    14  H    0.149563
    15  H    0.149474
    16  H    0.151756
    17  H    0.152751
    18  H    0.155110
    19  H    0.155130
    20  H    0.160256
    21  C   -0.298302
    22  C   -0.299675
    23  C   -0.475724
    24  H    0.149847
    25  H    0.149456
    26  H    0.152004
    27  H    0.151949
    28  H    0.155182
    29  H    0.155238
    30  H    0.160303
    31  C   -0.298453
    32  C   -0.299961
    33  C   -0.485334
    34  H    0.149818
    35  H    0.149742
    36  H    0.153216
    37  H    0.151197
    38  H    0.155288
    39  H    0.156078
    40  H    0.168266
 Sum of Mulliken charges =  -0.00000

 Dipole moment (field-independent basis, Debye):
    X=             -0.0199    Y=             -0.0033    Z=              0.0079  Tot=              0.0216
 Quadrupole moment (field-independent basis, Debye-Ang):
   XX=            -85.0919   YY=            -86.6137   ZZ=            -83.0951
   XY=              0.4217   XZ=              0.7107   YZ=              0.1911

 Normal termination of Gaussian 16 at Wed May  5 21:17:39 2021.
