 Gaussian 16, Revision A.03,
 Gaussian 16:  EM64L-G16RevA.03 25-Dec-2016

 -------------
 #p 6-31g* mp2
 -------------

 ------------------------------------------------------
 Input file generated by CHIRIPA (05-May-2021 14:51:14)
 ------------------------------------------------------
 Symbolic Z-matrix:
 Charge =  0 Multiplicity = 1

                         Standard orientation:
 ---------------------------------------------------------------------
 Center     Atomic      Atomic             Coordinates (Angstroms)
 Number     Number       Type             X           Y           Z
 ---------------------------------------------------------------------
      1          6           0       -4.305585    0.165535    0.178654
      2          6           0       -4.569288    1.441339   -0.621827
      3          6           0       -6.058608    1.764621   -0.745148
      4          1           0       -4.826174   -0.674742   -0.300791
      5          1           0       -4.742637    0.273017    1.181065
      6          1           0       -4.130665    1.332021   -1.621965
      7          1           0       -4.047853    2.278640   -0.140528
      8          1           0       -6.506579    1.900404    0.244542
      9          1           0       -6.589862    0.948407   -1.245312
     10          1           0       -6.224283    2.680435   -1.321080
     11          6           0       -2.821298   -0.170907    0.310664
     12          6           0       -2.557595   -1.446711    1.111146
     13          6           0       -1.068275   -1.769993    1.234466
     14          1           0       -2.384245   -0.278389   -0.691747
     15          1           0       -2.300708    0.669369    0.790110
     16          1           0       -3.079029   -2.284012    0.629847
     17          1           0       -2.996217   -1.337393    2.111284
     18          1           0       -0.537021   -0.953779    1.734631
     19          1           0       -0.620303   -1.905776    0.244777
     20          1           0       -0.902600   -2.685807    1.810398
     21          6           0        3.625182    0.658252    0.142451
     22          6           0        4.942454    1.391458   -0.112871
     23          6           0        5.051124    2.701152    0.668594
     24          1           0        2.788111    1.317354   -0.125577
     25          1           0        3.529960    0.453632    1.217838
     26          1           0        5.035811    1.593408   -1.187634
     27          1           0        5.776491    0.730464    0.155615
     28          1           0        4.983682    2.514104    1.745193
     29          1           0        4.238793    3.381951    0.394311
     30          1           0        6.000443    3.208810    0.471266
     31          6           0        3.501700   -0.652880   -0.631769
     32          6           0        2.184428   -1.386086   -0.376448
     33          6           0        2.075758   -2.695779   -1.157912
     34          1           0        3.596922   -0.448260   -1.707156
     35          1           0        4.338772   -1.311982   -0.363741
     36          1           0        1.350391   -0.725092   -0.644933
     37          1           0        2.091071   -1.588036    0.698316
     38          1           0        2.888089   -3.376579   -0.883630
     39          1           0        2.143200   -2.508731   -2.234511
     40          1           0        1.126439   -3.203438   -0.960584
 ---------------------------------------------------------------------

 SCF Done:  E(RHF) =  -470.732198632     A.U. after   11 cycles
 E2 =    -0.1583440591D+01 EUMP2 =    -0.47231563922308D+03

 The electronic state is 1-A.
 Alpha  occ. eigenvalues --  -11.21603 -11.21576 -11.21554 -11.21487 -11.21399
 Alpha  occ. eigenvalues --  -11.21358 -11.21339 -11.21292 -11.21072 -11.21055
 Alpha  occ. eigenvalues --  -11.21029 -11.20950  -1.08428  -1.08374  -1.03569
 Alpha  occ. eigenvalues --   -1.03434  -0.96034  -0.95876  -0.86982  -0.86961
 Alpha  occ. eigenvalues --   -0.79734  -0.79420  -0.78298  -0.78112  -0.65065
 Alpha  occ. eigenvalues --   -0.65003  -0.60986  -0.60848  -0.59383  -0.59311
 Alpha  occ. eigenvalues --   -0.57807  -0.57360  -0.55264  -0.55181  -0.52716
 Alpha  occ. eigenvalues --   -0.52615  -0.52403  -0.52293  -0.49912  -0.49836
 Alpha  occ. eigenvalues --   -0.48117  -0.47644  -0.46677  -0.46500  -0.45905
 Alpha  occ. eigenvalues --   -0.45723  -0.45633  -0.45516  -0.43762  -0.43743
 Alpha virt. eigenvalues --    0.21945   0.23095   0.23514   0.24929   0.26115
 Alpha virt. eigenvalues --    0.26615   0.26811   0.27506   0.27735   0.29237
 Alpha virt. eigenvalues --    0.30696   0.30989   0.31503   0.31915   0.32135

 Mulliken charges:
               1
     1  C   -0.298151
     2  C   -0.299636
     3  C   -0.475696
     4  H    0.149651
     5  H    0.149624
     6  H    0.151767
     7  H    0.151881
     8  H    0.155217
     9  H    0.155193
    10  H    0.160208
    11  C   -0.298366
    12  C   -0.300271
    13  C   -0.480297
    14  H    0.148876
    15  H    0.149588
    16  H    0.151359
    17  H    0.151431
    18  H    0.155493
    19  H    0.164013
    20  H    0.158801
    21  C   -0.298234
    22  C   -0.299563
    23  C   -0.475674
    24  H    0.149556
    25  H    0.149243
    26  H    0.151871
    27  H    0.151903
    28  H    0.155072
    29  H    0.155082
    30  H    0.160173
    31  C   -0.297937
    32  C   -0.301137
    33  C   -0.479796
    34  H    0.148961
    35  H    0.149202
    36  H    0.152406
    37  H    0.155789
    38  H    0.155470
    39  H    0.154663
    40  H    0.162265
 Sum of Mulliken charges =  -0.00000

 Dipole moment (field-independent basis, Debye):
    X=              0.0065    Y=             -0.0077    Z=              0.0101  Tot=              0.0143
 Quadrupole moment (field-independent basis, Debye-Ang):
   XX=            -85.9270   YY=            -85.3469   ZZ=            -83.7545
   XY=             -0.0861   XZ=              0.1718   YZ=             -0.3399

 Normal termination of Gaussian 16 at Wed May  5 18:24:35 2021.
