 Gaussian 16, Revision A.03,
 Gaussian 16:  EM64L-G16RevA.03 25-Dec-2016

 -------------
 #p 6-31g* mp2
 -------------

 ------------------------------------------------------
 Input file generated by CHIRIPA (05-May-2021 14:55:24)
 ------------------------------------------------------
 Symbolic Z-matrix:
 Charge =  0 Multiplicity = 1

                         Standard orientation:
 ---------------------------------------------------------------------
 Center     Atomic      Atomic             Coordinates (Angstroms)
 Number     Number       Type             X           Y           Z
 ---------------------------------------------------------------------
      1          6           0        2.133251    1.948583   -1.332572
      2          6           0        1.308723    0.944345   -0.814711
      3          6           0        1.862929   -0.187856   -0.210124
      4          6           0        3.251889   -0.283712   -0.140180
      5          6           0        4.099924    0.699872   -0.646824
      6          6           0        3.523769    1.823362   -1.247126
      7          1           0        1.694205    2.824720   -1.800566
      8          1           0        0.228500    1.038919   -0.879664
      9          1           0        1.248023   -0.980271    0.199004
     10          1           0        5.173282    0.577426   -0.567274
     11          1           0        4.166563    2.601697   -1.648443
     12          7           0        3.850221   -1.477711    0.497601
     13          8           0        5.076819   -1.538378    0.546726
     14          8           0        3.081265   -2.330292    0.936293
     15          6           0       -4.294997   -0.081825   -0.378244
     16          6           0       -5.426015   -1.109995   -0.337676
     17          6           0       -5.933157   -1.486202   -1.730181
     18          1           0       -4.646316    0.819990   -0.898100
     19          1           0       -3.464879   -0.483588   -0.975644
     20          1           0       -6.253198   -0.706976    0.260622
     21          1           0       -5.072023   -2.009393    0.182314
     22          1           0       -5.124421   -1.912463   -2.332549
     23          1           0       -6.312308   -0.602646   -2.253795
     24          1           0       -6.741377   -2.222336   -1.677766
     25          6           0       -3.777391    0.304356    1.006197
     26          6           0       -2.646372    1.332528    0.965628
     27          6           0       -2.139231    1.708734    2.358132
     28          1           0       -4.607509    0.706119    1.603597
     29          1           0       -3.426071   -0.597457    1.526052
     30          1           0       -3.000366    2.231925    0.445639
     31          1           0       -1.819191    0.929508    0.367330
     32          1           0       -1.760080    0.825177    2.881748
     33          1           0       -2.947967    2.134995    2.960502
     34          1           0       -1.331011    2.444868    2.305718
 ---------------------------------------------------------------------

 SCF Done:  E(RHF) =  -669.535510024     A.U. after   15 cycles
 E2 =    -0.2091084419D+01 EUMP2 =    -0.67162659444283D+03

 The electronic state is 1-A.
 Alpha  occ. eigenvalues --  -20.60754 -20.60749 -15.85807 -11.31169 -11.27738
 Alpha  occ. eigenvalues --  -11.27734 -11.27474 -11.26753 -11.26718 -11.22470
 Alpha  occ. eigenvalues --  -11.22023 -11.21994 -11.21925 -11.21681 -11.21416
 Alpha  occ. eigenvalues --   -1.59829  -1.39383  -1.19340  -1.09030  -1.08734
 Alpha  occ. eigenvalues --   -1.04744  -1.04098  -0.96511  -0.95571  -0.87528
 Alpha  occ. eigenvalues --   -0.86142  -0.82407  -0.80190  -0.78843  -0.77451
 Alpha  occ. eigenvalues --   -0.72026  -0.71152  -0.70449  -0.65687  -0.64991
 Alpha  occ. eigenvalues --   -0.64746  -0.62142  -0.61454  -0.59892  -0.58132
 Alpha  occ. eigenvalues --   -0.55787  -0.55242  -0.53215  -0.53070  -0.52942
 Alpha  occ. eigenvalues --   -0.52836  -0.50448  -0.48793  -0.48781  -0.48474
 Alpha  occ. eigenvalues --   -0.47222  -0.46369  -0.46290  -0.44790  -0.44348
 Alpha  occ. eigenvalues --   -0.37319  -0.36343
 Alpha virt. eigenvalues --    0.05079   0.11291   0.16539   0.19747   0.22641
 Alpha virt. eigenvalues --    0.23803   0.24996   0.26495   0.27505   0.28295
 Alpha virt. eigenvalues --    0.28649   0.30223   0.31146   0.31388   0.32243

 Mulliken charges:
               1
     1  C   -0.172032
     2  C   -0.223984
     3  C   -0.172712
     4  C    0.158562
     5  C   -0.171077
     6  C   -0.218477
     7  H    0.226128
     8  H    0.232394
     9  H    0.274711
    10  H    0.275542
    11  H    0.223307
    12  N    0.488156
    13  O   -0.460508
    14  O   -0.460624
    15  C   -0.298226
    16  C   -0.300257
    17  C   -0.476120
    18  H    0.149531
    19  H    0.145967
    20  H    0.153249
    21  H    0.154082
    22  H    0.155452
    23  H    0.154991
    24  H    0.162295
    25  C   -0.298357
    26  C   -0.304236
    27  C   -0.476091
    28  H    0.152759
    29  H    0.152627
    30  H    0.152444
    31  H    0.142668
    32  H    0.158971
    33  H    0.158531
    34  H    0.160335
 Sum of Mulliken charges =  -0.00000

 Dipole moment (field-independent basis, Debye):
    X=             -2.2685    Y=              4.2096    Z=             -2.1698  Tot=              5.2512
 Quadrupole moment (field-independent basis, Debye-Ang):
   XX=           -103.4044   YY=            -96.5856   ZZ=            -95.4283
   XY=             15.7307   XZ=             -8.7393   YZ=             -0.6453

 Normal termination of Gaussian 16 at Wed May  5 20:47:01 2021.
