 Gaussian 16, Revision A.03,
 Gaussian 16:  EM64L-G16RevA.03 25-Dec-2016

 -------------
 #p 6-31g* mp2
 -------------

 ------------------------------------------------------
 Input file generated by CHIRIPA (05-May-2021 14:55:24)
 ------------------------------------------------------
 Symbolic Z-matrix:
 Charge =  0 Multiplicity = 1

                         Standard orientation:
 ---------------------------------------------------------------------
 Center     Atomic      Atomic             Coordinates (Angstroms)
 Number     Number       Type             X           Y           Z
 ---------------------------------------------------------------------
      1          6           0        0.939799    0.183223   -0.305144
      2          6           0        1.824698    1.265864   -0.342077
      3          6           0        3.200819    1.063208   -0.201478
      4          6           0        3.659635   -0.241225   -0.024747
      5          6           0        2.803257   -1.340413    0.016396
      6          6           0        1.431037   -1.114172   -0.126340
      7          1           0       -0.127690    0.349812   -0.415195
      8          1           0        1.446028    2.274530   -0.480808
      9          1           0        3.908175    1.883240   -0.226236
     10          1           0        3.210572   -2.334397    0.156069
     11          1           0        0.746149   -1.956864   -0.097255
     12          7           0        5.114408   -0.468252    0.125230
     13          8           0        5.493435   -1.627171    0.279766
     14          8           0        5.848087    0.517023    0.085407
     15          6           0       -3.652904    0.496301    0.007982
     16          6           0       -3.482551    1.996351    0.250499
     17          6           0       -2.027552    2.452144    0.136373
     18          1           0       -3.036044   -0.057589    0.728840
     19          1           0       -3.266866    0.247156   -0.990164
     20          1           0       -3.870061    2.242823    1.247345
     21          1           0       -4.100036    2.546732   -0.470895
     22          1           0       -1.632885    2.234740   -0.861410
     23          1           0       -1.401604    1.929104    0.866593
     24          1           0       -1.928710    3.527672    0.313375
     25          6           0       -5.101966    0.025448    0.118649
     26          6           0       -5.272318   -1.474602   -0.123867
     27          6           0       -6.727318   -1.930395   -0.009743
     28          1           0       -5.488003    0.274592    1.116795
     29          1           0       -5.718825    0.579339   -0.602208
     30          1           0       -4.654833   -2.024982    0.597527
     31          1           0       -4.884808   -1.721074   -1.120714
     32          1           0       -7.353265   -1.407355   -0.739962
     33          1           0       -7.121984   -1.712990    0.988042
     34          1           0       -6.826160   -3.005923   -0.186744
 ---------------------------------------------------------------------

 SCF Done:  E(RHF) =  -669.535032907     A.U. after   15 cycles
 E2 =    -0.2092033626D+01 EUMP2 =    -0.67162706653233D+03

 The electronic state is 1-A.
 Alpha  occ. eigenvalues --  -20.60670 -20.60665 -15.85723 -11.31057 -11.27627
 Alpha  occ. eigenvalues --  -11.27623 -11.27232 -11.26610 -11.26594 -11.22753
 Alpha  occ. eigenvalues --  -11.22551 -11.22512 -11.22382 -11.22258 -11.21693
 Alpha  occ. eigenvalues --   -1.59747  -1.39301  -1.19220  -1.09453  -1.08610
 Alpha  occ. eigenvalues --   -1.04625  -1.04538  -0.97028  -0.95452  -0.88048
 Alpha  occ. eigenvalues --   -0.86010  -0.82302  -0.80634  -0.79251  -0.77351
 Alpha  occ. eigenvalues --   -0.71940  -0.71070  -0.70328  -0.66067  -0.64866
 Alpha  occ. eigenvalues --   -0.64629  -0.61976  -0.61922  -0.60412  -0.58639
 Alpha  occ. eigenvalues --   -0.56317  -0.55164  -0.53684  -0.53359  -0.52944
 Alpha  occ. eigenvalues --   -0.52700  -0.50956  -0.48894  -0.48698  -0.48687
 Alpha  occ. eigenvalues --   -0.47642  -0.46770  -0.46678  -0.44781  -0.44714
 Alpha  occ. eigenvalues --   -0.37175  -0.36236
 Alpha virt. eigenvalues --    0.05162   0.11388   0.16608   0.20221   0.22227
 Alpha virt. eigenvalues --    0.23654   0.25417   0.25900   0.26122   0.27665
 Alpha virt. eigenvalues --    0.29657   0.29715   0.30399   0.30916   0.31437

 Mulliken charges:
               1
     1  C   -0.177057
     2  C   -0.222987
     3  C   -0.170899
     4  C    0.158003
     5  C   -0.170899
     6  C   -0.220877
     7  H    0.237392
     8  H    0.225313
     9  H    0.275038
    10  H    0.274911
    11  H    0.223103
    12  N    0.488071
    13  O   -0.460872
    14  O   -0.460852
    15  C   -0.302610
    16  C   -0.298695
    17  C   -0.488237
    18  H    0.147396
    19  H    0.147257
    20  H    0.157134
    21  H    0.156504
    22  H    0.150784
    23  H    0.157182
    24  H    0.167539
    25  C   -0.298572
    26  C   -0.300521
    27  C   -0.476278
    28  H    0.152482
    29  H    0.152441
    30  H    0.151443
    31  H    0.151837
    32  H    0.156621
    33  H    0.156687
    34  H    0.162217
 Sum of Mulliken charges =  -0.00000

 Dipole moment (field-independent basis, Debye):
    X=             -5.4822    Y=              0.8721    Z=             -0.4866  Tot=              5.5724
 Quadrupole moment (field-independent basis, Debye-Ang):
   XX=           -132.6514   YY=            -90.2084   ZZ=            -94.5853
   XY=              4.4734   XZ=             -1.8452   YZ=             -0.4794

 Normal termination of Gaussian 16 at Thu May  6 20:55:18 2021.
