 Gaussian 16, Revision A.03,
 Gaussian 16:  EM64L-G16RevA.03 25-Dec-2016

 -------------
 #p 6-31g* mp2
 -------------

 ------------------------------------------------------
 Input file generated by CHIRIPA (05-May-2021 14:51:11)
 ------------------------------------------------------
 Symbolic Z-matrix:
 Charge =  0 Multiplicity = 1

                         Standard orientation:
 ---------------------------------------------------------------------
 Center     Atomic      Atomic             Coordinates (Angstroms)
 Number     Number       Type             X           Y           Z
 ---------------------------------------------------------------------
      1          6           0        3.112792   -0.102051   -0.086639
      2          6           0        4.483659   -0.306794   -0.732231
      3          6           0        5.178378    1.011362   -1.075196
      4          1           0        2.478021    0.482566   -0.766517
      5          1           0        3.230878    0.499384    0.825352
      6          1           0        4.363198   -0.908832   -1.641986
      7          1           0        5.115178   -0.891155   -0.050819
      8          1           0        5.327663    1.614132   -0.173541
      9          1           0        4.571411    1.596355   -1.773749
     10          1           0        6.156663    0.841642   -1.535645
     11          6           0        2.405827   -1.410628    0.262007
     12          6           0        1.034960   -1.205884    0.907599
     13          6           0        0.340241   -2.524040    1.250565
     14          1           0        2.287741   -2.012062   -0.649983
     15          1           0        3.040598   -1.995244    0.941885
     16          1           0        0.403442   -0.621523    0.226187
     17          1           0        1.155421   -0.603846    1.817355
     18          1           0        0.947208   -3.109033    1.949117
     19          1           0        0.190956   -3.126810    0.348909
     20          1           0       -0.638044   -2.354320    1.711013
     21          6           0       -3.338531    0.278423    0.052070
     22          6           0       -3.854922   -0.431019   -1.200135
     23          6           0       -5.013641   -1.383746   -0.904371
     24          1           0       -3.018490   -0.473650    0.786171
     25          1           0       -4.163933    0.836275    0.515652
     26          1           0       -3.028465   -0.986245   -1.661987
     27          1           0       -4.173594    0.322834   -1.931416
     28          1           0       -5.856350   -0.840559   -0.464609
     29          1           0       -4.704715   -2.157075   -0.193648
     30          1           0       -5.367257   -1.880172   -1.813424
     31          6           0       -2.180088    1.234255   -0.227438
     32          6           0       -1.663697    1.943697    1.024767
     33          6           0       -0.504979    2.896424    0.729002
     34          1           0       -1.354687    0.676403   -0.691021
     35          1           0       -2.500130    1.986328   -0.961539
     36          1           0       -1.345026    1.189845    1.756048
     37          1           0       -2.490155    2.498924    1.486618
     38          1           0       -0.813905    3.669753    0.018280
     39          1           0        0.337731    2.353237    0.289240
     40          1           0       -0.151363    3.392850    1.638055
 ---------------------------------------------------------------------

 SCF Done:  E(RHF) =  -470.733141351     A.U. after   11 cycles
 E2 =    -0.1584261440D+01 EUMP2 =    -0.47231740279027D+03

 The electronic state is 1-A.
 Alpha  occ. eigenvalues --  -11.21661 -11.21641 -11.21600 -11.21544 -11.21469
 Alpha  occ. eigenvalues --  -11.21410 -11.21393 -11.21332 -11.21165 -11.21089
 Alpha  occ. eigenvalues --  -11.21065 -11.21002  -1.08511  -1.08398  -1.03601
 Alpha  occ. eigenvalues --   -1.03489  -0.96041  -0.95949  -0.87059  -0.86964
 Alpha  occ. eigenvalues --   -0.79661  -0.79564  -0.78343  -0.78207  -0.65280
 Alpha  occ. eigenvalues --   -0.64928  -0.61037  -0.60862  -0.59389  -0.59320
 Alpha  occ. eigenvalues --   -0.57658  -0.57558  -0.55367  -0.55194  -0.52732
 Alpha  occ. eigenvalues --   -0.52644  -0.52467  -0.52375  -0.50044  -0.49845
 Alpha  occ. eigenvalues --   -0.48036  -0.47831  -0.46834  -0.46552  -0.46070
 Alpha  occ. eigenvalues --   -0.45826  -0.45694  -0.45308  -0.43841  -0.43761
 Alpha virt. eigenvalues --    0.19661   0.22565   0.23638   0.24499   0.25334
 Alpha virt. eigenvalues --    0.26108   0.26508   0.27695   0.29097   0.29381
 Alpha virt. eigenvalues --    0.30871   0.31199   0.31731   0.31797   0.31967

 Mulliken charges:
               1
     1  C   -0.300266
     2  C   -0.299726
     3  C   -0.475813
     4  H    0.150383
     5  H    0.150445
     6  H    0.152011
     7  H    0.152189
     8  H    0.155447
     9  H    0.155431
    10  H    0.160374
    11  C   -0.297895
    12  C   -0.308594
    13  C   -0.476765
    14  H    0.149436
    15  H    0.149992
    16  H    0.160181
    17  H    0.152876
    18  H    0.155853
    19  H    0.155257
    20  H    0.160416
    21  C   -0.299575
    22  C   -0.299446
    23  C   -0.475752
    24  H    0.150634
    25  H    0.149712
    26  H    0.151568
    27  H    0.151908
    28  H    0.155163
    29  H    0.155376
    30  H    0.160192
    31  C   -0.302161
    32  C   -0.301048
    33  C   -0.478772
    34  H    0.151915
    35  H    0.149912
    36  H    0.154491
    37  H    0.151726
    38  H    0.154558
    39  H    0.158561
    40  H    0.159807
 Sum of Mulliken charges =  -0.00000

 Dipole moment (field-independent basis, Debye):
    X=              0.0341    Y=             -0.0161    Z=              0.0060  Tot=              0.0382
 Quadrupole moment (field-independent basis, Debye-Ang):
   XX=            -85.1930   YY=            -85.5390   ZZ=            -83.9865
   XY=             -1.6480   XZ=              0.7569   YZ=              0.1805

 Normal termination of Gaussian 16 at Thu May  6 00:40:07 2021.
