 Gaussian 16, Revision A.03,
 Gaussian 16:  EM64L-G16RevA.03 25-Dec-2016

 -------------
 #p 6-31g* mp2
 -------------

 ------------------------------------------------------
 Input file generated by CHIRIPA (05-May-2021 14:57:23)
 ------------------------------------------------------
 Symbolic Z-matrix:
 Charge =  0 Multiplicity = 1

                         Standard orientation:
 ---------------------------------------------------------------------
 Center     Atomic      Atomic             Coordinates (Angstroms)
 Number     Number       Type             X           Y           Z
 ---------------------------------------------------------------------
      1          6           0       -0.990406   -1.381257    0.141012
      2          6           0       -1.981489   -1.572938    1.109276
      3          6           0       -3.228960   -0.955075    0.980403
      4          6           0       -3.452248   -0.148471   -0.134417
      5          6           0       -2.485097    0.062011   -1.116051
      6          6           0       -1.244924   -0.565832   -0.966608
      7          1           0       -0.024175   -1.865105    0.249113
      8          1           0       -1.786628   -2.205670    1.970510
      9          1           0       -4.014126   -1.086256    1.715062
     10          1           0       -2.708868    0.698426   -1.963589
     11          1           0       -0.477113   -0.415166   -1.720140
     12          7           0       -4.769026    0.510916   -0.281737
     13          8           0       -4.940817    1.216742   -1.273167
     14          8           0       -5.604394    0.309432    0.597014
     15          6           0        2.601676    2.614187    0.749583
     16          6           0        3.544071    2.392051   -0.259906
     17          6           0        3.902709    1.090328   -0.622459
     18          6           0        3.296477    0.029276    0.048317
     19          6           0        2.354268    0.218174    1.058195
     20          6           0        2.010824    1.528455    1.404257
     21          1           0        2.328980    3.628721    1.024818
     22          1           0        4.004558    3.233332   -0.770046
     23          1           0        4.629389    0.889749   -1.400355
     24          1           0        1.912338   -0.640621    1.548690
     25          1           0        1.278645    1.697971    2.188619
     26          7           0        3.668108   -1.353330   -0.326772
     27          8           0        3.119573   -2.271093    0.279411
     28          8           0        4.500888   -1.493072   -1.219848
 ---------------------------------------------------------------------

 SCF Done:  E(RHF) =  -868.339020609     A.U. after   16 cycles
 E2 =    -0.2600476262D+01 EUMP2 =    -0.87093949687149D+03

 The electronic state is 1-A.
 Alpha  occ. eigenvalues --  -20.61879 -20.61827 -20.60879 -20.60874 -15.86873
 Alpha  occ. eigenvalues --  -15.85932 -11.32075 -11.31269 -11.28646 -11.28563
 Alpha  occ. eigenvalues --  -11.28235 -11.27839 -11.27822 -11.27541 -11.27524
 Alpha  occ. eigenvalues --  -11.27444 -11.26820 -11.26786  -1.60912  -1.59957
 Alpha  occ. eigenvalues --   -1.40475  -1.39511  -1.20212  -1.19430  -1.09621
 Alpha  occ. eigenvalues --   -1.08814  -1.05575  -1.04827  -0.96492  -0.95653
 Alpha  occ. eigenvalues --   -0.86983  -0.86213  -0.83320  -0.82490  -0.78416
 Alpha  occ. eigenvalues --   -0.77557  -0.73088  -0.72241  -0.72146  -0.71321
 Alpha  occ. eigenvalues --   -0.71283  -0.70448  -0.65848  -0.65552  -0.65067
 Alpha  occ. eigenvalues --   -0.64811  -0.62933  -0.62172  -0.56057  -0.55245
 Alpha  occ. eigenvalues --   -0.53943  -0.53634  -0.53135  -0.52899  -0.49866
 Alpha  occ. eigenvalues --   -0.49819  -0.48907  -0.48902  -0.45897  -0.44923
 Alpha  occ. eigenvalues --   -0.38172  -0.37618  -0.36949  -0.36424
 Alpha virt. eigenvalues --    0.04032   0.04988   0.10415   0.11208   0.15585
 Alpha virt. eigenvalues --    0.16449   0.20293   0.21653   0.26031   0.27139
 Alpha virt. eigenvalues --    0.27297   0.28671   0.30322   0.30967   0.32316

 Mulliken charges:
               1
     1  C   -0.183568
     2  C   -0.222544
     3  C   -0.171662
     4  C    0.157718
     5  C   -0.172257
     6  C   -0.218272
     7  H    0.240907
     8  H    0.224259
     9  H    0.275204
    10  H    0.274991
    11  H    0.225321
    12  N    0.488018
    13  O   -0.460801
    14  O   -0.460646
    15  C   -0.170518
    16  C   -0.218329
    17  C   -0.171694
    18  C    0.155640
    19  C   -0.173761
    20  C   -0.216171
    21  H    0.229974
    22  H    0.226827
    23  H    0.277293
    24  H    0.269682
    25  H    0.227753
    26  N    0.488427
    27  O   -0.467671
    28  O   -0.454121
 Sum of Mulliken charges =  -0.00000

 Dipole moment (field-independent basis, Debye):
    X=              3.5577    Y=              2.7186    Z=              1.7988  Tot=              4.8253
 Quadrupole moment (field-independent basis, Debye-Ang):
   XX=           -143.8641   YY=           -103.0473   ZZ=            -99.3292
   XY=             26.0077   XZ=             -2.2847   YZ=             -2.7559

 Normal termination of Gaussian 16 at Thu May  6 22:46:18 2021.
