 Gaussian 16, Revision A.03,
 Gaussian 16:  EM64L-G16RevA.03 25-Dec-2016

 -------------
 #p 6-31g* mp2
 -------------

 ------------------------------------------------------
 Input file generated by CHIRIPA (05-May-2021 14:51:11)
 ------------------------------------------------------
 Symbolic Z-matrix:
 Charge =  0 Multiplicity = 1

                         Standard orientation:
 ---------------------------------------------------------------------
 Center     Atomic      Atomic             Coordinates (Angstroms)
 Number     Number       Type             X           Y           Z
 ---------------------------------------------------------------------
      1          6           0        3.434424    0.770079   -0.369875
      2          6           0        4.218310    1.264011    0.846487
      3          6           0        4.634050    2.730464    0.726192
      4          1           0        4.045940    0.906471   -1.272310
      5          1           0        2.540774    1.395993   -0.500323
      6          1           0        5.109489    0.636483    0.975422
      7          1           0        3.604931    1.126250    1.746156
      8          1           0        3.753918    3.372992    0.620709
      9          1           0        5.267026    2.880442   -0.154404
     10          1           0        5.193145    3.062754    1.606451
     11          6           0        3.011782   -0.694158   -0.264461
     12          6           0        2.227895   -1.188091   -1.480823
     13          6           0        1.812155   -2.654543   -1.360528
     14          1           0        3.905431   -1.320072   -0.134013
     15          1           0        2.400265   -0.830550    0.637974
     16          1           0        2.841275   -1.050330   -2.380492
     17          1           0        1.336716   -0.560562   -1.609758
     18          1           0        1.179179   -2.804521   -0.479932
     19          1           0        2.692287   -3.297071   -1.255045
     20          1           0        1.253060   -2.986833   -2.240788
     21          6           0       -3.766236    0.495808    0.376570
     22          6           0       -4.077448    1.194211   -0.947578
     23          6           0       -5.166009    2.259385   -0.812552
     24          1           0       -4.684849    0.036022    0.766048
     25          1           0       -3.455409    1.247460    1.115352
     26          1           0       -4.386266    0.441303   -1.684039
     27          1           0       -3.157946    1.652226   -1.334044
     28          1           0       -4.862816    3.031665   -0.098229
     29          1           0       -6.098115    1.813861   -0.450214
     30          1           0       -5.372642    2.745972   -1.770882
     31          6           0       -2.679969   -0.571728    0.257766
     32          6           0       -2.368757   -1.270131    1.581914
     33          6           0       -1.280196   -2.335305    1.446888
     34          1           0       -2.990796   -1.323382   -0.481016
     35          1           0       -1.761356   -0.111942   -0.131711
     36          1           0       -3.288259   -1.728145    1.968380
     37          1           0       -2.059939   -0.517223    2.318376
     38          1           0       -0.348091   -1.889783    1.084549
     39          1           0       -1.583389   -3.107585    0.732565
     40          1           0       -1.073564   -2.821894    2.405217
 ---------------------------------------------------------------------

 SCF Done:  E(RHF) =  -470.733156564     A.U. after   11 cycles
 E2 =    -0.1582960354D+01 EUMP2 =    -0.47231611691859D+03

 The electronic state is 1-A.
 Alpha  occ. eigenvalues --  -11.21660 -11.21633 -11.21614 -11.21581 -11.21452
 Alpha  occ. eigenvalues --  -11.21418 -11.21391 -11.21359 -11.21134 -11.21095
 Alpha  occ. eigenvalues --  -11.21084 -11.20950  -1.08479  -1.08431  -1.03588
 Alpha  occ. eigenvalues --   -1.03506  -0.96047  -0.95946  -0.87075  -0.86953
 Alpha  occ. eigenvalues --   -0.79677  -0.79547  -0.78293  -0.78242  -0.65163
 Alpha  occ. eigenvalues --   -0.65021  -0.61085  -0.60830  -0.59391  -0.59332
 Alpha  occ. eigenvalues --   -0.57697  -0.57528  -0.55391  -0.55190  -0.52726
 Alpha  occ. eigenvalues --   -0.52649  -0.52553  -0.52294  -0.50041  -0.49842
 Alpha  occ. eigenvalues --   -0.48074  -0.47782  -0.46725  -0.46539  -0.45903
 Alpha  occ. eigenvalues --   -0.45773  -0.45714  -0.45622  -0.43832  -0.43775
 Alpha virt. eigenvalues --    0.20339   0.23152   0.23670   0.24979   0.25970
 Alpha virt. eigenvalues --    0.26103   0.27005   0.27749   0.28197   0.29056
 Alpha virt. eigenvalues --    0.30704   0.31338   0.31559   0.31730   0.31940

 Mulliken charges:
               1
     1  C   -0.298074
     2  C   -0.299663
     3  C   -0.475690
     4  H    0.149907
     5  H    0.148954
     6  H    0.152100
     7  H    0.151834
     8  H    0.155019
     9  H    0.155264
    10  H    0.160310
    11  C   -0.300423
    12  C   -0.300033
    13  C   -0.481750
    14  H    0.150010
    15  H    0.150217
    16  H    0.152036
    17  H    0.151585
    18  H    0.162995
    19  H    0.154545
    20  H    0.159799
    21  C   -0.298342
    22  C   -0.299663
    23  C   -0.475738
    24  H    0.149883
    25  H    0.149482
    26  H    0.152108
    27  H    0.151830
    28  H    0.155186
    29  H    0.155260
    30  H    0.160398
    31  C   -0.298659
    32  C   -0.299750
    33  C   -0.481370
    34  H    0.150036
    35  H    0.149321
    36  H    0.152357
    37  H    0.151801
    38  H    0.159607
    39  H    0.156498
    40  H    0.160814
 Sum of Mulliken charges =  -0.00000

 Dipole moment (field-independent basis, Debye):
    X=             -0.0291    Y=             -0.0169    Z=              0.0151  Tot=              0.0369
 Quadrupole moment (field-independent basis, Debye-Ang):
   XX=            -84.1572   YY=            -85.9153   ZZ=            -84.5890
   XY=              0.5366   XZ=             -0.3003   YZ=              0.2162

 Normal termination of Gaussian 16 at Thu May  6 05:27:57 2021.
