 Gaussian 16, Revision A.03,
 Gaussian 16:  EM64L-G16RevA.03 25-Dec-2016

 -------------
 #p 6-31g* mp2
 -------------

 ------------------------------------------------------
 Input file generated by CHIRIPA (05-May-2021 14:57:23)
 ------------------------------------------------------
 Symbolic Z-matrix:
 Charge =  0 Multiplicity = 1

                         Standard orientation:
 ---------------------------------------------------------------------
 Center     Atomic      Atomic             Coordinates (Angstroms)
 Number     Number       Type             X           Y           Z
 ---------------------------------------------------------------------
      1          6           0        4.357289   -1.450688   -1.385656
      2          6           0        3.310494   -2.025009   -0.657028
      3          6           0        2.592779   -1.266630    0.272645
      4          6           0        2.950296    0.069144    0.449220
      5          6           0        3.988173    0.669994   -0.261470
      6          6           0        4.692196   -0.107387   -1.185904
      7          1           0        4.909509   -2.047196   -2.105813
      8          1           0        3.048196   -3.067995   -0.810083
      9          1           0        1.777913   -1.685980    0.850188
     10          1           0        4.226412    1.712218   -0.087026
     11          1           0        5.504682    0.341287   -1.750354
     12          7           0        2.197731    0.882065    1.430651
     13          8           0        2.532319    2.056753    1.567747
     14          8           0        1.287532    0.329152    2.044215
     15          6           0       -1.798305    2.047261   -1.186177
     16          6           0       -3.185310    2.123509   -1.022095
     17          6           0       -3.902572    1.031283   -0.524979
     18          6           0       -3.197689   -0.126819   -0.200585
     19          6           0       -1.816126   -0.233631   -0.352781
     20          6           0       -1.119336    0.871007   -0.851586
     21          1           0       -1.249070    2.900548   -1.573005
     22          1           0       -3.715234    3.035725   -1.281113
     23          1           0       -4.976649    1.063097   -0.387995
     24          1           0       -1.315559   -1.156449   -0.085838
     25          1           0       -0.042201    0.808938   -0.977970
     26          7           0       -3.946186   -1.289680    0.326584
     27          8           0       -3.301809   -2.298591    0.604996
     28          8           0       -5.163061   -1.170201    0.451384
 ---------------------------------------------------------------------

 SCF Done:  E(RHF) =  -868.338017390     A.U. after   16 cycles
 E2 =    -0.2600486274D+01 EUMP2 =    -0.87093850366460D+03

 The electronic state is 1-A.
 Alpha  occ. eigenvalues --  -20.61529 -20.61506 -20.60381 -20.60373 -15.86559
 Alpha  occ. eigenvalues --  -15.85431 -11.31966 -11.30689 -11.28497 -11.28489
 Alpha  occ. eigenvalues --  -11.28173 -11.27477 -11.27455 -11.27282 -11.27264
 Alpha  occ. eigenvalues --  -11.26986 -11.26270 -11.26257  -1.60601  -1.59453
 Alpha  occ. eigenvalues --   -1.40148  -1.39012  -1.20112  -1.18856  -1.09490
 Alpha  occ. eigenvalues --   -1.08273  -1.05488  -1.04257  -0.96319  -0.95127
 Alpha  occ. eigenvalues --   -0.86882  -0.85672  -0.83132  -0.81974  -0.78198
 Alpha  occ. eigenvalues --   -0.77039  -0.72758  -0.71961  -0.71659  -0.71166
 Alpha  occ. eigenvalues --   -0.70767  -0.69984  -0.65735  -0.65454  -0.64524
 Alpha  occ. eigenvalues --   -0.64292  -0.62823  -0.61631  -0.55947  -0.54775
 Alpha  occ. eigenvalues --   -0.53844  -0.53551  -0.52562  -0.52376  -0.49529
 Alpha  occ. eigenvalues --   -0.49526  -0.48415  -0.48404  -0.45532  -0.44441
 Alpha  occ. eigenvalues --   -0.38080  -0.37100  -0.36819  -0.35816
 Alpha virt. eigenvalues --    0.04281   0.05527   0.10489   0.11815   0.15803
 Alpha virt. eigenvalues --    0.17035   0.20460   0.21681   0.25752   0.27083
 Alpha virt. eigenvalues --    0.27636   0.28898   0.30553   0.30775   0.31896

 Mulliken charges:
               1
     1  C   -0.170587
     2  C   -0.217736
     3  C   -0.178942
     4  C    0.152599
     5  C   -0.173340
     6  C   -0.218147
     7  H    0.228908
     8  H    0.228398
     9  H    0.278660
    10  H    0.276549
    11  H    0.225852
    12  N    0.487229
    13  O   -0.459444
    14  O   -0.456653
    15  C   -0.169165
    16  C   -0.218416
    17  C   -0.170847
    18  C    0.157929
    19  C   -0.162955
    20  C   -0.212713
    21  H    0.225389
    22  H    0.222099
    23  H    0.274211
    24  H    0.269784
    25  H    0.217043
    26  N    0.488633
    27  O   -0.462939
    28  O   -0.461399
 Sum of Mulliken charges =  -0.00000

 Dipole moment (field-independent basis, Debye):
    X=              5.5237    Y=              1.2147    Z=             -5.2742  Tot=              7.7333
 Quadrupole moment (field-independent basis, Debye-Ang):
   XX=           -100.8947   YY=           -102.2869   ZZ=           -108.3871
   XY=            -22.2844   XZ=             -4.4198   YZ=             -3.2089

 Normal termination of Gaussian 16 at Thu May  6 12:59:03 2021.
