 Gaussian 16, Revision A.03,
 Gaussian 16:  EM64L-G16RevA.03 25-Dec-2016

 -------------
 #p 6-31g* mp2
 -------------

 ------------------------------------------------------
 Input file generated by CHIRIPA (05-May-2021 14:51:12)
 ------------------------------------------------------
 Symbolic Z-matrix:
 Charge =  0 Multiplicity = 1

                         Standard orientation:
 ---------------------------------------------------------------------
 Center     Atomic      Atomic             Coordinates (Angstroms)
 Number     Number       Type             X           Y           Z
 ---------------------------------------------------------------------
      1          6           0       -4.727227   -0.650604   -0.181786
      2          6           0       -6.134446   -0.475033    0.389961
      3          6           0       -7.045986   -1.666160    0.093135
      4          1           0       -4.795683   -0.800023   -1.268033
      5          1           0       -4.282366   -1.566073    0.232232
      6          1           0       -6.575995    0.440571   -0.023948
      7          1           0       -6.062619   -0.325823    1.474946
      8          1           0       -6.631026   -2.584725    0.520508
      9          1           0       -7.147319   -1.813976   -0.986903
     10          1           0       -8.046919   -1.519613    0.510888
     11          6           0       -3.804198    0.531978    0.106735
     12          6           0       -2.396979    0.356406   -0.465012
     13          6           0       -1.485439    1.547533   -0.168186
     14          1           0       -4.249058    1.447446   -0.307283
     15          1           0       -3.735742    0.681397    1.192982
     16          1           0       -2.468806    0.207197   -1.549997
     17          1           0       -1.955430   -0.559197   -0.051103
     18          1           0       -1.384106    1.695350    0.911852
     19          1           0       -1.900399    2.466098   -0.595559
     20          1           0       -0.484506    1.400986   -0.585939
     21          6           0        4.536729   -0.589756   -0.260285
     22          6           0        5.777553   -1.116403    0.461505
     23          6           0        6.307965   -2.415464   -0.145867
     24          1           0        3.750845   -1.356929   -0.232362
     25          1           0        4.778398   -0.428284   -1.319962
     26          1           0        5.534002   -1.275524    1.519796
     27          1           0        6.560508   -0.347814    0.432028
     28          1           0        6.578267   -2.267350   -1.196390
     29          1           0        5.545928   -3.200330   -0.102441
     30          1           0        7.195083   -2.774155    0.385379
     31          6           0        3.994696    0.708383    0.335336
     32          6           0        2.753871    1.235030   -0.386455
     33          6           0        2.223460    2.534091    0.220918
     34          1           0        3.753026    0.546910    1.395013
     35          1           0        4.780579    1.475556    0.307413
     36          1           0        1.970916    0.466440   -0.356976
     37          1           0        2.997422    1.394150   -1.444745
     38          1           0        2.985498    3.318956    0.177493
     39          1           0        1.953159    2.385976    1.271441
     40          1           0        1.336341    2.892781   -0.310328
 ---------------------------------------------------------------------

 SCF Done:  E(RHF) =  -470.732732582     A.U. after   11 cycles
 E2 =    -0.1582779587D+01 EUMP2 =    -0.47231551216953D+03

 The electronic state is 1-A.
 Alpha  occ. eigenvalues --  -11.21598 -11.21598 -11.21592 -11.21585 -11.21399
 Alpha  occ. eigenvalues --  -11.21396 -11.21340 -11.21337 -11.21069 -11.21069
 Alpha  occ. eigenvalues --  -11.21006 -11.20969  -1.08433  -1.08410  -1.03562
 Alpha  occ. eigenvalues --   -1.03475  -0.96048  -0.95882  -0.87075  -0.86888
 Alpha  occ. eigenvalues --   -0.79612  -0.79553  -0.78238  -0.78235  -0.65071
 Alpha  occ. eigenvalues --   -0.65038  -0.60984  -0.60879  -0.59700  -0.59063
 Alpha  occ. eigenvalues --   -0.57758  -0.57361  -0.55316  -0.55183  -0.52968
 Alpha  occ. eigenvalues --   -0.52504  -0.52403  -0.52130  -0.49949  -0.49851
 Alpha  occ. eigenvalues --   -0.47902  -0.47896  -0.46633  -0.46593  -0.45785
 Alpha  occ. eigenvalues --   -0.45770  -0.45705  -0.45696  -0.43886  -0.43616
 Alpha virt. eigenvalues --    0.21880   0.23052   0.23462   0.25036   0.26526
 Alpha virt. eigenvalues --    0.26669   0.27044   0.27180   0.27759   0.29047
 Alpha virt. eigenvalues --    0.30434   0.30943   0.31423   0.31778   0.32184

 Mulliken charges:
               1
     1  C   -0.298204
     2  C   -0.299602
     3  C   -0.475687
     4  H    0.149625
     5  H    0.149382
     6  H    0.151937
     7  H    0.151904
     8  H    0.155134
     9  H    0.155176
    10  H    0.160240
    11  C   -0.298506
    12  C   -0.299785
    13  C   -0.481821
    14  H    0.149532
    15  H    0.149537
    16  H    0.151789
    17  H    0.151325
    18  H    0.155421
    19  H    0.154378
    20  H    0.168669
    21  C   -0.298351
    22  C   -0.299652
    23  C   -0.475699
    24  H    0.149579
    25  H    0.149504
    26  H    0.151897
    27  H    0.151970
    28  H    0.155186
    29  H    0.155147
    30  H    0.160240
    31  C   -0.297983
    32  C   -0.303055
    33  C   -0.478375
    34  H    0.149572
    35  H    0.149837
    36  H    0.153153
    37  H    0.151764
    38  H    0.154744
    39  H    0.155287
    40  H    0.164792
 Sum of Mulliken charges =  -0.00000

 Dipole moment (field-independent basis, Debye):
    X=              0.0061    Y=              0.0136    Z=             -0.0014  Tot=              0.0149
 Quadrupole moment (field-independent basis, Debye-Ang):
   XX=            -85.3374   YY=            -85.7963   ZZ=            -83.7372
   XY=              0.0389   XZ=             -0.0595   YZ=             -1.1736

 Normal termination of Gaussian 16 at Wed May  5 21:33:19 2021.
