 Gaussian 16, Revision A.03,
 Gaussian 16:  EM64L-G16RevA.03 25-Dec-2016

 -------------
 #p 6-31g* mp2
 -------------

 ------------------------------------------------------
 Input file generated by CHIRIPA (05-May-2021 14:53:16)
 ------------------------------------------------------
 Symbolic Z-matrix:
 Charge =  0 Multiplicity = 1

                         Standard orientation:
 ---------------------------------------------------------------------
 Center     Atomic      Atomic             Coordinates (Angstroms)
 Number     Number       Type             X           Y           Z
 ---------------------------------------------------------------------
      1          6           0        2.760916    0.237371   -0.517757
      2          6           0        3.828960   -0.508215    0.283099
      3          6           0        4.277364   -1.804287   -0.392863
      4          1           0        1.893725   -0.421394   -0.662512
      5          1           0        3.153534    0.461848   -1.519184
      6          1           0        3.434941   -0.730001    1.283188
      7          1           0        4.693631    0.152467    0.426129
      8          1           0        4.695446   -1.597524   -1.383346
      9          1           0        3.429604   -2.485006   -0.521418
     10          1           0        5.041088   -2.321109    0.196611
     11          6           0        2.302465    1.535098    0.145156
     12          6           0        1.234421    2.280684   -0.655700
     13          6           0        0.786017    3.576756    0.020262
     14          1           0        1.909847    1.310621    1.146583
     15          1           0        3.169656    2.193863    0.289911
     16          1           0        0.369750    1.620002   -0.798730
     17          1           0        1.628440    2.502470   -1.655789
     18          1           0        1.633777    4.257475    0.148817
     19          1           0        0.367935    3.369993    1.010745
     20          1           0        0.022293    4.093578   -0.569212
     21          6           0       -0.215994   -2.475861    0.429860
     22          6           0       -1.303445   -2.695658   -0.421996
     23          6           0       -2.285614   -1.714535   -0.587189
     24          6           0       -2.148216   -0.519949    0.118061
     25          6           0       -1.076481   -0.271157    0.974084
     26          6           0       -0.106176   -1.266444    1.123958
     27          1           0        0.542370   -3.243522    0.552236
     28          1           0       -1.391320   -3.633947   -0.962309
     29          1           0       -3.137823   -1.858399   -1.240229
     30          1           0       -1.016154    0.674298    1.499339
     31          1           0        0.737269   -1.092989    1.786196
     32          7           0       -3.181714    0.526219   -0.048713
     33          8           0       -3.037643    1.570103    0.583889
     34          8           0       -4.116272    0.282512   -0.808874
 ---------------------------------------------------------------------

 SCF Done:  E(RHF) =  -669.533975134     A.U. after   15 cycles
 E2 =    -0.2096250924D+01 EUMP2 =    -0.67163022605821D+03

 The electronic state is 1-A.
 Alpha  occ. eigenvalues --  -20.60867 -20.60860 -15.85916 -11.31325 -11.27869
 Alpha  occ. eigenvalues --  -11.27862 -11.27615 -11.26902 -11.26878 -11.22323
 Alpha  occ. eigenvalues --  -11.21847 -11.21821 -11.21713 -11.21651 -11.20964
 Alpha  occ. eigenvalues --   -1.59937  -1.39489  -1.19504  -1.08945  -1.08808
 Alpha  occ. eigenvalues --   -1.04904  -1.03915  -0.96343  -0.95711  -0.87368
 Alpha  occ. eigenvalues --   -0.86295  -0.82540  -0.79990  -0.78643  -0.77589
 Alpha  occ. eigenvalues --   -0.72132  -0.71264  -0.70600  -0.65701  -0.65145
 Alpha  occ. eigenvalues --   -0.64834  -0.62193  -0.61314  -0.59737  -0.57932
 Alpha  occ. eigenvalues --   -0.55712  -0.55369  -0.53262  -0.53006  -0.52947
 Alpha  occ. eigenvalues --   -0.52757  -0.50336  -0.48893  -0.48884  -0.48295
 Alpha  occ. eigenvalues --   -0.47079  -0.46178  -0.46074  -0.44873  -0.44139
 Alpha  occ. eigenvalues --   -0.37425  -0.36404
 Alpha virt. eigenvalues --    0.04904   0.11025   0.16288   0.18777   0.22503
 Alpha virt. eigenvalues --    0.23671   0.24670   0.26031   0.27232   0.28117
 Alpha virt. eigenvalues --    0.29737   0.30820   0.31168   0.31703   0.32289

 Mulliken charges:
               1
     1  C   -0.306704
     2  C   -0.300408
     3  C   -0.474954
     4  H    0.157723
     5  H    0.152241
     6  H    0.141863
     7  H    0.156258
     8  H    0.159721
     9  H    0.147354
    10  H    0.161408
    11  C   -0.296622
    12  C   -0.305261
    13  C   -0.474520
    14  H    0.136795
    15  H    0.152292
    16  H    0.155651
    17  H    0.153440
    18  H    0.153349
    19  H    0.153576
    20  H    0.168795
    21  C   -0.173011
    22  C   -0.217939
    23  C   -0.170939
    24  C    0.158782
    25  C   -0.172400
    26  C   -0.219723
    27  H    0.227634
    28  H    0.224348
    29  H    0.276167
    30  H    0.278303
    31  H    0.228542
    32  N    0.488143
    33  O   -0.460069
    34  O   -0.459835
 Sum of Mulliken charges =  -0.00000

 Dipole moment (field-independent basis, Debye):
    X=              3.5374    Y=             -3.6240    Z=              0.4746  Tot=              5.0864
 Quadrupole moment (field-independent basis, Debye-Ang):
   XX=           -109.3693   YY=            -89.9227   ZZ=            -93.0091
   XY=              8.5595   XZ=              0.5071   YZ=              0.7094

 Normal termination of Gaussian 16 at Thu May  6 15:35:12 2021.
