 Gaussian 16, Revision A.03,
 Gaussian 16:  EM64L-G16RevA.03 25-Dec-2016

 -------------
 #p 6-31g* mp2
 -------------

 ------------------------------------------------------
 Input file generated by CHIRIPA (05-May-2021 14:57:23)
 ------------------------------------------------------
 Symbolic Z-matrix:
 Charge =  0 Multiplicity = 1

                         Standard orientation:
 ---------------------------------------------------------------------
 Center     Atomic      Atomic             Coordinates (Angstroms)
 Number     Number       Type             X           Y           Z
 ---------------------------------------------------------------------
      1          6           0       -4.900142    1.499942   -0.229489
      2          6           0       -4.842442    0.440900   -1.141422
      3          6           0       -3.918181   -0.593973   -0.970167
      4          6           0       -3.062809   -0.537676    0.129133
      5          6           0       -3.095892    0.503924    1.055019
      6          6           0       -4.028220    1.528025    0.863893
      7          1           0       -5.621264    2.299673   -0.370242
      8          1           0       -5.518353    0.416472   -1.991476
      9          1           0       -3.851975   -1.425804   -1.660886
     10          1           0       -2.409103    0.500678    1.892711
     11          1           0       -4.070774    2.349238    1.573713
     12          7           0       -2.080065   -1.627547    0.320951
     13          8           0       -1.337463   -1.554650    1.297610
     14          8           0       -2.071001   -2.534049   -0.508995
     15          6           0        2.046106    2.588549   -0.136701
     16          6           0        3.443749    2.535601   -0.119093
     17          6           0        4.107443    1.305322   -0.097316
     18          6           0        3.338727    0.142415   -0.093731
     19          6           0        1.944956    0.162351   -0.110924
     20          6           0        1.302481    1.403845   -0.132568
     21          1           0        1.538774    3.548616   -0.153566
     22          1           0        4.023832    3.454045   -0.122254
     23          1           0        5.188337    1.235374   -0.083376
     24          1           0        1.393818   -0.770199   -0.107254
     25          1           0        0.216936    1.441930   -0.146210
     26          7           0        4.030118   -1.165961   -0.070747
     27          8           0        3.329985   -2.176132   -0.068027
     28          8           0        5.259072   -1.156523   -0.055887
 ---------------------------------------------------------------------

 SCF Done:  E(RHF) =  -868.338000429     A.U. after   16 cycles
 E2 =    -0.2599991940D+01 EUMP2 =    -0.87093799236881D+03

 The electronic state is 1-A.
 Alpha  occ. eigenvalues --  -20.61511 -20.61481 -20.60053 -20.60004 -15.86531
 Alpha  occ. eigenvalues --  -15.85087 -11.31935 -11.30541 -11.28508 -11.28438
 Alpha  occ. eigenvalues --  -11.28189 -11.27502 -11.27449 -11.27212 -11.27030
 Alpha  occ. eigenvalues --  -11.27022 -11.26262 -11.26206  -1.60570  -1.59110
 Alpha  occ. eigenvalues --   -1.40117  -1.38655  -1.20091  -1.18763  -1.09473
 Alpha  occ. eigenvalues --   -1.08164  -1.05481  -1.04175  -0.96299  -0.94964
 Alpha  occ. eigenvalues --   -0.86873  -0.85580  -0.83118  -0.81789  -0.78175
 Alpha  occ. eigenvalues --   -0.76795  -0.72716  -0.71920  -0.71302  -0.71161
 Alpha  occ. eigenvalues --   -0.70438  -0.69886  -0.65725  -0.65459  -0.64421
 Alpha  occ. eigenvalues --   -0.64206  -0.62813  -0.61494  -0.55954  -0.54740
 Alpha  occ. eigenvalues --   -0.53832  -0.53552  -0.52519  -0.52268  -0.49492
 Alpha  occ. eigenvalues --   -0.49478  -0.48088  -0.48040  -0.45500  -0.44040
 Alpha  occ. eigenvalues --   -0.38067  -0.37093  -0.36802  -0.35777
 Alpha virt. eigenvalues --    0.04310   0.05736   0.10481   0.11862   0.15810
 Alpha virt. eigenvalues --    0.17165   0.20730   0.21817   0.26550   0.27155
 Alpha virt. eigenvalues --    0.27951   0.28800   0.30499   0.31148   0.32111

 Mulliken charges:
               1
     1  C   -0.170850
     2  C   -0.218143
     3  C   -0.170627
     4  C    0.155996
     5  C   -0.177643
     6  C   -0.219377
     7  H    0.227830
     8  H    0.226430
     9  H    0.278660
    10  H    0.276764
    11  H    0.224835
    12  N    0.485100
    13  O   -0.461131
    14  O   -0.452806
    15  C   -0.171611
    16  C   -0.219538
    17  C   -0.170985
    18  C    0.156761
    19  C   -0.171238
    20  C   -0.221352
    21  H    0.220456
    22  H    0.220354
    23  H    0.274054
    24  H    0.291320
    25  H    0.217386
    26  N    0.487290
    27  O   -0.453234
    28  O   -0.464701
 Sum of Mulliken charges =  -0.00000

 Dipole moment (field-independent basis, Debye):
    X=             -6.2334    Y=              8.1561    Z=             -0.7900  Tot=             10.2957
 Quadrupole moment (field-independent basis, Debye-Ang):
   XX=            -95.8001   YY=           -106.6322   ZZ=           -102.6057
   XY=              7.8961   XZ=              3.5580   YZ=              2.6802

 Normal termination of Gaussian 16 at Wed May  5 21:00:46 2021.
