 Gaussian 16, Revision A.03,
 Gaussian 16:  EM64L-G16RevA.03 25-Dec-2016

 -------------
 #p 6-31g* mp2
 -------------

 ------------------------------------------------------
 Input file generated by CHIRIPA (05-May-2021 14:53:18)
 ------------------------------------------------------
 Symbolic Z-matrix:
 Charge =  0 Multiplicity = 1

                         Standard orientation:
 ---------------------------------------------------------------------
 Center     Atomic      Atomic             Coordinates (Angstroms)
 Number     Number       Type             X           Y           Z
 ---------------------------------------------------------------------
      1          6           0       -4.545575    0.601912   -0.204461
      2          6           0       -5.949607    0.311984    0.327162
      3          6           0       -6.821929    1.565167    0.407035
      4          1           0       -4.061906    1.346445    0.442593
      5          1           0       -4.625332    1.058386   -1.200786
      6          1           0       -5.867183   -0.145077    1.321605
      7          1           0       -6.429919   -0.432088   -0.321123
      8          1           0       -6.933813    2.020365   -0.582347
      9          1           0       -6.367880    2.309007    1.069714
     10          1           0       -7.821212    1.335020    0.789562
     11          6           0       -3.661586   -0.641050   -0.290116
     12          6           0       -2.257555   -0.351123   -0.821739
     13          6           0       -1.385232   -1.604306   -0.901613
     14          1           0       -3.581830   -1.097525    0.706209
     15          1           0       -4.145256   -1.385584   -0.937170
     16          1           0       -1.777243    0.392949   -0.173455
     17          1           0       -2.339978    0.105939   -1.816182
     18          1           0       -1.839282   -2.348146   -1.564291
     19          1           0       -1.273348   -2.059504    0.087770
     20          1           0       -0.385950   -1.374159   -1.284139
     21          6           0        4.564326    2.000189   -0.568931
     22          6           0        4.298693    0.951659   -1.455804
     23          6           0        3.547124   -0.153077   -1.044406
     24          6           0        3.074597   -0.176604    0.266874
     25          6           0        3.322438    0.852471    1.173995
     26          6           0        4.076211    1.947342    0.740830
     27          1           0        5.149019    2.854543   -0.896970
     28          1           0        4.676493    0.990008   -2.473567
     29          1           0        3.326641   -0.978579   -1.710253
     30          1           0        2.932385    0.785858    2.182380
     31          1           0        4.280950    2.760200    1.431762
     32          7           0        2.277778   -1.340917    0.713925
     33          8           0        1.872830   -1.337680    1.874375
     34          8           0        2.073266   -2.234697   -0.104592
 ---------------------------------------------------------------------

 SCF Done:  E(RHF) =  -669.535904532     A.U. after   15 cycles
 E2 =    -0.2091294484D+01 EUMP2 =    -0.67162719901567D+03

 The electronic state is 1-A.
 Alpha  occ. eigenvalues --  -20.60891 -20.60878 -15.85905 -11.31259 -11.27824
 Alpha  occ. eigenvalues --  -11.27820 -11.27563 -11.26837 -11.26827 -11.21207
 Alpha  occ. eigenvalues --  -11.20916 -11.20847 -11.20770 -11.20727 -11.19863
 Alpha  occ. eigenvalues --   -1.59939  -1.39498  -1.19428  -1.08827  -1.07859
 Alpha  occ. eigenvalues --   -1.04829  -1.02900  -0.95668  -0.95317  -0.86325
 Alpha  occ. eigenvalues --   -0.86228  -0.82499  -0.78977  -0.77666  -0.77549
 Alpha  occ. eigenvalues --   -0.72134  -0.71259  -0.70537  -0.65083  -0.64832
 Alpha  occ. eigenvalues --   -0.64494  -0.62177  -0.60297  -0.58727  -0.56943
 Alpha  occ. eigenvalues --   -0.55332  -0.54602  -0.53160  -0.52921  -0.51995
 Alpha  occ. eigenvalues --   -0.51746  -0.49284  -0.48895  -0.48860  -0.47291
 Alpha  occ. eigenvalues --   -0.46028  -0.45204  -0.45127  -0.44897  -0.43082
 Alpha  occ. eigenvalues --   -0.37406  -0.36431
 Alpha virt. eigenvalues --    0.04962   0.11211   0.16431   0.21340   0.23394
 Alpha virt. eigenvalues --    0.24898   0.27191   0.27238   0.27987   0.28103
 Alpha virt. eigenvalues --    0.28763   0.30803   0.31988   0.32051   0.32337

 Mulliken charges:
               1
     1  C   -0.297493
     2  C   -0.299328
     3  C   -0.475315
     4  H    0.148207
     5  H    0.147374
     6  H    0.152522
     7  H    0.151548
     8  H    0.154043
     9  H    0.154259
    10  H    0.159333
    11  C   -0.297965
    12  C   -0.300311
    13  C   -0.476598
    14  H    0.151972
    15  H    0.148599
    16  H    0.148291
    17  H    0.146311
    18  H    0.150683
    19  H    0.167543
    20  H    0.162032
    21  C   -0.170662
    22  C   -0.218399
    23  C   -0.171512
    24  C    0.158662
    25  C   -0.170944
    26  C   -0.218476
    27  H    0.225884
    28  H    0.223760
    29  H    0.275808
    30  H    0.275642
    31  H    0.223694
    32  N    0.488470
    33  O   -0.459976
    34  O   -0.457656
 Sum of Mulliken charges =  -0.00000

 Dipole moment (field-independent basis, Debye):
    X=              3.0167    Y=              3.9988    Z=             -1.5032  Tot=              5.2298
 Quadrupole moment (field-independent basis, Debye-Ang):
   XX=            -79.2787   YY=            -96.4283   ZZ=            -90.8014
   XY=             13.0858   XZ=             -4.4768   YZ=              3.5518

 Normal termination of Gaussian 16 at Thu May  6 17:19:39 2021.
