 Gaussian 16, Revision A.03,
 Gaussian 16:  EM64L-G16RevA.03 25-Dec-2016

 -------------
 #p 6-31g* mp2
 -------------

 ------------------------------------------------------
 Input file generated by CHIRIPA (05-May-2021 14:53:16)
 ------------------------------------------------------
 Symbolic Z-matrix:
 Charge =  0 Multiplicity = 1

                         Standard orientation:
 ---------------------------------------------------------------------
 Center     Atomic      Atomic             Coordinates (Angstroms)
 Number     Number       Type             X           Y           Z
 ---------------------------------------------------------------------
      1          6           0       -4.072236    0.910583    0.114008
      2          6           0       -2.848359    1.822782    0.203471
      3          6           0       -3.216371    3.279782    0.485448
      4          1           0       -4.740646    1.280799   -0.675367
      5          1           0       -4.636062    0.971780    1.055151
      6          1           0       -2.286259    1.758823   -0.737044
      7          1           0       -2.182693    1.450240    0.992595
      8          1           0       -3.757596    3.363889    1.433395
      9          1           0       -3.861749    3.674225   -0.306072
     10          1           0       -2.326573    3.914234    0.545361
     11          6           0       -3.720543   -0.549145   -0.167479
     12          6           0       -4.944420   -1.461344   -0.256941
     13          6           0       -4.576408   -2.918344   -0.538918
     14          1           0       -3.156717   -0.610342   -1.108621
     15          1           0       -3.052133   -0.919362    0.621896
     16          1           0       -5.610086   -1.088802   -1.046065
     17          1           0       -5.506521   -1.397385    0.683574
     18          1           0       -3.931030   -3.312787    0.252601
     19          1           0       -4.035184   -3.002451   -1.486865
     20          1           0       -5.466207   -3.552796   -0.598832
     21          6           0        0.538207   -0.188681    0.311395
     22          6           0        1.349778   -1.013296    1.097450
     23          6           0        2.739384   -0.995282    0.945071
     24          6           0        3.286311   -0.136595   -0.007198
     25          6           0        2.504374    0.696906   -0.805411
     26          6           0        1.117075    0.662288   -0.635856
     27          1           0       -0.540377   -0.209123    0.436437
     28          1           0        0.902980   -1.675173    1.833884
     29          1           0        3.391193   -1.623157    1.540332
     30          1           0        2.978821    1.346128   -1.531240
     31          1           0        0.489262    1.303798   -1.247708
     32          7           0        4.756204   -0.108736   -0.177606
     33          8           0        5.213516    0.656693   -1.023550
     34          8           0        5.423161   -0.852855    0.537999
 ---------------------------------------------------------------------

 SCF Done:  E(RHF) =  -669.535177555     A.U. after   15 cycles
 E2 =    -0.2092378332D+01 EUMP2 =    -0.67162755588713D+03

 The electronic state is 1-A.
 Alpha  occ. eigenvalues --  -20.60677 -20.60672 -15.85730 -11.31065 -11.27640
 Alpha  occ. eigenvalues --  -11.27636 -11.27266 -11.26629 -11.26613 -11.22952
 Alpha  occ. eigenvalues --  -11.22652 -11.22534 -11.22505 -11.22072 -11.21878
 Alpha  occ. eigenvalues --   -1.59754  -1.39308  -1.19232  -1.09597  -1.08619
 Alpha  occ. eigenvalues --   -1.04641  -1.04586  -0.97004  -0.95466  -0.88020
 Alpha  occ. eigenvalues --   -0.86030  -0.82315  -0.80697  -0.79464  -0.77362
 Alpha  occ. eigenvalues --   -0.71948  -0.71077  -0.70322  -0.66212  -0.64878
 Alpha  occ. eigenvalues --   -0.64647  -0.62031  -0.61944  -0.60383  -0.58640
 Alpha  occ. eigenvalues --   -0.56275  -0.55162  -0.53654  -0.53428  -0.52961
 Alpha  occ. eigenvalues --   -0.52727  -0.50942  -0.48979  -0.48710  -0.48704
 Alpha  occ. eigenvalues --   -0.47719  -0.46893  -0.46871  -0.44863  -0.44721
 Alpha  occ. eigenvalues --   -0.37186  -0.36250
 Alpha virt. eigenvalues --    0.05158   0.11396   0.16601   0.19559   0.22438
 Alpha virt. eigenvalues --    0.23013   0.24222   0.25344   0.26722   0.27830
 Alpha virt. eigenvalues --    0.29514   0.30389   0.30971   0.31355   0.31450

 Mulliken charges:
               1
     1  C   -0.297694
     2  C   -0.307277
     3  C   -0.475668
     4  H    0.154373
     5  H    0.153637
     6  H    0.147241
     7  H    0.149370
     8  H    0.159135
     9  H    0.158660
    10  H    0.162931
    11  C   -0.303218
    12  C   -0.299878
    13  C   -0.476505
    14  H    0.149851
    15  H    0.142947
    16  H    0.155480
    17  H    0.154489
    18  H    0.154044
    19  H    0.156774
    20  H    0.164052
    21  C   -0.177861
    22  C   -0.221604
    23  C   -0.170655
    24  C    0.158054
    25  C   -0.170879
    26  C   -0.224045
    27  H    0.240735
    28  H    0.222553
    29  H    0.274998
    30  H    0.275035
    31  H    0.224594
    32  N    0.488030
    33  O   -0.460865
    34  O   -0.460839
 Sum of Mulliken charges =  -0.00000

 Dipole moment (field-independent basis, Debye):
    X=             -5.5435    Y=             -0.0450    Z=              0.5913  Tot=              5.5752
 Quadrupole moment (field-independent basis, Debye-Ang):
   XX=           -128.2005   YY=            -93.4110   ZZ=            -91.6386
   XY=             -0.0088   XZ=              2.5418   YZ=             -3.2483

 Normal termination of Gaussian 16 at Thu May  6 13:55:24 2021.
