 Gaussian 16, Revision A.03,
 Gaussian 16:  EM64L-G16RevA.03 25-Dec-2016

 -------------
 #p 6-31g* mp2
 -------------

 ------------------------------------------------------
 Input file generated by CHIRIPA (05-May-2021 14:57:23)
 ------------------------------------------------------
 Symbolic Z-matrix:
 Charge =  0 Multiplicity = 1

                         Standard orientation:
 ---------------------------------------------------------------------
 Center     Atomic      Atomic             Coordinates (Angstroms)
 Number     Number       Type             X           Y           Z
 ---------------------------------------------------------------------
      1          6           0       -3.514798    2.426188    0.143757
      2          6           0       -4.723415    2.028664   -0.437397
      3          6           0       -5.056313    0.673799   -0.527210
      4          6           0       -4.153150   -0.260975   -0.023437
      5          6           0       -2.941309    0.103646    0.561184
      6          6           0       -2.629163    1.464106    0.640317
      7          1           0       -3.264255    3.480853    0.209378
      8          1           0       -5.413132    2.773631   -0.823868
      9          1           0       -5.985219    0.338306   -0.972176
     10          1           0       -2.274018   -0.662141    0.937629
     11          1           0       -1.689826    1.769920    1.092167
     12          7           0       -4.494590   -1.698271   -0.112865
     13          8           0       -3.681803   -2.502248    0.338396
     14          8           0       -5.568531   -1.993633   -0.632526
     15          6           0        1.712531    0.552789    0.642179
     16          6           0        2.128364    0.680431   -0.687224
     17          6           0        3.447060    0.390205   -1.049659
     18          6           0        4.327386   -0.027022   -0.052544
     19          6           0        3.943285   -0.163878    1.280507
     20          6           0        2.619719    0.131784    1.620077
     21          1           0        0.686246    0.780355    0.914845
     22          1           0        1.426006    1.007182   -1.448783
     23          1           0        3.795632    0.480477   -2.071307
     24          1           0        4.666358   -0.491773    2.017437
     25          1           0        2.299572    0.031760    2.653298
     26          7           0        5.726009   -0.337149   -0.424135
     27          8           0        6.482220   -0.702891    0.473091
     28          8           0        6.039554   -0.208611   -1.605577
 ---------------------------------------------------------------------

 SCF Done:  E(RHF) =  -868.336509572     A.U. after   16 cycles
 E2 =    -0.2599714953D+01 EUMP2 =    -0.87093622452439D+03

 The electronic state is 1-A.
 Alpha  occ. eigenvalues --  -20.61421 -20.61413 -20.61029 -20.61023 -15.86483
 Alpha  occ. eigenvalues --  -15.86084 -11.32004 -11.31565 -11.28682 -11.28562
 Alpha  occ. eigenvalues --  -11.28380 -11.28125 -11.28122 -11.28040 -11.27778
 Alpha  occ. eigenvalues --  -11.27575 -11.27225 -11.27215  -1.60493  -1.60100
 Alpha  occ. eigenvalues --   -1.40043  -1.39651  -1.20208  -1.19754  -1.09565
 Alpha  occ. eigenvalues --   -1.09158  -1.05656  -1.05163  -0.96370  -0.95972
 Alpha  occ. eigenvalues --   -0.87036  -0.86571  -0.83224  -0.82787  -0.78243
 Alpha  occ. eigenvalues --   -0.77789  -0.72695  -0.72303  -0.71821  -0.71423
 Alpha  occ. eigenvalues --   -0.71303  -0.70959  -0.65864  -0.65684  -0.65418
 Alpha  occ. eigenvalues --   -0.65173  -0.63010  -0.62499  -0.56147  -0.55765
 Alpha  occ. eigenvalues --   -0.53947  -0.53742  -0.53492  -0.53266  -0.49468
 Alpha  occ. eigenvalues --   -0.49442  -0.49071  -0.49049  -0.45414  -0.45030
 Alpha  occ. eigenvalues --   -0.38177  -0.37783  -0.37262  -0.36748
 Alpha virt. eigenvalues --    0.04317   0.04726   0.10382   0.10894   0.15676
 Alpha virt. eigenvalues --    0.16163   0.17859   0.21931   0.24531   0.26932
 Alpha virt. eigenvalues --    0.27455   0.29002   0.29902   0.31612   0.32196

 Mulliken charges:
               1
     1  C   -0.170210
     2  C   -0.218418
     3  C   -0.169257
     4  C    0.159007
     5  C   -0.171496
     6  C   -0.224081
     7  H    0.228015
     8  H    0.226670
     9  H    0.278606
    10  H    0.273783
    11  H    0.217257
    12  N    0.488073
    13  O   -0.459460
    14  O   -0.457697
    15  C   -0.173563
    16  C   -0.219012
    17  C   -0.170068
    18  C    0.159478
    19  C   -0.169957
    20  C   -0.218607
    21  H    0.218089
    22  H    0.224345
    23  H    0.277249
    24  H    0.277337
    25  H    0.224182
    26  N    0.487901
    27  O   -0.459043
    28  O   -0.459122
 Sum of Mulliken charges =  -0.00000

 Dipole moment (field-independent basis, Debye):
    X=             -3.8151    Y=              6.1116    Z=              1.5148  Tot=              7.3622
 Quadrupole moment (field-independent basis, Debye-Ang):
   XX=           -152.2570   YY=           -108.2482   ZZ=           -100.1221
   XY=            -18.2764   XZ=              8.1723   YZ=             -2.2932

 Normal termination of Gaussian 16 at Thu May  6 06:35:48 2021.
