 Gaussian 16, Revision A.03,
 Gaussian 16:  EM64L-G16RevA.03 25-Dec-2016

 -------------
 #p 6-31g* mp2
 -------------

 ------------------------------------------------------
 Input file generated by CHIRIPA (05-May-2021 14:55:19)
 ------------------------------------------------------
 Symbolic Z-matrix:
 Charge =  0 Multiplicity = 1

                         Standard orientation:
 ---------------------------------------------------------------------
 Center     Atomic      Atomic             Coordinates (Angstroms)
 Number     Number       Type             X           Y           Z
 ---------------------------------------------------------------------
      1          6           0        1.386415    2.140058    1.178705
      2          6           0        0.767697    0.917326    1.459127
      3          6           0        1.267919   -0.271657    0.920012
      4          6           0        2.393614   -0.200878    0.100810
      5          6           0        3.032271    1.001875   -0.197169
      6          6           0        2.514738    2.178363    0.352907
      7          1           0        0.991106    3.058835    1.601760
      8          1           0       -0.108714    0.884562    2.100122
      9          1           0        0.808530   -1.231919    1.120704
     10          1           0        3.904441    1.002751   -0.839615
     11          1           0        2.997296    3.126520    0.133409
     12          7           0        2.932341   -1.452987   -0.475729
     13          8           0        3.925328   -1.363795   -1.194517
     14          8           0        2.351405   -2.499873   -0.197915
     15          6           0       -3.378140   -0.561783    0.053504
     16          6           0       -2.754493   -1.951393   -0.080788
     17          6           0       -3.622443   -3.050657    0.532459
     18          1           0       -3.549777   -0.345081    1.116766
     19          1           0       -4.365498   -0.562484   -0.428698
     20          1           0       -1.768014   -1.947687    0.400315
     21          1           0       -2.584144   -2.164733   -1.143842
     22          1           0       -4.602987   -3.083328    0.046591
     23          1           0       -3.782220   -2.865050    1.599522
     24          1           0       -3.157734   -4.035758    0.425312
     25          6           0       -2.522213    0.547742   -0.554831
     26          6           0       -3.145861    1.937352   -0.420538
     27          6           0       -2.277910    3.036616   -1.033786
     28          1           0       -1.534855    0.548443   -0.072630
     29          1           0       -2.350576    0.331041   -1.618093
     30          1           0       -3.316210    2.150693    0.642515
     31          1           0       -4.132340    1.933647   -0.901642
     32          1           0       -2.118134    2.851009   -2.100849
     33          1           0       -1.297367    3.069288   -0.547917
     34          1           0       -2.742620    4.021718   -0.926639
 ---------------------------------------------------------------------

 SCF Done:  E(RHF) =  -669.534677905     A.U. after   15 cycles
 E2 =    -0.2094132622D+01 EUMP2 =    -0.67162881052772D+03

 The electronic state is 1-A.
 Alpha  occ. eigenvalues --  -20.60832 -20.60827 -15.85887 -11.31300 -11.27866
 Alpha  occ. eigenvalues --  -11.27852 -11.27617 -11.26902 -11.26889 -11.22054
 Alpha  occ. eigenvalues --  -11.21872 -11.21721 -11.21605 -11.21546 -11.21223
 Alpha  occ. eigenvalues --   -1.59906  -1.39458  -1.19483  -1.08881  -1.08767
 Alpha  occ. eigenvalues --   -1.04897  -1.03869  -0.96308  -0.95690  -0.87327
 Alpha  occ. eigenvalues --   -0.86283  -0.82528  -0.79931  -0.78593  -0.77551
 Alpha  occ. eigenvalues --   -0.72105  -0.71228  -0.70580  -0.65502  -0.65128
 Alpha  occ. eigenvalues --   -0.64868  -0.62221  -0.61290  -0.59668  -0.57906
 Alpha  occ. eigenvalues --   -0.55650  -0.55358  -0.53269  -0.53017  -0.52967
 Alpha  occ. eigenvalues --   -0.52702  -0.50268  -0.48868  -0.48856  -0.48233
 Alpha  occ. eigenvalues --   -0.46985  -0.46109  -0.46068  -0.44850  -0.44107
 Alpha  occ. eigenvalues --   -0.37430  -0.36380
 Alpha virt. eigenvalues --    0.04911   0.11077   0.16250   0.19587   0.23164
 Alpha virt. eigenvalues --    0.23316   0.25485   0.26466   0.27059   0.27962
 Alpha virt. eigenvalues --    0.29603   0.30765   0.31153   0.31380   0.31775

 Mulliken charges:
               1
     1  C   -0.171044
     2  C   -0.220623
     3  C   -0.171337
     4  C    0.159575
     5  C   -0.170453
     6  C   -0.218675
     7  H    0.226954
     8  H    0.225398
     9  H    0.279423
    10  H    0.276177
    11  H    0.224449
    12  N    0.487854
    13  O   -0.460045
    14  O   -0.459847
    15  C   -0.298655
    16  C   -0.299943
    17  C   -0.476200
    18  H    0.144277
    19  H    0.151612
    20  H    0.146588
    21  H    0.157610
    22  H    0.156169
    23  H    0.152819
    24  H    0.164967
    25  C   -0.307693
    26  C   -0.298994
    27  C   -0.477411
    28  H    0.154897
    29  H    0.152878
    30  H    0.146108
    31  H    0.154341
    32  H    0.158579
    33  H    0.150876
    34  H    0.159367
 Sum of Mulliken charges =  -0.00000

 Dipole moment (field-independent basis, Debye):
    X=             -1.8046    Y=              4.3294    Z=              1.9490  Tot=              5.0792
 Quadrupole moment (field-independent basis, Debye-Ang):
   XX=           -101.6147   YY=            -96.3596   ZZ=            -93.2091
   XY=             13.1798   XZ=              3.7275   YZ=             -0.7379

 Normal termination of Gaussian 16 at Thu May  6 14:03:03 2021.
