 Gaussian 16, Revision A.03,
 Gaussian 16:  EM64L-G16RevA.03 25-Dec-2016

 -------------
 #p 6-31g* mp2
 -------------

 ------------------------------------------------------
 Input file generated by CHIRIPA (05-May-2021 14:51:09)
 ------------------------------------------------------
 Symbolic Z-matrix:
 Charge =  0 Multiplicity = 1

                         Standard orientation:
 ---------------------------------------------------------------------
 Center     Atomic      Atomic             Coordinates (Angstroms)
 Number     Number       Type             X           Y           Z
 ---------------------------------------------------------------------
      1          6           0       -3.241647    0.395793    0.012043
      2          6           0       -3.078807   -0.988748   -0.616060
      3          6           0       -4.315685   -1.869183   -0.435063
      4          1           0       -3.459206    0.282341    1.082903
      5          1           0       -4.114757    0.892444   -0.433391
      6          1           0       -2.205445   -1.482093   -0.170565
      7          1           0       -2.861421   -0.871983   -1.685511
      8          1           0       -5.192072   -1.401646   -0.895451
      9          1           0       -4.532369   -2.015223    0.628103
     10          1           0       -4.177571   -2.854258   -0.891584
     11          6           0       -2.013414    1.287621   -0.160622
     12          6           0       -2.176255    2.672163    0.467481
     13          6           0       -0.939376    3.552597    0.286484
     14          1           0       -1.140304    0.790970    0.284812
     15          1           0       -1.795856    1.401073   -1.231482
     16          1           0       -2.393641    2.555397    1.536932
     17          1           0       -3.049617    3.165507    0.021986
     18          1           0       -0.722693    3.698637   -0.776682
     19          1           0       -0.062989    3.085061    0.746872
     20          1           0       -1.077491    4.537672    0.743005
     21          6           0        2.364550   -1.552758   -0.018881
     22          6           0        1.043780   -1.810765    0.707056
     23          6           0        0.530468   -3.237624    0.511158
     24          1           0        2.231360   -1.752081   -1.091016
     25          1           0        3.118124   -2.267109    0.340596
     26          1           0        0.293296   -1.095239    0.347316
     27          1           0        1.180080   -1.610620    1.777560
     28          1           0        1.258270   -3.963893    0.887242
     29          1           0        0.366448   -3.445584   -0.551128
     30          1           0       -0.414659   -3.400225    1.038566
     31          6           0        2.890511   -0.130657    0.167460
     32          6           0        4.211282    0.127351   -0.558476
     33          6           0        4.724594    1.554210   -0.362579
     34          1           0        2.136938    0.583695   -0.192017
     35          1           0        3.023702    0.068667    1.239595
     36          1           0        4.074982   -0.072794   -1.628981
     37          1           0        4.961765   -0.588176   -0.198737
     38          1           0        4.888613    1.762169    0.699707
     39          1           0        3.996792    2.280478   -0.738663
     40          1           0        5.669720    1.716810   -0.889987
 ---------------------------------------------------------------------

 SCF Done:  E(RHF) =  -470.733031665     A.U. after   11 cycles
 E2 =    -0.1584087268D+01 EUMP2 =    -0.47231711893318D+03

 The electronic state is 1-A.
 Alpha  occ. eigenvalues --  -11.21613 -11.21603 -11.21601 -11.21584 -11.21414
 Alpha  occ. eigenvalues --  -11.21413 -11.21355 -11.21354 -11.21103 -11.21084
 Alpha  occ. eigenvalues --  -11.21067 -11.21060  -1.08474  -1.08413  -1.03561
 Alpha  occ. eigenvalues --   -1.03517  -0.95994  -0.95984  -0.87021  -0.86988
 Alpha  occ. eigenvalues --   -0.79621  -0.79600  -0.78398  -0.78130  -0.65252
 Alpha  occ. eigenvalues --   -0.64918  -0.61033  -0.60854  -0.59410  -0.59302
 Alpha  occ. eigenvalues --   -0.57608  -0.57596  -0.55282  -0.55276  -0.52702
 Alpha  occ. eigenvalues --   -0.52665  -0.52457  -0.52374  -0.49988  -0.49876
 Alpha  occ. eigenvalues --   -0.47962  -0.47913  -0.46820  -0.46634  -0.46159
 Alpha  occ. eigenvalues --   -0.45774  -0.45760  -0.45065  -0.43795  -0.43787
 Alpha virt. eigenvalues --    0.20775   0.22497   0.23439   0.24323   0.25676
 Alpha virt. eigenvalues --    0.26869   0.27044   0.27246   0.27594   0.29968
 Alpha virt. eigenvalues --    0.31293   0.31462   0.31710   0.31980   0.32074

 Mulliken charges:
               1
     1  C   -0.297621
     2  C   -0.307541
     3  C   -0.475417
     4  H    0.149473
     5  H    0.149617
     6  H    0.160529
     7  H    0.151264
     8  H    0.155159
     9  H    0.154957
    10  H    0.160457
    11  C   -0.307102
    12  C   -0.298855
    13  C   -0.476811
    14  H    0.157640
    15  H    0.148854
    16  H    0.152108
    17  H    0.152035
    18  H    0.154754
    19  H    0.156298
    20  H    0.160517
    21  C   -0.297095
    22  C   -0.312475
    23  C   -0.475862
    24  H    0.149851
    25  H    0.149555
    26  H    0.163302
    27  H    0.151243
    28  H    0.155521
    29  H    0.155865
    30  H    0.160158
    31  C   -0.300255
    32  C   -0.299596
    33  C   -0.475894
    34  H    0.151075
    35  H    0.149252
    36  H    0.152056
    37  H    0.151962
    38  H    0.155060
    39  H    0.155725
    40  H    0.160237
 Sum of Mulliken charges =  -0.00000

 Dipole moment (field-independent basis, Debye):
    X=              0.0063    Y=             -0.0037    Z=             -0.0011  Tot=              0.0074
 Quadrupole moment (field-independent basis, Debye-Ang):
   XX=            -85.3538   YY=            -86.1292   ZZ=            -83.3130
   XY=             -1.3913   XZ=              0.7392   YZ=             -0.5433

 Normal termination of Gaussian 16 at Thu May  6 02:10:30 2021.
