 Gaussian 16, Revision A.03,
 Gaussian 16:  EM64L-G16RevA.03 25-Dec-2016

 -------------
 #p 6-31g* mp2
 -------------

 ------------------------------------------------------
 Input file generated by CHIRIPA (05-May-2021 14:55:23)
 ------------------------------------------------------
 Symbolic Z-matrix:
 Charge =  0 Multiplicity = 1

                         Standard orientation:
 ---------------------------------------------------------------------
 Center     Atomic      Atomic             Coordinates (Angstroms)
 Number     Number       Type             X           Y           Z
 ---------------------------------------------------------------------
      1          6           0       -3.443209   -2.074441   -0.810493
      2          6           0       -4.370873   -1.066390   -1.092968
      3          6           0       -4.140136    0.247963   -0.676093
      4          6           0       -2.965959    0.520102    0.024291
      5          6           0       -2.022559   -0.462366    0.321011
      6          6           0       -2.274074   -1.769749   -0.105647
      7          1           0       -3.630521   -3.092755   -1.138132
      8          1           0       -5.279702   -1.300110   -1.640188
      9          1           0       -4.841410    1.047667   -0.881291
     10          1           0       -1.125694   -0.198748    0.868329
     11          1           0       -1.551867   -2.550592    0.115140
     12          7           0       -2.710690    1.907860    0.470797
     13          8           0       -1.668555    2.121752    1.086298
     14          8           0       -3.557579    2.755414    0.196812
     15          6           0        4.366563    0.175465    0.189992
     16          6           0        5.125752    0.596512   -1.068712
     17          6           0        6.155051    1.694445   -0.798740
     18          1           0        3.864302    1.053564    0.618503
     19          1           0        5.085767   -0.172377    0.944409
     20          1           0        4.405222    0.942157   -1.821031
     21          1           0        5.626108   -0.282728   -1.494385
     22          1           0        6.895945    1.356422   -0.067019
     23          1           0        5.668124    2.588266   -0.395521
     24          1           0        6.686126    1.980227   -1.712058
     25          6           0        3.333996   -0.921407   -0.063788
     26          6           0        2.574805   -1.342453    1.194915
     27          6           0        1.545508   -2.440385    0.924944
     28          1           0        2.614791   -0.573565   -0.818206
     29          1           0        3.836256   -1.799505   -0.492300
     30          1           0        2.074450   -0.463213    1.620587
     31          1           0        3.295336   -1.688098    1.947233
     32          1           0        2.032434   -3.334207    0.521723
     33          1           0        0.804612   -2.102363    0.193222
     34          1           0        1.014432   -2.726168    1.838260
 ---------------------------------------------------------------------

 SCF Done:  E(RHF) =  -669.535517331     A.U. after   15 cycles
 E2 =    -0.2091578663D+01 EUMP2 =    -0.67162709599445D+03

 The electronic state is 1-A.
 Alpha  occ. eigenvalues --  -20.60763 -20.60758 -15.85815 -11.31160 -11.27732
 Alpha  occ. eigenvalues --  -11.27705 -11.27455 -11.26743 -11.26672 -11.22067
 Alpha  occ. eigenvalues --  -11.21933 -11.21654 -11.21619 -11.21441 -11.21017
 Alpha  occ. eigenvalues --   -1.59839  -1.39393  -1.19328  -1.08727  -1.08660
 Alpha  occ. eigenvalues --   -1.04730  -1.03826  -0.96307  -0.95565  -0.87337
 Alpha  occ. eigenvalues --   -0.86122  -0.82401  -0.79903  -0.78421  -0.77448
 Alpha  occ. eigenvalues --   -0.72034  -0.71161  -0.70440  -0.65305  -0.64974
 Alpha  occ. eigenvalues --   -0.64730  -0.62184  -0.61137  -0.59695  -0.57880
 Alpha  occ. eigenvalues --   -0.55629  -0.55189  -0.53094  -0.53064  -0.52836
 Alpha  occ. eigenvalues --   -0.52621  -0.50228  -0.48791  -0.48788  -0.48203
 Alpha  occ. eigenvalues --   -0.46904  -0.45976  -0.45860  -0.44803  -0.44052
 Alpha  occ. eigenvalues --   -0.37309  -0.36323
 Alpha virt. eigenvalues --    0.05059   0.11318   0.16483   0.20029   0.22692
 Alpha virt. eigenvalues --    0.23855   0.26021   0.26398   0.27283   0.28186
 Alpha virt. eigenvalues --    0.29401   0.29816   0.31260   0.31377   0.32211

 Mulliken charges:
               1
     1  C   -0.171157
     2  C   -0.218605
     3  C   -0.170925
     4  C    0.158585
     5  C   -0.174273
     6  C   -0.223492
     7  H    0.225757
     8  H    0.223282
     9  H    0.275432
    10  H    0.277843
    11  H    0.230311
    12  N    0.488134
    13  O   -0.461098
    14  O   -0.460435
    15  C   -0.299736
    16  C   -0.300001
    17  C   -0.476194
    18  H    0.154892
    19  H    0.149534
    20  H    0.153175
    21  H    0.150750
    22  H    0.154854
    23  H    0.157758
    24  H    0.160428
    25  C   -0.298753
    26  C   -0.302058
    27  C   -0.485576
    28  H    0.150594
    29  H    0.149062
    30  H    0.157595
    31  H    0.155305
    32  H    0.159189
    33  H    0.149884
    34  H    0.159939
 Sum of Mulliken charges =  -0.00000

 Dipole moment (field-independent basis, Debye):
    X=             -0.7566    Y=             -4.8440    Z=             -1.5570  Tot=              5.1440
 Quadrupole moment (field-independent basis, Debye-Ang):
   XX=            -85.4569   YY=           -100.1714   ZZ=            -94.6852
   XY=             11.7726   XZ=              7.0329   YZ=             -1.7395

 Normal termination of Gaussian 16 at Wed May  5 22:21:37 2021.
