 Gaussian 16, Revision A.03,
 Gaussian 16:  EM64L-G16RevA.03 25-Dec-2016

 -------------
 #p 6-31g* mp2
 -------------

 ------------------------------------------------------
 Input file generated by CHIRIPA (05-May-2021 14:51:13)
 ------------------------------------------------------
 Symbolic Z-matrix:
 Charge =  0 Multiplicity = 1

                         Standard orientation:
 ---------------------------------------------------------------------
 Center     Atomic      Atomic             Coordinates (Angstroms)
 Number     Number       Type             X           Y           Z
 ---------------------------------------------------------------------
      1          6           0        3.609888    0.361757   -0.032393
      2          6           0        3.159285    1.633838   -0.751247
      3          6           0        1.731897    2.044119   -0.387895
      4          1           0        2.918080   -0.455445   -0.278417
      5          1           0        3.537014    0.516896    1.052972
      6          1           0        3.234302    1.476821   -1.834914
      7          1           0        3.852357    2.448059   -0.503635
      8          1           0        1.645927    2.227891    0.687948
      9          1           0        1.024361    1.251134   -0.650896
     10          1           0        1.430244    2.955800   -0.912970
     11          6           0        5.034767   -0.061165   -0.385358
     12          6           0        5.485370   -1.333246    0.333497
     13          6           0        6.912759   -1.743527   -0.029855
     14          1           0        5.107642   -0.216304   -1.470722
     15          1           0        5.726575    0.756036   -0.139333
     16          1           0        4.792299   -2.147467    0.085884
     17          1           0        5.410354   -1.176229    1.417164
     18          1           0        7.620295   -0.950543    0.233145
     19          1           0        6.998729   -1.927299   -1.105698
     20          1           0        7.214412   -2.655208    0.495219
     21          6           0       -5.049419    0.030740    0.060562
     22          6           0       -5.862180   -1.135919   -0.501854
     23          6           0       -7.314773   -0.758145   -0.793493
     24          1           0       -5.527644    0.392366    0.981144
     25          1           0       -5.075894    0.865096   -0.653962
     26          1           0       -5.833031   -1.968326    0.212896
     27          1           0       -5.381857   -1.494934   -1.421100
     28          1           0       -7.361879    0.056075   -1.523854
     29          1           0       -7.815617   -0.420007    0.119425
     30          1           0       -7.877500   -1.606792   -1.194737
     31          6           0       -3.595237   -0.331331    0.357189
     32          6           0       -2.782476    0.835328    0.919604
     33          6           0       -1.329883    0.457553    1.211243
     34          1           0       -3.568761   -1.165689    1.071712
     35          1           0       -3.117010   -0.692957   -0.563393
     36          1           0       -3.262800    1.194342    1.838851
     37          1           0       -2.811624    1.667734    0.204856
     38          1           0       -0.829039    0.119415    0.298326
     39          1           0       -1.282777   -0.356666    1.941606
     40          1           0       -0.767157    1.306200    1.612488
 ---------------------------------------------------------------------

 SCF Done:  E(RHF) =  -470.732511542     A.U. after   11 cycles
 E2 =    -0.1582672694D+01 EUMP2 =    -0.47231518423680D+03

 The electronic state is 1-A.
 Alpha  occ. eigenvalues --  -11.21587 -11.21576 -11.21546 -11.21542 -11.21379
 Alpha  occ. eigenvalues --  -11.21369 -11.21319 -11.21308 -11.21060 -11.21052
 Alpha  occ. eigenvalues --  -11.20962 -11.20957  -1.08405  -1.08386  -1.03525
 Alpha  occ. eigenvalues --   -1.03456  -0.96015  -0.95866  -0.87076  -0.86842
 Alpha  occ. eigenvalues --   -0.79662  -0.79452  -0.78231  -0.78183  -0.65057
 Alpha  occ. eigenvalues --   -0.65002  -0.61000  -0.60804  -0.59348  -0.59282
 Alpha  occ. eigenvalues --   -0.57589  -0.57526  -0.55414  -0.55073  -0.52812
 Alpha  occ. eigenvalues --   -0.52623  -0.52368  -0.52192  -0.50073  -0.49696
 Alpha  occ. eigenvalues --   -0.47894  -0.47827  -0.46691  -0.46453  -0.45800
 Alpha  occ. eigenvalues --   -0.45716  -0.45684  -0.45599  -0.43748  -0.43719
 Alpha virt. eigenvalues --    0.22255   0.23004   0.23595   0.24787   0.25882
 Alpha virt. eigenvalues --    0.26652   0.26951   0.27515   0.27744   0.28961
 Alpha virt. eigenvalues --    0.29393   0.31337   0.31862   0.31948   0.32505

 Mulliken charges:
               1
     1  C   -0.297969
     2  C   -0.300123
     3  C   -0.477662
     4  H    0.149411
     5  H    0.149664
     6  H    0.151316
     7  H    0.151442
     8  H    0.155195
     9  H    0.159920
    10  H    0.159037
    11  C   -0.298229
    12  C   -0.299607
    13  C   -0.475681
    14  H    0.149333
    15  H    0.149567
    16  H    0.151937
    17  H    0.151949
    18  H    0.155126
    19  H    0.155103
    20  H    0.160177
    21  C   -0.298218
    22  C   -0.299607
    23  C   -0.475684
    24  H    0.149627
    25  H    0.149502
    26  H    0.151877
    27  H    0.151810
    28  H    0.155162
    29  H    0.155170
    30  H    0.160173
    31  C   -0.298394
    32  C   -0.300133
    33  C   -0.477022
    34  H    0.149417
    35  H    0.149267
    36  H    0.151585
    37  H    0.152159
    38  H    0.156041
    39  H    0.154062
    40  H    0.163301
 Sum of Mulliken charges =  -0.00000

 Dipole moment (field-independent basis, Debye):
    X=             -0.0049    Y=              0.0064    Z=              0.0112  Tot=              0.0138
 Quadrupole moment (field-independent basis, Debye-Ang):
   XX=            -87.0148   YY=            -84.6419   ZZ=            -83.3738
   XY=              0.7887   XZ=             -0.0440   YZ=              0.1842

 Normal termination of Gaussian 16 at Wed May  5 23:13:50 2021.
