 Gaussian 16, Revision A.03,
 Gaussian 16:  EM64L-G16RevA.03 25-Dec-2016

 -------------
 #p 6-31g* mp2
 -------------

 ------------------------------------------------------
 Input file generated by CHIRIPA (05-May-2021 14:55:23)
 ------------------------------------------------------
 Symbolic Z-matrix:
 Charge =  0 Multiplicity = 1

                         Standard orientation:
 ---------------------------------------------------------------------
 Center     Atomic      Atomic             Coordinates (Angstroms)
 Number     Number       Type             X           Y           Z
 ---------------------------------------------------------------------
      1          6           0        1.768689    2.278531    0.974827
      2          6           0        1.127751    1.222686    1.631266
      3          6           0        1.276039   -0.090877    1.176171
      4          6           0        2.076286   -0.313499    0.056646
      5          6           0        2.727791    0.717271   -0.618886
      6          6           0        2.565259    2.022904   -0.146178
      7          1           0        1.647962    3.295858    1.335198
      8          1           0        0.508514    1.418243    2.502098
      9          1           0        0.791251   -0.926978    1.665387
     10          1           0        3.338642    0.491080   -1.484402
     11          1           0        3.064215    2.840927   -0.657966
     12          7           0        2.240812   -1.699911   -0.434467
     13          8           0        2.951263   -1.869659   -1.422941
     14          8           0        1.656200   -2.590582    0.178373
     15          6           0       -2.840015    0.758242   -0.514544
     16          6           0       -1.919450    1.939625   -0.206521
     17          6           0       -2.366811    3.231731   -0.890717
     18          1           0       -2.878026    0.604958   -1.601744
     19          1           0       -3.862460    1.006841   -0.197998
     20          1           0       -0.898783    1.688335   -0.522289
     21          1           0       -1.883476    2.089993    0.880084
     22          1           0       -3.375354    3.509437   -0.567727
     23          1           0       -2.385066    3.105497   -1.978068
     24          1           0       -1.694698    4.063282   -0.656952
     25          6           0       -2.405859   -0.540639    0.162320
     26          6           0       -3.326425   -1.722021   -0.145702
     27          6           0       -2.879064   -3.014128    0.538494
     28          1           0       -1.383415   -0.789238   -0.154225
     29          1           0       -2.367849   -0.387356    1.249521
     30          1           0       -3.362399   -1.872391   -1.232308
     31          1           0       -4.347091   -1.470732    0.170066
     32          1           0       -2.860809   -2.887894    1.625844
     33          1           0       -1.870521   -3.291834    0.215503
     34          1           0       -3.551178   -3.845679    0.304728
 ---------------------------------------------------------------------

 SCF Done:  E(RHF) =  -669.534514288     A.U. after   15 cycles
 E2 =    -0.2095058734D+01 EUMP2 =    -0.67162957302224D+03

 The electronic state is 1-A.
 Alpha  occ. eigenvalues --  -20.60881 -20.60876 -15.85921 -11.31254 -11.27821
 Alpha  occ. eigenvalues --  -11.27755 -11.27517 -11.26832 -11.26759 -11.21792
 Alpha  occ. eigenvalues --  -11.21518 -11.21470 -11.21415 -11.21413 -11.20695
 Alpha  occ. eigenvalues --   -1.59948  -1.39501  -1.19425  -1.08826  -1.08508
 Alpha  occ. eigenvalues --   -1.04810  -1.03564  -0.96018  -0.95655  -0.87034
 Alpha  occ. eigenvalues --   -0.86205  -0.82487  -0.79649  -0.78372  -0.77519
 Alpha  occ. eigenvalues --   -0.72135  -0.71270  -0.70512  -0.65177  -0.65059
 Alpha  occ. eigenvalues --   -0.64785  -0.62158  -0.60953  -0.59442  -0.57633
 Alpha  occ. eigenvalues --   -0.55321  -0.55274  -0.53305  -0.52911  -0.52645
 Alpha  occ. eigenvalues --   -0.52425  -0.49946  -0.48896  -0.48894  -0.47937
 Alpha  occ. eigenvalues --   -0.46658  -0.45881  -0.45756  -0.44861  -0.43836
 Alpha  occ. eigenvalues --   -0.37354  -0.36311
 Alpha virt. eigenvalues --    0.04952   0.11143   0.16372   0.20705   0.22991
 Alpha virt. eigenvalues --    0.23904   0.25547   0.26719   0.27783   0.28202
 Alpha virt. eigenvalues --    0.28939   0.30684   0.31410   0.31528   0.32036

 Mulliken charges:
               1
     1  C   -0.170805
     2  C   -0.213263
     3  C   -0.170271
     4  C    0.157344
     5  C   -0.172038
     6  C   -0.218694
     7  H    0.225858
     8  H    0.223532
     9  H    0.277163
    10  H    0.275675
    11  H    0.223814
    12  N    0.488315
    13  O   -0.459662
    14  O   -0.461088
    15  C   -0.298010
    16  C   -0.301606
    17  C   -0.474802
    18  H    0.151619
    19  H    0.148718
    20  H    0.161245
    21  H    0.141625
    22  H    0.155531
    23  H    0.157083
    24  H    0.153842
    25  C   -0.300898
    26  C   -0.298995
    27  C   -0.480518
    28  H    0.154290
    29  H    0.140733
    30  H    0.153845
    31  H    0.149885
    32  H    0.150379
    33  H    0.169811
    34  H    0.160345
 Sum of Mulliken charges =  -0.00000

 Dipole moment (field-independent basis, Debye):
    X=             -0.4672    Y=              4.7805    Z=              1.6704  Tot=              5.0854
 Quadrupole moment (field-independent basis, Debye-Ang):
   XX=            -96.0248   YY=            -98.8441   ZZ=            -91.7614
   XY=             11.8787   XZ=              0.7745   YZ=             -0.9120

 Normal termination of Gaussian 16 at Thu May  6 15:57:38 2021.
