 Gaussian 16, Revision A.03,
 Gaussian 16:  EM64L-G16RevA.03 25-Dec-2016

 -------------
 #p 6-31g* mp2
 -------------

 ------------------------------------------------------
 Input file generated by CHIRIPA (05-May-2021 14:55:19)
 ------------------------------------------------------
 Symbolic Z-matrix:
 Charge =  0 Multiplicity = 1

                         Standard orientation:
 ---------------------------------------------------------------------
 Center     Atomic      Atomic             Coordinates (Angstroms)
 Number     Number       Type             X           Y           Z
 ---------------------------------------------------------------------
      1          6           0        0.970684   -0.585877    0.545725
      2          6           0        1.391051    0.568652   -0.122762
      3          6           0        2.741875    0.760385   -0.427821
      4          6           0        3.649356   -0.227252   -0.047901
      5          6           0        3.261549   -1.388305    0.619071
      6          6           0        1.905626   -1.558956    0.913859
      7          1           0       -0.080649   -0.726632    0.778713
      8          1           0        0.667185    1.326035   -0.409874
      9          1           0        3.094676    1.644683   -0.944510
     10          1           0        4.006549   -2.125627    0.892474
     11          1           0        1.582032   -2.456574    1.433102
     12          7           0        5.082112   -0.035432   -0.365416
     13          8           0        5.861837   -0.920464   -0.019895
     14          8           0        5.398252    0.996315   -0.953795
     15          6           0       -4.606625   -0.361798   -0.221255
     16          6           0       -6.129158   -0.501094   -0.243039
     17          6           0       -6.589263   -1.893348   -0.676314
     18          1           0       -4.209937   -0.586036   -1.220905
     19          1           0       -4.186089   -1.115948    0.458305
     20          1           0       -6.546795    0.253999   -0.921293
     21          1           0       -6.522284   -0.276311    0.756732
     22          1           0       -6.200176   -2.656998    0.004898
     23          1           0       -6.224825   -2.123674   -1.682662
     24          1           0       -7.680953   -1.970808   -0.684848
     25          6           0       -4.131221    1.024496    0.209915
     26          6           0       -2.608688    1.163792    0.231698
     27          6           0       -2.148582    2.556045    0.664974
     28          1           0       -4.551757    1.778646   -0.469645
     29          1           0       -4.527910    1.248734    1.209564
     30          1           0       -2.215562    0.939009   -0.768073
     31          1           0       -2.191052    0.408700    0.909953
     32          1           0       -2.513020    2.786372    1.671322
     33          1           0       -2.537671    3.319696   -0.016238
     34          1           0       -1.056893    2.633506    0.673508
 ---------------------------------------------------------------------

 SCF Done:  E(RHF) =  -669.535019097     A.U. after   15 cycles
 E2 =    -0.2092117900D+01 EUMP2 =    -0.67162713699708D+03

 The electronic state is 1-A.
 Alpha  occ. eigenvalues --  -20.60702 -20.60697 -15.85755 -11.31102 -11.27678
 Alpha  occ. eigenvalues --  -11.27671 -11.27358 -11.26673 -11.26640 -11.23002
 Alpha  occ. eigenvalues --  -11.22419 -11.22319 -11.22314 -11.22251 -11.21673
 Alpha  occ. eigenvalues --   -1.59779  -1.39333  -1.19272  -1.09437  -1.08663
 Alpha  occ. eigenvalues --   -1.04687  -1.04519  -0.96942  -0.95503  -0.87957
 Alpha  occ. eigenvalues --   -0.86073  -0.82347  -0.80641  -0.79217  -0.77397
 Alpha  occ. eigenvalues --   -0.71974  -0.71102  -0.70384  -0.66056  -0.64922
 Alpha  occ. eigenvalues --   -0.64742  -0.62105  -0.61906  -0.60287  -0.58534
 Alpha  occ. eigenvalues --   -0.56199  -0.55202  -0.53683  -0.53403  -0.52996
 Alpha  occ. eigenvalues --   -0.52664  -0.50863  -0.48929  -0.48730  -0.48714
 Alpha  occ. eigenvalues --   -0.47655  -0.46743  -0.46642  -0.44766  -0.44742
 Alpha  occ. eigenvalues --   -0.37240  -0.36283
 Alpha virt. eigenvalues --    0.05142   0.11300   0.16625   0.19308   0.22349
 Alpha virt. eigenvalues --    0.23686   0.24694   0.25831   0.26212   0.28125
 Alpha virt. eigenvalues --    0.29093   0.29690   0.30689   0.31613   0.31776

 Mulliken charges:
               1
     1  C   -0.175628
     2  C   -0.226751
     3  C   -0.171605
     4  C    0.158431
     5  C   -0.170802
     6  C   -0.219659
     7  H    0.233062
     8  H    0.230725
     9  H    0.275502
    10  H    0.275209
    11  H    0.223228
    12  N    0.488000
    13  O   -0.460711
    14  O   -0.460685
    15  C   -0.299082
    16  C   -0.300428
    17  C   -0.476265
    18  H    0.150886
    19  H    0.147033
    20  H    0.153867
    21  H    0.153289
    22  H    0.155129
    23  H    0.156182
    24  H    0.162739
    25  C   -0.297812
    26  C   -0.308264
    27  C   -0.479895
    28  H    0.153678
    29  H    0.152944
    30  H    0.151644
    31  H    0.147008
    32  H    0.161636
    33  H    0.161094
    34  H    0.156304
 Sum of Mulliken charges =  -0.00000

 Dipole moment (field-independent basis, Debye):
    X=             -5.3710    Y=             -0.6132    Z=              1.1120  Tot=              5.5191
 Quadrupole moment (field-independent basis, Debye-Ang):
   XX=           -131.1419   YY=            -91.3168   ZZ=            -93.7540
   XY=             -3.1133   XZ=              4.7662   YZ=             -2.9573

 Normal termination of Gaussian 16 at Thu May  6 07:40:04 2021.
