 Gaussian 16, Revision A.03,
 Gaussian 16:  EM64L-G16RevA.03 25-Dec-2016

 -------------
 #p 6-31g* mp2
 -------------

 ------------------------------------------------------
 Input file generated by CHIRIPA (05-May-2021 14:57:24)
 ------------------------------------------------------
 Symbolic Z-matrix:
 Charge =  0 Multiplicity = 1

                         Standard orientation:
 ---------------------------------------------------------------------
 Center     Atomic      Atomic             Coordinates (Angstroms)
 Number     Number       Type             X           Y           Z
 ---------------------------------------------------------------------
      1          6           0       -5.312944   -0.770287    0.866062
      2          6           0       -4.371768   -1.772048    0.606868
      3          6           0       -3.159875   -1.463159   -0.017993
      4          6           0       -2.920889   -0.136122   -0.371756
      5          6           0       -3.838596    0.884261   -0.126964
      6          6           0       -5.043829    0.552338    0.498966
      7          1           0       -6.251785   -1.019186    1.351885
      8          1           0       -4.578071   -2.800074    0.890851
      9          1           0       -2.413591   -2.219009   -0.230521
     10          1           0       -3.604544    1.900012   -0.421732
     11          1           0       -5.772909    1.332382    0.699016
     12          7           0       -1.641438    0.203078   -1.033835
     13          8           0       -1.454867    1.379829   -1.335640
     14          8           0       -0.849401   -0.714231   -1.238430
     15          6           0        1.552109    2.075962    0.829571
     16          6           0        1.916225    1.844173   -0.500923
     17          6           0        2.790751    0.803194   -0.826678
     18          6           0        3.284473    0.009894    0.207828
     19          6           0        2.940499    0.215654    1.542982
     20          6           0        2.064504    1.262397    1.845487
     21          1           0        0.872185    2.886859    1.073594
     22          1           0        1.519844    2.474400   -1.291960
     23          1           0        3.089230    0.601535   -1.848275
     24          1           0        3.351995   -0.429424    2.309771
     25          1           0        1.783466    1.440080    2.879649
     26          7           0        4.211071   -1.095195   -0.124726
     27          8           0        4.632226   -1.779880    0.805043
     28          8           0        4.498640   -1.255754   -1.308856
 ---------------------------------------------------------------------

 SCF Done:  E(RHF) =  -868.339253665     A.U. after   16 cycles
 E2 =    -0.2600128814D+01 EUMP2 =    -0.87093938247881D+03

 The electronic state is 1-A.
 Alpha  occ. eigenvalues --  -20.61459 -20.61395 -20.59762 -20.59739 -15.86447
 Alpha  occ. eigenvalues --  -15.84795 -11.31686 -11.29939 -11.28265 -11.28198
 Alpha  occ. eigenvalues --  -11.27943 -11.27233 -11.27188 -11.26549 -11.26364
 Alpha  occ. eigenvalues --  -11.26177 -11.25597 -11.25293  -1.60478  -1.58829
 Alpha  occ. eigenvalues --   -1.40041  -1.38390  -1.19842  -1.18075  -1.09261
 Alpha  occ. eigenvalues --   -1.07526  -1.05223  -1.03440  -0.96120  -0.94403
 Alpha  occ. eigenvalues --   -0.86626  -0.84860  -0.82958  -0.81241  -0.78021
 Alpha  occ. eigenvalues --   -0.76310  -0.72691  -0.71789  -0.71029  -0.70944
 Alpha  occ. eigenvalues --   -0.70139  -0.69227  -0.65497  -0.65221  -0.63742
 Alpha  occ. eigenvalues --   -0.63453  -0.62570  -0.60805  -0.55725  -0.53996
 Alpha  occ. eigenvalues --   -0.53566  -0.53309  -0.51815  -0.51553  -0.49442
 Alpha  occ. eigenvalues --   -0.49384  -0.47790  -0.47761  -0.45478  -0.43847
 Alpha  occ. eigenvalues --   -0.37818  -0.36823  -0.36047  -0.34960
 Alpha virt. eigenvalues --    0.04494   0.06203   0.10834   0.12657   0.16027
 Alpha virt. eigenvalues --    0.17757   0.21003   0.22651   0.26921   0.27873
 Alpha virt. eigenvalues --    0.28624   0.29444   0.30590   0.32097   0.32172

 Mulliken charges:
               1
     1  C   -0.170390
     2  C   -0.218627
     3  C   -0.170534
     4  C    0.158408
     5  C   -0.172025
     6  C   -0.218601
     7  H    0.227216
     8  H    0.225859
     9  H    0.278434
    10  H    0.272956
    11  H    0.223980
    12  N    0.490020
    13  O   -0.470520
    14  O   -0.454059
    15  C   -0.174737
    16  C   -0.201429
    17  C   -0.164657
    18  C    0.158821
    19  C   -0.173758
    20  C   -0.220406
    21  H    0.221427
    22  H    0.231195
    23  H    0.274456
    24  H    0.269849
    25  H    0.215981
    26  N    0.488280
    27  O   -0.465956
    28  O   -0.461183
 Sum of Mulliken charges =  -0.00000

 Dipole moment (field-independent basis, Debye):
    X=             -8.1007    Y=              2.6437    Z=              3.2369  Tot=              9.1153
 Quadrupole moment (field-independent basis, Debye-Ang):
   XX=           -101.4535   YY=           -100.1929   ZZ=           -102.5851
   XY=             15.9089   XZ=             -2.5545   YZ=             -0.8957

 Normal termination of Gaussian 16 at Fri May  7 00:21:34 2021.
