 Gaussian 16, Revision A.03,
 Gaussian 16:  EM64L-G16RevA.03 25-Dec-2016

 -------------
 #p 6-31g* mp2
 -------------

 ------------------------------------------------------
 Input file generated by CHIRIPA (05-May-2021 14:57:25)
 ------------------------------------------------------
 Symbolic Z-matrix:
 Charge =  0 Multiplicity = 1

                         Standard orientation:
 ---------------------------------------------------------------------
 Center     Atomic      Atomic             Coordinates (Angstroms)
 Number     Number       Type             X           Y           Z
 ---------------------------------------------------------------------
      1          6           0        1.007135    2.661446    1.041443
      2          6           0        1.005211    1.567492    1.913096
      3          6           0        1.435515    0.311007    1.476481
      4          6           0        1.863101    0.183703    0.155779
      5          6           0        1.876779    1.254527   -0.736655
      6          6           0        1.442146    2.501754   -0.278324
      7          1           0        0.671183    3.633918    1.389050
      8          1           0        0.667915    1.688569    2.938580
      9          1           0        1.444404   -0.552758    2.130124
     10          1           0        2.218691    1.102838   -1.753269
     11          1           0        1.444728    3.349566   -0.957481
     12          7           0        2.320936   -1.141581   -0.317941
     13          8           0        2.692846   -1.227570   -1.486241
     14          8           0        2.299208   -2.069255    0.488028
     15          6           0       -2.205409    1.975487   -0.967578
     16          6           0       -2.692953    1.527190    0.264433
     17          6           0       -2.467454    0.211885    0.681171
     18          6           0       -1.747256   -0.631985   -0.162920
     19          6           0       -1.248600   -0.214995   -1.396107
     20          6           0       -1.486058    1.104499   -1.792462
     21          1           0       -2.385226    2.998875   -1.283392
     22          1           0       -3.251934    2.201399    0.907107
     23          1           0       -2.833508   -0.161342    1.629920
     24          1           0       -0.694783   -0.910388   -2.015083
     25          1           0       -1.106233    1.449910   -2.749786
     26          7           0       -1.502202   -2.026657    0.267471
     27          8           0       -0.864834   -2.750428   -0.494470
     28          8           0       -1.952135   -2.369622    1.358605
 ---------------------------------------------------------------------

 SCF Done:  E(RHF) =  -868.331731731     A.U. after   16 cycles
 E2 =    -0.2611172043D+01 EUMP2 =    -0.87094290377450D+03

 The electronic state is 1-A.
 Alpha  occ. eigenvalues --  -20.60639 -20.60576 -20.60540 -20.60474 -15.85625
 Alpha  occ. eigenvalues --  -15.85568 -11.31189 -11.31161 -11.27836 -11.27826
 Alpha  occ. eigenvalues --  -11.27750 -11.27747 -11.27656 -11.27626 -11.26938
 Alpha  occ. eigenvalues --  -11.26908 -11.26882 -11.26866  -1.59664  -1.59575
 Alpha  occ. eigenvalues --   -1.39212  -1.39130  -1.19576  -1.19277  -1.08870
 Alpha  occ. eigenvalues --   -1.08709  -1.05000  -1.04753  -0.95623  -0.95530
 Alpha  occ. eigenvalues --   -0.86320  -0.86242  -0.82440  -0.82374  -0.77476
 Alpha  occ. eigenvalues --   -0.77347  -0.71871  -0.71788  -0.71357  -0.70626
 Alpha  occ. eigenvalues --   -0.70594  -0.70467  -0.65111  -0.65084  -0.64914
 Alpha  occ. eigenvalues --   -0.64868  -0.62315  -0.62134  -0.55419  -0.55388
 Alpha  occ. eigenvalues --   -0.54650  -0.53001  -0.52974  -0.51686  -0.48627
 Alpha  occ. eigenvalues --   -0.48611  -0.48559  -0.48532  -0.44816  -0.44184
 Alpha  occ. eigenvalues --   -0.38666  -0.38043  -0.36001  -0.35046
 Alpha virt. eigenvalues --    0.04705   0.05191   0.10653   0.11635   0.16480
 Alpha virt. eigenvalues --    0.17017   0.20423   0.21875   0.26162   0.27325
 Alpha virt. eigenvalues --    0.28139   0.28636   0.30544   0.30638   0.32348

 Mulliken charges:
               1
     1  C   -0.168655
     2  C   -0.215686
     3  C   -0.176273
     4  C    0.158868
     5  C   -0.172562
     6  C   -0.214089
     7  H    0.221118
     8  H    0.222795
     9  H    0.282147
    10  H    0.270936
    11  H    0.216992
    12  N    0.488895
    13  O   -0.466061
    14  O   -0.447374
    15  C   -0.170273
    16  C   -0.218589
    17  C   -0.171436
    18  C    0.160940
    19  C   -0.177671
    20  C   -0.213663
    21  H    0.220279
    22  H    0.219125
    23  H    0.273211
    24  H    0.283905
    25  H    0.219843
    26  N    0.485960
    27  O   -0.448783
    28  O   -0.463902
 Sum of Mulliken charges =  -0.00000

 Dipole moment (field-independent basis, Debye):
    X=             -2.3666    Y=              9.2120    Z=              0.2094  Tot=              9.5135
 Quadrupole moment (field-independent basis, Debye-Ang):
   XX=           -108.4196   YY=           -109.5812   ZZ=            -96.5329
   XY=              0.0284   XZ=              2.6077   YZ=              0.1529

 Normal termination of Gaussian 16 at Fri May  7 01:59:43 2021.
