 Gaussian 16, Revision A.03,
 Gaussian 16:  EM64L-G16RevA.03 25-Dec-2016

 -------------
 #p 6-31g* mp2
 -------------

 ------------------------------------------------------
 Input file generated by CHIRIPA (05-May-2021 14:57:21)
 ------------------------------------------------------
 Symbolic Z-matrix:
 Charge =  0 Multiplicity = 1

                         Standard orientation:
 ---------------------------------------------------------------------
 Center     Atomic      Atomic             Coordinates (Angstroms)
 Number     Number       Type             X           Y           Z
 ---------------------------------------------------------------------
      1          6           0        2.168846    2.423111   -0.906399
      2          6           0        3.489623    2.103731   -0.574636
      3          6           0        3.842675    0.790245   -0.251129
      4          6           0        2.845078   -0.183282   -0.269441
      5          6           0        1.520485    0.103528   -0.595759
      6          6           0        1.190218    1.423752   -0.915885
      7          1           0        1.903437    3.446075   -1.156394
      8          1           0        4.251726    2.877796   -0.566450
      9          1           0        4.857526    0.515289    0.009440
     10          1           0        0.782775   -0.689694   -0.595283
     11          1           0        0.163684    1.668883   -1.173146
     12          7           0        3.206778   -1.577378    0.071252
     13          8           0        2.309327   -2.416824    0.047827
     14          8           0        4.380880   -1.804225    0.355261
     15          6           0       -4.324907   -0.827106   -1.514699
     16          6           0       -3.399685   -1.713160   -0.953099
     17          6           0       -2.541768   -1.291554    0.067084
     18          6           0       -2.636639    0.028987    0.503503
     19          6           0       -3.547881    0.935558   -0.035991
     20          6           0       -4.395927    0.492099   -1.055162
     21          1           0       -4.987523   -1.163108   -2.306809
     22          1           0       -3.342300   -2.738245   -1.307999
     23          1           0       -1.816159   -1.956530    0.519540
     24          1           0       -3.581588    1.951387    0.338674
     25          1           0       -5.113488    1.182419   -1.489455
     26          7           0       -1.733625    0.486889    1.582991
     27          8           0       -1.837045    1.655375    1.949847
     28          8           0       -0.939522   -0.331362    2.041796
 ---------------------------------------------------------------------

 SCF Done:  E(RHF) =  -868.338303377     A.U. after   16 cycles
 E2 =    -0.2601244357D+01 EUMP2 =    -0.87093954773439D+03

 The electronic state is 1-A.
 Alpha  occ. eigenvalues --  -20.61293 -20.61257 -20.60250 -20.60245 -15.86305
 Alpha  occ. eigenvalues --  -15.85305 -11.31747 -11.30575 -11.28308 -11.28213
 Alpha  occ. eigenvalues --  -11.27977 -11.27305 -11.27232 -11.27187 -11.27182
 Alpha  occ. eigenvalues --  -11.26934 -11.26192 -11.26174  -1.60348  -1.59317
 Alpha  occ. eigenvalues --   -1.39896  -1.38878  -1.19897  -1.18762  -1.09273
 Alpha  occ. eigenvalues --   -1.08175  -1.05275  -1.04181  -0.96094  -0.95028
 Alpha  occ. eigenvalues --   -0.86668  -0.85582  -0.82903  -0.81887  -0.77961
 Alpha  occ. eigenvalues --   -0.76937  -0.72508  -0.71719  -0.71531  -0.70947
 Alpha  occ. eigenvalues --   -0.70620  -0.69896  -0.65519  -0.65240  -0.64441
 Alpha  occ. eigenvalues --   -0.64217  -0.62596  -0.61546  -0.55741  -0.54704
 Alpha  occ. eigenvalues --   -0.53629  -0.53332  -0.52468  -0.52309  -0.49288
 Alpha  occ. eigenvalues --   -0.49267  -0.48289  -0.48282  -0.45268  -0.44303
 Alpha  occ. eigenvalues --   -0.37880  -0.36891  -0.36722  -0.35742
 Alpha virt. eigenvalues --    0.04513   0.05633   0.10632   0.11913   0.16037
 Alpha virt. eigenvalues --    0.17114   0.20889   0.21782   0.26463   0.27196
 Alpha virt. eigenvalues --    0.27940   0.28802   0.30640   0.30864   0.32076

 Mulliken charges:
               1
     1  C   -0.167926
     2  C   -0.218782
     3  C   -0.169838
     4  C    0.158597
     5  C   -0.160981
     6  C   -0.218843
     7  H    0.224133
     8  H    0.221636
     9  H    0.274198
    10  H    0.270551
    11  H    0.218427
    12  N    0.489272
    13  O   -0.463245
    14  O   -0.461864
    15  C   -0.171007
    16  C   -0.218420
    17  C   -0.179683
    18  C    0.153347
    19  C   -0.175544
    20  C   -0.218295
    21  H    0.228039
    22  H    0.228916
    23  H    0.285127
    24  H    0.275216
    25  H    0.224699
    26  N    0.486976
    27  O   -0.461065
    28  O   -0.453641
 Sum of Mulliken charges =  -0.00000

 Dipole moment (field-independent basis, Debye):
    X=             -4.6100    Y=              3.1876    Z=             -4.8987  Tot=              7.4438
 Quadrupole moment (field-independent basis, Debye-Ang):
   XX=            -90.2082   YY=           -102.7662   ZZ=           -109.3923
   XY=             18.3821   XZ=              6.7175   YZ=             -1.9731

 Normal termination of Gaussian 16 at Thu May  6 04:53:35 2021.
