 Gaussian 16, Revision A.03,
 Gaussian 16:  EM64L-G16RevA.03 25-Dec-2016

 -------------
 #p 6-31g* mp2
 -------------

 ------------------------------------------------------
 Input file generated by CHIRIPA (05-May-2021 14:53:15)
 ------------------------------------------------------
 Symbolic Z-matrix:
 Charge =  0 Multiplicity = 1

                         Standard orientation:
 ---------------------------------------------------------------------
 Center     Atomic      Atomic             Coordinates (Angstroms)
 Number     Number       Type             X           Y           Z
 ---------------------------------------------------------------------
      1          6           0       -4.294405    0.427289    0.124132
      2          6           0       -5.771564    0.574367   -0.242413
      3          6           0       -6.261876    2.019808   -0.152488
      4          1           0       -4.136428    0.806860    1.142913
      5          1           0       -3.693522    1.061417   -0.542363
      6          1           0       -6.369363   -0.060912    0.423675
      7          1           0       -5.926078    0.194225   -1.260368
      8          1           0       -5.690727    2.663175   -0.829592
      9          1           0       -6.136531    2.406589    0.864021
     10          1           0       -7.320302    2.102004   -0.418642
     11          6           0       -3.789490   -1.011995    0.038985
     12          6           0       -2.312331   -1.159072    0.405530
     13          6           0       -1.822019   -2.604514    0.315605
     14          1           0       -4.390373   -1.646122    0.705481
     15          1           0       -3.947467   -1.391566   -0.979796
     16          1           0       -2.157817   -0.778930    1.423486
     17          1           0       -1.714532   -0.523794   -0.260558
     18          1           0       -1.947364   -2.991295   -0.700904
     19          1           0       -2.393168   -3.247881    0.992709
     20          1           0       -0.763593   -2.686709    0.581759
     21          6           0        3.457938    2.725197    0.140814
     22          6           0        4.566754    1.877212    0.230095
     23          6           0        4.412249    0.492236    0.118213
     24          6           0        3.128752   -0.012980   -0.083491
     25          6           0        2.004437    0.805866   -0.176731
     26          6           0        2.182567    2.187765   -0.061957
     27          1           0        3.587138    3.799884    0.228850
     28          1           0        5.558409    2.291791    0.387539
     29          1           0        5.253383   -0.187207    0.183548
     30          1           0        1.028391    0.363121   -0.333993
     31          1           0        1.319636    2.843914   -0.131690
     32          7           0        2.952680   -1.477564   -0.203466
     33          8           0        1.811376   -1.897778   -0.380904
     34          8           0        3.959310   -2.177558   -0.117793
 ---------------------------------------------------------------------

 SCF Done:  E(RHF) =  -669.536050249     A.U. after   15 cycles
 E2 =    -0.2091256434D+01 EUMP2 =    -0.67162730668260D+03

 The electronic state is 1-A.
 Alpha  occ. eigenvalues --  -20.60884 -20.60868 -15.85920 -11.31235 -11.27804
 Alpha  occ. eigenvalues --  -11.27790 -11.27543 -11.26812 -11.26798 -11.21576
 Alpha  occ. eigenvalues --  -11.21344 -11.21281 -11.21132 -11.21117 -11.20102
 Alpha  occ. eigenvalues --   -1.59946  -1.39502  -1.19407  -1.08813  -1.08254
 Alpha  occ. eigenvalues --   -1.04802  -1.03253  -0.95695  -0.95617  -0.86669
 Alpha  occ. eigenvalues --   -0.86203  -0.82489  -0.79349  -0.78080  -0.77540
 Alpha  occ. eigenvalues --   -0.72150  -0.71262  -0.70517  -0.65064  -0.64901
 Alpha  occ. eigenvalues --   -0.64798  -0.62153  -0.60658  -0.59050  -0.57256
 Alpha  occ. eigenvalues --   -0.55310  -0.54959  -0.53137  -0.52895  -0.52288
 Alpha  occ. eigenvalues --   -0.52074  -0.49618  -0.48899  -0.48892  -0.47637
 Alpha  occ. eigenvalues --   -0.46414  -0.45606  -0.45545  -0.44914  -0.43473
 Alpha  occ. eigenvalues --   -0.37389  -0.36404
 Alpha virt. eigenvalues --    0.04967   0.11249   0.16448   0.20492   0.22965
 Alpha virt. eigenvalues --    0.23919   0.25832   0.27085   0.27638   0.28207
 Alpha virt. eigenvalues --    0.29017   0.30387   0.31486   0.31825   0.32521

 Mulliken charges:
               1
     1  C   -0.297363
     2  C   -0.299397
     3  C   -0.475465
     4  H    0.148042
     5  H    0.144876
     6  H    0.152786
     7  H    0.152539
     8  H    0.153401
     9  H    0.154404
    10  H    0.160526
    11  C   -0.297463
    12  C   -0.300437
    13  C   -0.482239
    14  H    0.150387
    15  H    0.150534
    16  H    0.148434
    17  H    0.144134
    18  H    0.155152
    19  H    0.149815
    20  H    0.185331
    21  C   -0.170427
    22  C   -0.218877
    23  C   -0.170330
    24  C    0.156953
    25  C   -0.174347
    26  C   -0.220102
    27  H    0.225818
    28  H    0.223587
    29  H    0.275643
    30  H    0.282038
    31  H    0.224152
    32  N    0.491794
    33  O   -0.464694
    34  O   -0.459206
 Sum of Mulliken charges =  -0.00000

 Dipole moment (field-independent basis, Debye):
    X=              0.7780    Y=              5.0469    Z=              0.4257  Tot=              5.1242
 Quadrupole moment (field-independent basis, Debye-Ang):
   XX=            -86.4925   YY=            -96.1235   ZZ=            -94.7553
   XY=             16.2755   XZ=              1.7974   YZ=             -0.6680

 Normal termination of Gaussian 16 at Thu May  6 01:07:28 2021.
