 Gaussian 16, Revision A.03,
 Gaussian 16:  EM64L-G16RevA.03 25-Dec-2016

 -------------
 #p 6-31g* mp2
 -------------

 ------------------------------------------------------
 Input file generated by CHIRIPA (05-May-2021 14:57:22)
 ------------------------------------------------------
 Symbolic Z-matrix:
 Charge =  0 Multiplicity = 1

                         Standard orientation:
 ---------------------------------------------------------------------
 Center     Atomic      Atomic             Coordinates (Angstroms)
 Number     Number       Type             X           Y           Z
 ---------------------------------------------------------------------
      1          6           0        2.249509    2.699260   -0.404135
      2          6           0        2.460477    2.094081    0.839156
      3          6           0        2.717374    0.722633    0.926797
      4          6           0        2.756353   -0.016794   -0.254312
      5          6           0        2.550244    0.557143   -1.507869
      6          6           0        2.294986    1.930216   -1.571621
      7          1           0        2.050582    3.765265   -0.462938
      8          1           0        2.425744    2.688854    1.747497
      9          1           0        2.884301    0.228520    1.876221
     10          1           0        2.591037   -0.061865   -2.395891
     11          1           0        2.131523    2.397522   -2.538549
     12          7           0        3.027451   -1.469545   -0.174175
     13          8           0        3.056582   -2.098938   -1.229473
     14          8           0        3.205674   -1.951309    0.942416
     15          6           0       -0.784322   -0.550614    1.862410
     16          6           0       -1.755036    0.420863    2.127866
     17          6           0       -2.827273    0.611315    1.251177
     18          6           0       -2.898001   -0.190929    0.113331
     19          6           0       -1.946648   -1.167101   -0.178736
     20          6           0       -0.883052   -1.340103    0.711983
     21          1           0        0.045261   -0.691784    2.548892
     22          1           0       -1.680918    1.035439    3.020529
     23          1           0       -3.592702    1.356106    1.432343
     24          1           0       -2.047468   -1.764483   -1.076727
     25          1           0       -0.130643   -2.095330    0.503274
     26          7           0       -4.028557    0.001457   -0.822207
     27          8           0       -4.068129   -0.718202   -1.817778
     28          8           0       -4.853707    0.868267   -0.542198
 ---------------------------------------------------------------------

 SCF Done:  E(RHF) =  -868.338540043     A.U. after   16 cycles
 E2 =    -0.2601244706D+01 EUMP2 =    -0.87093978474948D+03

 The electronic state is 1-A.
 Alpha  occ. eigenvalues --  -20.61738 -20.61708 -20.60784 -20.60774 -15.86753
 Alpha  occ. eigenvalues --  -15.85833 -11.31906 -11.31145 -11.28518 -11.28403
 Alpha  occ. eigenvalues --  -11.28114 -11.27753 -11.27663 -11.27450 -11.27432
 Alpha  occ. eigenvalues --  -11.27352 -11.26764 -11.26605  -1.60812  -1.59860
 Alpha  occ. eigenvalues --   -1.40365  -1.39414  -1.20056  -1.19313  -1.09485
 Alpha  occ. eigenvalues --   -1.08716  -1.05432  -1.04704  -0.96359  -0.95560
 Alpha  occ. eigenvalues --   -0.86842  -0.86105  -0.83196  -0.82390  -0.78285
 Alpha  occ. eigenvalues --   -0.77448  -0.72965  -0.72172  -0.72039  -0.71185
 Alpha  occ. eigenvalues --   -0.71170  -0.70410  -0.65711  -0.65430  -0.64961
 Alpha  occ. eigenvalues --   -0.64687  -0.62796  -0.62042  -0.55919  -0.55211
 Alpha  occ. eigenvalues --   -0.53857  -0.53520  -0.52936  -0.52783  -0.49748
 Alpha  occ. eigenvalues --   -0.49705  -0.48810  -0.48804  -0.45809  -0.44831
 Alpha  occ. eigenvalues --   -0.38099  -0.37471  -0.36748  -0.36275
 Alpha virt. eigenvalues --    0.04161   0.05101   0.10540   0.11360   0.15767
 Alpha virt. eigenvalues --    0.16627   0.20253   0.21690   0.26011   0.27007
 Alpha virt. eigenvalues --    0.27529   0.28833   0.30323   0.30879   0.32482

 Mulliken charges:
               1
     1  C   -0.168804
     2  C   -0.217018
     3  C   -0.174210
     4  C    0.159175
     5  C   -0.170171
     6  C   -0.217024
     7  H    0.228777
     8  H    0.222830
     9  H    0.270302
    10  H    0.277522
    11  H    0.227760
    12  N    0.485050
    13  O   -0.456818
    14  O   -0.465442
    15  C   -0.169566
    16  C   -0.219686
    17  C   -0.171989
    18  C    0.157969
    19  C   -0.171594
    20  C   -0.225719
    21  H    0.226294
    22  H    0.219759
    23  H    0.273887
    24  H    0.277457
    25  H    0.235347
    26  N    0.487861
    27  O   -0.459931
    28  O   -0.462017
 Sum of Mulliken charges =  -0.00000

 Dipole moment (field-independent basis, Debye):
    X=              3.1565    Y=              4.5153    Z=              2.8106  Tot=              6.1847
 Quadrupole moment (field-independent basis, Debye-Ang):
   XX=           -134.4052   YY=           -102.6068   ZZ=            -97.6790
   XY=             14.3852   XZ=            -10.8058   YZ=              0.6772

 Normal termination of Gaussian 16 at Fri May  7 00:11:10 2021.
