 Gaussian 16, Revision A.03,
 Gaussian 16:  EM64L-G16RevA.03 25-Dec-2016

 -------------
 #p 6-31g* mp2
 -------------

 ------------------------------------------------------
 Input file generated by CHIRIPA (05-May-2021 14:57:27)
 ------------------------------------------------------
 Symbolic Z-matrix:
 Charge =  0 Multiplicity = 1

                         Standard orientation:
 ---------------------------------------------------------------------
 Center     Atomic      Atomic             Coordinates (Angstroms)
 Number     Number       Type             X           Y           Z
 ---------------------------------------------------------------------
      1          6           0        4.658527    0.557663   -1.774330
      2          6           0        4.827995   -0.644434   -1.079519
      3          6           0        3.975431   -0.980539   -0.023717
      4          6           0        2.959331   -0.087197    0.312096
      5          6           0        2.764888    1.117971   -0.360995
      6          6           0        3.629329    1.433485   -1.413487
      7          1           0        5.325432    0.810760   -2.593217
      8          1           0        5.626422   -1.326527   -1.357562
      9          1           0        4.084040   -1.904555    0.531095
     10          1           0        1.959897    1.777704   -0.060727
     11          1           0        3.495350    2.367742   -1.951314
     12          7           0        2.050473   -0.432117    1.428075
     13          8           0        1.162952    0.371982    1.704423
     14          8           0        2.242840   -1.500033    2.005299
     15          6           0       -3.469679   -2.322051   -0.966102
     16          6           0       -4.068465   -1.244216   -1.626594
     17          6           0       -3.875610    0.063427   -1.171157
     18          6           0       -3.074264    0.257772   -0.047162
     19          6           0       -2.464124   -0.795373    0.632474
     20          6           0       -2.670829   -2.094590    0.159341
     21          1           0       -3.624873   -3.334587   -1.326770
     22          1           0       -4.689364   -1.417880   -2.500876
     23          1           0       -4.327208    0.916140   -1.663454
     24          1           0       -1.850473   -0.590798    1.501381
     25          1           0       -2.204550   -2.929733    0.674282
     26          7           0       -2.862767    1.637655    0.444357
     27          8           0       -2.152312    1.782312    1.436811
     28          8           0       -3.411454    2.548421   -0.172152
 ---------------------------------------------------------------------

 SCF Done:  E(RHF) =  -868.338625999     A.U. after   16 cycles
 E2 =    -0.2599429703D+01 EUMP2 =    -0.87093805570169D+03

 The electronic state is 1-A.
 Alpha  occ. eigenvalues --  -20.60871 -20.60805 -20.60046 -20.59961 -15.85858
 Alpha  occ. eigenvalues --  -15.85049 -11.31157 -11.30433 -11.27757 -11.27661
 Alpha  occ. eigenvalues --  -11.27470 -11.27112 -11.26857 -11.26846 -11.26752
 Alpha  occ. eigenvalues --  -11.26689 -11.26135 -11.25987  -1.59919  -1.59091
 Alpha  occ. eigenvalues --   -1.39463  -1.38631  -1.19331  -1.18638  -1.08746
 Alpha  occ. eigenvalues --   -1.08046  -1.04716  -1.04028  -0.95585  -0.94861
 Alpha  occ. eigenvalues --   -0.86119  -0.85428  -0.82405  -0.81676  -0.77461
 Alpha  occ. eigenvalues --   -0.76697  -0.72070  -0.71280  -0.71220  -0.70440
 Alpha  occ. eigenvalues --   -0.70416  -0.69740  -0.64979  -0.64718  -0.64283
 Alpha  occ. eigenvalues --   -0.64030  -0.62053  -0.61337  -0.55233  -0.54572
 Alpha  occ. eigenvalues --   -0.53062  -0.52802  -0.52394  -0.52106  -0.48865
 Alpha  occ. eigenvalues --   -0.48831  -0.48059  -0.47998  -0.44886  -0.44019
 Alpha  occ. eigenvalues --   -0.37321  -0.36669  -0.36319  -0.35643
 Alpha virt. eigenvalues --    0.05021   0.05805   0.11334   0.12003   0.16525
 Alpha virt. eigenvalues --    0.17261   0.21489   0.22167   0.27423   0.28078
 Alpha virt. eigenvalues --    0.28391   0.29136   0.31044   0.31665   0.32656

 Mulliken charges:
               1
     1  C   -0.170685
     2  C   -0.218950
     3  C   -0.171627
     4  C    0.156957
     5  C   -0.172031
     6  C   -0.219088
     7  H    0.225555
     8  H    0.222619
     9  H    0.273968
    10  H    0.282995
    11  H    0.225459
    12  N    0.486642
    13  O   -0.453950
    14  O   -0.465759
    15  C   -0.171478
    16  C   -0.219909
    17  C   -0.172520
    18  C    0.154359
    19  C   -0.173986
    20  C   -0.222010
    21  H    0.222645
    22  H    0.219762
    23  H    0.272377
    24  H    0.294819
    25  H    0.226307
    26  N    0.485898
    27  O   -0.450184
    28  O   -0.468184
 Sum of Mulliken charges =  -0.00000

 Dipole moment (field-independent basis, Debye):
    X=              2.6702    Y=             -3.5331    Z=             -5.4519  Tot=              7.0240
 Quadrupole moment (field-independent basis, Debye-Ang):
   XX=            -80.6816   YY=           -104.2491   ZZ=           -105.3569
   XY=             15.0164   XZ=             -3.3018   YZ=             -1.6453

 Normal termination of Gaussian 16 at Fri May  7 09:44:34 2021.
