 Gaussian 16, Revision A.03,
 Gaussian 16:  EM64L-G16RevA.03 25-Dec-2016

 -------------
 #p 6-31g* mp2
 -------------

 ------------------------------------------------------
 Input file generated by CHIRIPA (05-May-2021 14:51:12)
 ------------------------------------------------------
 Symbolic Z-matrix:
 Charge =  0 Multiplicity = 1

                         Standard orientation:
 ---------------------------------------------------------------------
 Center     Atomic      Atomic             Coordinates (Angstroms)
 Number     Number       Type             X           Y           Z
 ---------------------------------------------------------------------
      1          6           0       -3.049454    0.603962   -0.223042
      2          6           0       -2.920720    1.499796    1.009392
      3          6           0       -3.724317    2.794665    0.885540
      4          1           0       -2.716138    1.160665   -1.109567
      5          1           0       -4.109642    0.364605   -0.384614
      6          1           0       -1.860956    1.736259    1.169399
      7          1           0       -3.254201    0.940831    1.893113
      8          1           0       -4.788385    2.576143    0.749126
      9          1           0       -3.387224    3.376091    0.021299
     10          1           0       -3.618022    3.419993    1.777463
     11          6           0       -2.251742   -0.694327   -0.114280
     12          6           0       -2.380477   -1.590162   -1.346714
     13          6           0       -1.576880   -2.885031   -1.222862
     14          1           0       -1.191555   -0.454971    0.047292
     15          1           0       -2.585059   -1.251031    0.772245
     16          1           0       -2.046996   -1.031197   -2.230435
     17          1           0       -3.440241   -1.826624   -1.506721
     18          1           0       -1.913973   -3.466456   -0.358621
     19          1           0       -0.512812   -2.666509   -1.086447
     20          1           0       -1.683174   -3.510359   -2.114785
     21          6           0        2.953024    0.742532    0.243993
     22          6           0        2.892606    1.571542   -1.039393
     23          6           0        3.501482    2.964135   -0.872813
     24          1           0        2.428131    1.280308    1.045384
     25          1           0        4.000280    0.650018    0.563510
     26          1           0        1.845902    1.661298   -1.357154
     27          1           0        3.417540    1.031643   -1.837872
     28          1           0        4.553573    2.891922   -0.578720
     29          1           0        2.973006    3.525155   -0.095271
     30          1           0        3.447748    3.539590   -1.802234
     31          6           0        2.348173   -0.652167    0.093330
     32          6           0        2.408592   -1.481176    1.376715
     33          6           0        1.799714   -2.873769    1.210134
     34          1           0        1.300917   -0.559652   -0.226189
     35          1           0        2.873067   -1.189942   -0.708062
     36          1           0        1.883658   -0.941277    2.175194
     37          1           0        3.455295   -1.570932    1.694475
     38          1           0        2.328191   -3.434789    0.432592
     39          1           0        0.747624   -2.801556    0.916042
     40          1           0        1.853449   -3.449224    2.139555
 ---------------------------------------------------------------------

 SCF Done:  E(RHF) =  -470.732725774     A.U. after   11 cycles
 E2 =    -0.1584172617D+01 EUMP2 =    -0.47231689839165D+03

 The electronic state is 1-A.
 Alpha  occ. eigenvalues --  -11.21659 -11.21650 -11.21631 -11.21592 -11.21467
 Alpha  occ. eigenvalues --  -11.21447 -11.21407 -11.21388 -11.21113 -11.21107
 Alpha  occ. eigenvalues --  -11.21044 -11.20976  -1.08503  -1.08446  -1.03592
 Alpha  occ. eigenvalues --   -1.03521  -0.96048  -0.95962  -0.87082  -0.86962
 Alpha  occ. eigenvalues --   -0.79712  -0.79540  -0.78398  -0.78189  -0.65284
 Alpha  occ. eigenvalues --   -0.64945  -0.61072  -0.60851  -0.59432  -0.59315
 Alpha  occ. eigenvalues --   -0.57765  -0.57500  -0.55414  -0.55182  -0.52706
 Alpha  occ. eigenvalues --   -0.52674  -0.52631  -0.52242  -0.50074  -0.49807
 Alpha  occ. eigenvalues --   -0.48200  -0.47737  -0.46837  -0.46552  -0.46184
 Alpha  occ. eigenvalues --   -0.45805  -0.45778  -0.45168  -0.43827  -0.43801
 Alpha virt. eigenvalues --    0.19944   0.23014   0.23589   0.24944   0.25583
 Alpha virt. eigenvalues --    0.26730   0.26893   0.27406   0.28886   0.29901
 Alpha virt. eigenvalues --    0.30727   0.31184   0.31701   0.31781   0.31806

 Mulliken charges:
               1
     1  C   -0.297836
     2  C   -0.299584
     3  C   -0.475760
     4  H    0.149632
     5  H    0.150040
     6  H    0.151155
     7  H    0.152178
     8  H    0.155408
     9  H    0.155285
    10  H    0.160387
    11  C   -0.306294
    12  C   -0.298991
    13  C   -0.482296
    14  H    0.155095
    15  H    0.149967
    16  H    0.151863
    17  H    0.152113
    18  H    0.155076
    19  H    0.162505
    20  H    0.160569
    21  C   -0.297944
    22  C   -0.299566
    23  C   -0.475733
    24  H    0.149500
    25  H    0.150063
    26  H    0.151003
    27  H    0.152194
    28  H    0.155421
    29  H    0.155219
    30  H    0.160341
    31  C   -0.306913
    32  C   -0.298979
    33  C   -0.482414
    34  H    0.155735
    35  H    0.149909
    36  H    0.151908
    37  H    0.151870
    38  H    0.154496
    39  H    0.163440
    40  H    0.159940
 Sum of Mulliken charges =  -0.00000

 Dipole moment (field-independent basis, Debye):
    X=             -0.0147    Y=             -0.0074    Z=             -0.0063  Tot=              0.0176
 Quadrupole moment (field-independent basis, Debye-Ang):
   XX=            -83.6900   YY=            -86.4435   ZZ=            -84.5414
   XY=              0.1673   XZ=             -0.5939   YZ=             -0.0901

 Normal termination of Gaussian 16 at Thu May  6 00:45:51 2021.
