 Gaussian 16, Revision A.03,
 Gaussian 16:  EM64L-G16RevA.03 25-Dec-2016

 -------------
 #p 6-31g* mp2
 -------------

 ------------------------------------------------------
 Input file generated by CHIRIPA (05-May-2021 14:57:25)
 ------------------------------------------------------
 Symbolic Z-matrix:
 Charge =  0 Multiplicity = 1

                         Standard orientation:
 ---------------------------------------------------------------------
 Center     Atomic      Atomic             Coordinates (Angstroms)
 Number     Number       Type             X           Y           Z
 ---------------------------------------------------------------------
      1          6           0        1.591458    0.077536   -0.068790
      2          6           0        2.355206    0.290041   -1.221201
      3          6           0        3.750048    0.208162   -1.173670
      4          6           0        4.350920   -0.089520    0.048471
      5          6           0        3.617437   -0.306421    1.213910
      6          6           0        2.223896   -0.219492    1.142951
      7          1           0        0.508416    0.143103   -0.114813
      8          1           0        1.866750    0.520879   -2.163629
      9          1           0        4.365544    0.368107   -2.050596
     10          1           0        4.132851   -0.534831    2.138893
     11          1           0        1.633299   -0.385005    2.039526
     12          7           0        5.826888   -0.178875    0.111191
     13          8           0        6.332197   -0.442568    1.200120
     14          8           0        6.450495    0.016475   -0.929765
     15          6           0       -3.203291    2.428996    0.037802
     16          6           0       -4.472695    2.149754    0.554676
     17          6           0       -4.983886    0.849031    0.517932
     18          6           0       -4.195094   -0.152802   -0.045476
     19          6           0       -2.926709    0.093810   -0.568613
     20          6           0       -2.435702    1.401943   -0.521207
     21          1           0       -2.814026    3.442308    0.070488
     22          1           0       -5.071037    2.945393    0.989407
     23          1           0       -5.963399    0.604965    0.910875
     24          1           0       -2.353667   -0.720224   -0.995686
     25          1           0       -1.449530    1.615883   -0.923373
     26          7           0       -4.725584   -1.533742   -0.090018
     27          8           0       -4.010889   -2.398713   -0.591690
     28          8           0       -5.846033   -1.725004    0.377582
 ---------------------------------------------------------------------

 SCF Done:  E(RHF) =  -868.336800356     A.U. after   16 cycles
 E2 =    -0.2599942038D+01 EUMP2 =    -0.87093674239397D+03

 The electronic state is 1-A.
 Alpha  occ. eigenvalues --  -20.61504 -20.61494 -20.61073 -20.61067 -15.86564
 Alpha  occ. eigenvalues --  -15.86129 -11.32085 -11.31600 -11.28767 -11.28636
 Alpha  occ. eigenvalues --  -11.28430 -11.28184 -11.28148 -11.28022 -11.27826
 Alpha  occ. eigenvalues --  -11.27641 -11.27287 -11.27208  -1.60576  -1.60145
 Alpha  occ. eigenvalues --   -1.40125  -1.39696  -1.20284  -1.19789  -1.09634
 Alpha  occ. eigenvalues --   -1.09187  -1.05731  -1.05200  -0.96442  -0.96002
 Alpha  occ. eigenvalues --   -0.87103  -0.86607  -0.83299  -0.82818  -0.78321
 Alpha  occ. eigenvalues --   -0.77832  -0.72776  -0.72347  -0.71904  -0.71469
 Alpha  occ. eigenvalues --   -0.71370  -0.70964  -0.65936  -0.65743  -0.65449
 Alpha  occ. eigenvalues --   -0.65212  -0.63078  -0.62539  -0.56199  -0.55772
 Alpha  occ. eigenvalues --   -0.54008  -0.53810  -0.53523  -0.53300  -0.49548
 Alpha  occ. eigenvalues --   -0.49523  -0.49115  -0.49094  -0.45497  -0.45077
 Alpha  occ. eigenvalues --   -0.38240  -0.37807  -0.37337  -0.36793
 Alpha virt. eigenvalues --    0.04212   0.04684   0.10312   0.10842   0.15493
 Alpha virt. eigenvalues --    0.16117   0.18457   0.21909   0.24983   0.26635
 Alpha virt. eigenvalues --    0.27444   0.29108   0.30328   0.30997   0.32095

 Mulliken charges:
               1
     1  C   -0.175466
     2  C   -0.219441
     3  C   -0.170046
     4  C    0.159138
     5  C   -0.170175
     6  C   -0.218785
     7  H    0.221500
     8  H    0.220491
     9  H    0.276924
    10  H    0.277440
    11  H    0.226577
    12  N    0.487939
    13  O   -0.458901
    14  O   -0.459436
    15  C   -0.170287
    16  C   -0.218355
    17  C   -0.169216
    18  C    0.159103
    19  C   -0.173611
    20  C   -0.222401
    21  H    0.228959
    22  H    0.227134
    23  H    0.278801
    24  H    0.273663
    25  H    0.217578
    26  N    0.488048
    27  O   -0.459793
    28  O   -0.457381
 Sum of Mulliken charges =  -0.00000

 Dipole moment (field-independent basis, Debye):
    X=             -3.4739    Y=              5.2011    Z=              0.0607  Tot=              6.2549
 Quadrupole moment (field-independent basis, Debye-Ang):
   XX=           -160.9480   YY=           -106.7642   ZZ=            -99.7291
   XY=            -20.7897   XZ=             -4.5568   YZ=             -0.5479

 Normal termination of Gaussian 16 at Thu May  6 05:06:58 2021.
