 Gaussian 16, Revision A.03,
 Gaussian 16:  EM64L-G16RevA.03 25-Dec-2016

 -------------
 #p 6-31g* mp2
 -------------

 ------------------------------------------------------
 Input file generated by CHIRIPA (05-May-2021 14:51:08)
 ------------------------------------------------------
 Symbolic Z-matrix:
 Charge =  0 Multiplicity = 1

                         Standard orientation:
 ---------------------------------------------------------------------
 Center     Atomic      Atomic             Coordinates (Angstroms)
 Number     Number       Type             X           Y           Z
 ---------------------------------------------------------------------
      1          6           0       -3.105464    0.674090    0.361529
      2          6           0       -1.824954    0.630703    1.196034
      3          6           0       -1.151839    1.998173    1.317424
      4          1           0       -2.869840    1.058601   -0.640258
      5          1           0       -3.805787    1.389634    0.814233
      6          1           0       -1.127798   -0.085572    0.742670
      7          1           0       -2.063621    0.246070    2.195890
      8          1           0       -1.826645    2.719107    1.790173
      9          1           0       -0.885506    2.385580    0.328696
     10          1           0       -0.238437    1.944140    1.917954
     11          6           0       -3.789886   -0.685420    0.231042
     12          6           0       -5.070396   -0.642032   -0.603463
     13          6           0       -5.743511   -2.009502   -0.724852
     14          1           0       -3.089563   -1.400963   -0.221661
     15          1           0       -4.025510   -1.069930    1.232829
     16          1           0       -4.831729   -0.257399   -1.603319
     17          1           0       -5.767552    0.074243   -0.150098
     18          1           0       -6.009844   -2.396909    0.263876
     19          1           0       -5.068704   -2.730436   -1.197601
     20          1           0       -6.656913   -1.955469   -1.325382
     21          6           0        2.973907    0.378380   -0.765391
     22          6           0        2.654471    1.799694   -0.300835
     23          6           0        1.705500    2.532495   -1.249649
     24          1           0        3.416456    0.418595   -1.770119
     25          1           0        2.037297   -0.188561   -0.858853
     26          1           0        3.591522    2.363375   -0.206945
     27          1           0        2.212808    1.756104    0.702983
     28          1           0        0.755730    1.994800   -1.335797
     29          1           0        2.142278    2.605521   -2.250895
     30          1           0        1.490612    3.546573   -0.898468
     31          6           0        3.921443   -0.367051    0.172820
     32          6           0        4.240878   -1.788364   -0.291736
     33          6           0        5.189851   -2.521166    0.657078
     34          1           0        4.858053    0.199891    0.266282
     35          1           0        3.478893   -0.407265    1.177547
     36          1           0        4.682542   -1.744775   -1.295553
     37          1           0        3.303828   -2.352046   -0.385625
     38          1           0        4.753073   -2.594192    1.658324
     39          1           0        6.139620   -1.983471    0.743227
     40          1           0        5.404738   -3.535244    0.305896
 ---------------------------------------------------------------------

 SCF Done:  E(RHF) =  -470.732764860     A.U. after   11 cycles
 E2 =    -0.1583243918D+01 EUMP2 =    -0.47231600877787D+03

 The electronic state is 1-A.
 Alpha  occ. eigenvalues --  -11.21634 -11.21616 -11.21607 -11.21577 -11.21430
 Alpha  occ. eigenvalues --  -11.21409 -11.21370 -11.21350 -11.21083 -11.21074
 Alpha  occ. eigenvalues --  -11.21053 -11.21015  -1.08461  -1.08421  -1.03588
 Alpha  occ. eigenvalues --   -1.03485  -0.96060  -0.95914  -0.87069  -0.86940
 Alpha  occ. eigenvalues --   -0.79624  -0.79577  -0.78265  -0.78244  -0.65188
 Alpha  occ. eigenvalues --   -0.64979  -0.61220  -0.60688  -0.59396  -0.59307
 Alpha  occ. eigenvalues --   -0.57635  -0.57561  -0.55603  -0.54960  -0.52713
 Alpha  occ. eigenvalues --   -0.52655  -0.52422  -0.52390  -0.50165  -0.49665
 Alpha  occ. eigenvalues --   -0.47935  -0.47904  -0.46703  -0.46514  -0.45832
 Alpha  occ. eigenvalues --   -0.45771  -0.45724  -0.45677  -0.43799  -0.43772
 Alpha virt. eigenvalues --    0.20274   0.23182   0.23619   0.25410   0.25903
 Alpha virt. eigenvalues --    0.26224   0.26737   0.27677   0.28092   0.29108
 Alpha virt. eigenvalues --    0.30326   0.31083   0.31508   0.32022   0.32570

 Mulliken charges:
               1
     1  C   -0.298330
     2  C   -0.300572
     3  C   -0.481774
     4  H    0.149398
     5  H    0.149899
     6  H    0.150925
     7  H    0.152052
     8  H    0.154818
     9  H    0.162592
    10  H    0.160746
    11  C   -0.298260
    12  C   -0.299695
    13  C   -0.475724
    14  H    0.149322
    15  H    0.149718
    16  H    0.152050
    17  H    0.152011
    18  H    0.155183
    19  H    0.155182
    20  H    0.160344
    21  C   -0.298630
    22  C   -0.302119
    23  C   -0.476917
    24  H    0.149616
    25  H    0.149197
    26  H    0.151870
    27  H    0.155325
    28  H    0.156156
    29  H    0.154899
    30  H    0.160732
    31  C   -0.298297
    32  C   -0.299622
    33  C   -0.475718
    34  H    0.149607
    35  H    0.149597
    36  H    0.151931
    37  H    0.151794
    38  H    0.155237
    39  H    0.155201
    40  H    0.160254
 Sum of Mulliken charges =  -0.00000

 Dipole moment (field-independent basis, Debye):
    X=             -0.0021    Y=              0.0224    Z=             -0.0015  Tot=              0.0225
 Quadrupole moment (field-independent basis, Debye-Ang):
   XX=            -84.6517   YY=            -85.8716   ZZ=            -84.2092
   XY=              0.0776   XZ=             -1.3657   YZ=              0.1959

 Normal termination of Gaussian 16 at Thu May  6 05:17:47 2021.
