 Gaussian 16, Revision A.03,
 Gaussian 16:  EM64L-G16RevA.03 25-Dec-2016

 -------------
 #p 6-31g* mp2
 -------------

 ------------------------------------------------------
 Input file generated by CHIRIPA (05-May-2021 14:53:16)
 ------------------------------------------------------
 Symbolic Z-matrix:
 Charge =  0 Multiplicity = 1

                         Standard orientation:
 ---------------------------------------------------------------------
 Center     Atomic      Atomic             Coordinates (Angstroms)
 Number     Number       Type             X           Y           Z
 ---------------------------------------------------------------------
      1          6           0       -5.148691   -0.345016    0.243152
      2          6           0       -6.088290   -1.050111   -0.735612
      3          6           0       -7.123412   -1.928707   -0.032487
      4          1           0       -4.636087   -1.098461    0.856750
      5          1           0       -5.743368    0.268690    0.933890
      6          1           0       -5.491915   -1.661221   -1.425176
      7          1           0       -6.598574   -0.294909   -1.347083
      8          1           0       -7.743057   -1.329154    0.642181
      9          1           0       -6.630111   -2.703229    0.563643
     10          1           0       -7.784652   -2.423226   -0.750869
     11          6           0       -4.108222    0.537038   -0.444695
     12          6           0       -3.168623    1.242133    0.534070
     13          6           0       -2.133501    2.120730   -0.169056
     14          1           0       -3.513545   -0.076667   -1.135433
     15          1           0       -4.620826    1.290483   -1.058293
     16          1           0       -2.658339    0.486931    1.145540
     17          1           0       -3.764998    1.853243    1.223634
     18          1           0       -2.626802    2.895252   -0.765186
     19          1           0       -1.513855    1.521177   -0.843724
     20          1           0       -1.472261    2.615248    0.549326
     21          6           0        1.683956    1.451737    0.628499
     22          6           0        1.873754    0.272802    1.356930
     23          6           0        2.940829   -0.580629    1.061040
     24          6           0        3.802763   -0.222609    0.025578
     25          6           0        3.640134    0.945052   -0.718338
     26          6           0        2.566197    1.783514   -0.404988
     27          1           0        0.852360    2.108889    0.865135
     28          1           0        1.190171    0.012600    2.160083
     29          1           0        3.111121   -1.499444    1.608941
     30          1           0        4.338194    1.177670   -1.513335
     31          1           0        2.421246    2.698448   -0.972378
     32          7           0        4.936060   -1.118175   -0.296910
     33          8           0        5.681384   -0.780162   -1.213903
     34          8           0        5.057555   -2.141175    0.373424
 ---------------------------------------------------------------------

 SCF Done:  E(RHF) =  -669.535405260     A.U. after   15 cycles
 E2 =    -0.2090980189D+01 EUMP2 =    -0.67162638544899D+03

 The electronic state is 1-A.
 Alpha  occ. eigenvalues --  -20.60730 -20.60724 -15.85784 -11.31135 -11.27712
 Alpha  occ. eigenvalues --  -11.27707 -11.27395 -11.26712 -11.26699 -11.22512
 Alpha  occ. eigenvalues --  -11.22218 -11.22064 -11.22031 -11.21912 -11.21426
 Alpha  occ. eigenvalues --   -1.59806  -1.39360  -1.19308  -1.09084  -1.08699
 Alpha  occ. eigenvalues --   -1.04712  -1.04223  -0.96690  -0.95535  -0.87711
 Alpha  occ. eigenvalues --   -0.86106  -0.82374  -0.80296  -0.78853  -0.77425
 Alpha  occ. eigenvalues --   -0.72001  -0.71130  -0.70426  -0.65705  -0.64957
 Alpha  occ. eigenvalues --   -0.64717  -0.62062  -0.61607  -0.60133  -0.58288
 Alpha  occ. eigenvalues --   -0.55989  -0.55213  -0.53358  -0.53093  -0.53024
 Alpha  occ. eigenvalues --   -0.52801  -0.50598  -0.48761  -0.48757  -0.48604
 Alpha  occ. eigenvalues --   -0.47305  -0.46406  -0.46299  -0.44768  -0.44468
 Alpha  occ. eigenvalues --   -0.37267  -0.36324
 Alpha virt. eigenvalues --    0.05101   0.11325   0.16555   0.20127   0.22501
 Alpha virt. eigenvalues --    0.23874   0.25975   0.26126   0.26679   0.27492
 Alpha virt. eigenvalues --    0.28547   0.30090   0.30843   0.31386   0.32333

 Mulliken charges:
               1
     1  C   -0.298768
     2  C   -0.300256
     3  C   -0.476068
     4  H    0.149851
     5  H    0.150158
     6  H    0.153140
     7  H    0.152632
     8  H    0.155483
     9  H    0.155700
    10  H    0.161836
    11  C   -0.299403
    12  C   -0.298801
    13  C   -0.480960
    14  H    0.151705
    15  H    0.151323
    16  H    0.149433
    17  H    0.154227
    18  H    0.160250
    19  H    0.159746
    20  H    0.149804
    21  C   -0.172197
    22  C   -0.221495
    23  C   -0.170887
    24  C    0.158173
    25  C   -0.170831
    26  C   -0.221370
    27  H    0.233104
    28  H    0.223161
    29  H    0.275286
    30  H    0.275388
    31  H    0.223869
    32  N    0.488049
    33  O   -0.460594
    34  O   -0.460687
 Sum of Mulliken charges =  -0.00000

 Dipole moment (field-independent basis, Debye):
    X=             -4.2150    Y=              3.1332    Z=              1.0743  Tot=              5.3607
 Quadrupole moment (field-independent basis, Debye-Ang):
   XX=           -125.0049   YY=            -94.5344   ZZ=            -92.5975
   XY=             12.9995   XZ=              3.4199   YZ=             -2.6351

 Normal termination of Gaussian 16 at Thu May  6 18:52:22 2021.
