 Gaussian 16, Revision A.03,
 Gaussian 16:  EM64L-G16RevA.03 25-Dec-2016

 -------------
 #p 6-31g* mp2
 -------------

 ------------------------------------------------------
 Input file generated by CHIRIPA (05-May-2021 14:53:16)
 ------------------------------------------------------
 Symbolic Z-matrix:
 Charge =  0 Multiplicity = 1

                         Standard orientation:
 ---------------------------------------------------------------------
 Center     Atomic      Atomic             Coordinates (Angstroms)
 Number     Number       Type             X           Y           Z
 ---------------------------------------------------------------------
      1          6           0       -3.732701    0.100939   -0.066600
      2          6           0       -3.481179   -1.261214   -0.714104
      3          6           0       -4.772148   -2.034370   -0.985067
      4          1           0       -4.279947   -0.043242    0.875036
      5          1           0       -4.386490    0.694756   -0.720310
      6          1           0       -2.826936   -1.851767   -0.060017
      7          1           0       -2.934300   -1.113787   -1.654213
      8          1           0       -5.426456   -1.468510   -1.656100
      9          1           0       -5.318482   -2.210684   -0.052847
     10          1           0       -4.569104   -3.005061   -1.448091
     11          6           0       -2.451709    0.885812    0.210459
     12          6           0       -2.703231    2.247965    0.857962
     13          6           0       -1.412261    3.021121    1.128926
     14          1           0       -1.797920    0.291995    0.864169
     15          1           0       -1.904463    1.029993   -0.731177
     16          1           0       -3.250109    2.100538    1.798071
     17          1           0       -3.357474    2.838518    0.203876
     18          1           0       -0.865928    3.197435    0.196706
     19          1           0       -0.757953    2.455262    1.799959
     20          1           0       -1.615306    3.991812    1.591950
     21          6           0        1.478718   -2.491798    0.969050
     22          6           0        2.862625   -2.296598    0.912300
     23          6           0        3.392976   -1.133358    0.346484
     24          6           0        2.506377   -0.181816   -0.155312
     25          6           0        1.122847   -0.347279   -0.113415
     26          6           0        0.614769   -1.518232    0.456914
     27          1           0        1.075380   -3.398426    1.410342
     28          1           0        3.535968   -3.050976    1.309249
     29          1           0        4.460195   -0.956635    0.289628
     30          1           0        0.476795    0.422698   -0.517357
     31          1           0       -0.460426   -1.667143    0.499632
     32          7           0        3.056046    1.053737   -0.756704
     33          8           0        2.253702    1.876870   -1.191828
     34          8           0        4.278814    1.175634   -0.781566
 ---------------------------------------------------------------------

 SCF Done:  E(RHF) =  -669.534577908     A.U. after   15 cycles
 E2 =    -0.2094003017D+01 EUMP2 =    -0.67162858092522D+03

 The electronic state is 1-A.
 Alpha  occ. eigenvalues --  -20.60698 -20.60693 -15.85744 -11.31053 -11.27649
 Alpha  occ. eigenvalues --  -11.27549 -11.27378 -11.26659 -11.26560 -11.22531
 Alpha  occ. eigenvalues --  -11.22203 -11.22098 -11.21972 -11.21763 -11.21109
 Alpha  occ. eigenvalues --   -1.59768  -1.39324  -1.19233  -1.09151  -1.08641
 Alpha  occ. eigenvalues --   -1.04629  -1.04094  -0.96515  -0.95482  -0.87533
 Alpha  occ. eigenvalues --   -0.86034  -0.82339  -0.80191  -0.79098  -0.77295
 Alpha  occ. eigenvalues --   -0.71966  -0.71088  -0.70348  -0.65856  -0.64883
 Alpha  occ. eigenvalues --   -0.64589  -0.62005  -0.61475  -0.59917  -0.58136
 Alpha  occ. eigenvalues --   -0.55783  -0.55154  -0.53186  -0.53014  -0.52922
 Alpha  occ. eigenvalues --   -0.52703  -0.50458  -0.48728  -0.48719  -0.48460
 Alpha  occ. eigenvalues --   -0.47223  -0.46432  -0.46389  -0.44737  -0.44384
 Alpha  occ. eigenvalues --   -0.37227  -0.36210
 Alpha virt. eigenvalues --    0.05128   0.11384   0.16536   0.20048   0.22856
 Alpha virt. eigenvalues --    0.22980   0.24961   0.25315   0.27282   0.28458
 Alpha virt. eigenvalues --    0.29675   0.30628   0.31328   0.31508   0.32068

 Mulliken charges:
               1
     1  C   -0.297236
     2  C   -0.304929
     3  C   -0.475445
     4  H    0.151686
     5  H    0.154805
     6  H    0.143148
     7  H    0.155259
     8  H    0.159324
     9  H    0.156507
    10  H    0.161496
    11  C   -0.311053
    12  C   -0.298749
    13  C   -0.481816
    14  H    0.145601
    15  H    0.151693
    16  H    0.152276
    17  H    0.155097
    18  H    0.167447
    19  H    0.154409
    20  H    0.163193
    21  C   -0.172899
    22  C   -0.219058
    23  C   -0.170557
    24  C    0.158130
    25  C   -0.178104
    26  C   -0.229805
    27  H    0.225269
    28  H    0.222802
    29  H    0.275049
    30  H    0.285117
    31  H    0.235315
    32  N    0.488200
    33  O   -0.461460
    34  O   -0.460714
 Sum of Mulliken charges =  -0.00000

 Dipole moment (field-independent basis, Debye):
    X=             -2.1458    Y=             -4.1819    Z=              2.0632  Tot=              5.1332
 Quadrupole moment (field-independent basis, Debye-Ang):
   XX=           -100.2366   YY=            -93.0904   ZZ=            -95.2306
   XY=            -13.0942   XZ=              6.7341   YZ=             -0.5956

 Normal termination of Gaussian 16 at Wed May  5 23:36:18 2021.
