 Gaussian 16, Revision A.03,
 Gaussian 16:  EM64L-G16RevA.03 25-Dec-2016

 -------------
 #p 6-31g* mp2
 -------------

 ------------------------------------------------------
 Input file generated by CHIRIPA (05-May-2021 14:51:13)
 ------------------------------------------------------
 Symbolic Z-matrix:
 Charge =  0 Multiplicity = 1

                         Standard orientation:
 ---------------------------------------------------------------------
 Center     Atomic      Atomic             Coordinates (Angstroms)
 Number     Number       Type             X           Y           Z
 ---------------------------------------------------------------------
      1          6           0        3.893884    0.791964   -0.052145
      2          6           0        5.320155    1.296175    0.170355
      3          6           0        5.395907    2.817860    0.298924
      4          1           0        3.483908    1.258783   -0.958205
      5          1           0        3.261155    1.122227    0.783305
      6          1           0        5.950311    0.963885   -0.664572
      7          1           0        5.726852    0.827955    1.075884
      8          1           0        4.790759    3.163737    1.143179
      9          1           0        5.015488    3.300439   -0.607167
     10          1           0        6.424474    3.156654    0.457443
     11          6           0        3.801865   -0.727324   -0.182616
     12          6           0        2.375593   -1.231535   -0.405116
     13          6           0        2.299842   -2.753220   -0.533685
     14          1           0        4.434593   -1.057588   -1.018065
     15          1           0        4.211841   -1.194143    0.723444
     16          1           0        1.968897   -0.763315   -1.310645
     17          1           0        1.745437   -0.899245    0.429811
     18          1           0        2.680261   -3.235799    0.372406
     19          1           0        2.904990   -3.099097   -1.377940
     20          1           0        1.271275   -3.092015   -0.692204
     21          6           0       -4.490660    0.310024    0.347726
     22          6           0       -5.047593    1.303604   -0.672378
     23          6           0       -6.333661    1.980359   -0.197167
     24          1           0       -5.251683   -0.453420    0.559720
     25          1           0       -4.301800    0.834496    1.294645
     26          1           0       -5.234047    0.777705   -1.617514
     27          1           0       -4.285086    2.064662   -0.882112
     28          1           0       -6.158648    2.529825    0.733457
     29          1           0       -7.113001    1.235556   -0.006124
     30          1           0       -6.714434    2.686526   -0.941612
     31          6           0       -3.205088   -0.374664   -0.112965
     32          6           0       -2.648156   -1.368243    0.907139
     33          6           0       -1.362088   -2.044998    0.431928
     34          1           0       -3.393948   -0.899136   -1.059884
     35          1           0       -2.444065    0.388781   -0.324959
     36          1           0       -3.410662   -2.129301    1.116873
     37          1           0       -2.461701   -0.842345    1.852275
     38          1           0       -0.582748   -1.300196    0.240885
     39          1           0       -1.537100   -2.594465   -0.498696
     40          1           0       -0.981315   -2.751166    1.176374
 ---------------------------------------------------------------------

 SCF Done:  E(RHF) =  -470.732623553     A.U. after   11 cycles
 E2 =    -0.1583159479D+01 EUMP2 =    -0.47231578303211D+03

 The electronic state is 1-A.
 Alpha  occ. eigenvalues --  -11.21597 -11.21594 -11.21579 -11.21543 -11.21396
 Alpha  occ. eigenvalues --  -11.21384 -11.21337 -11.21320 -11.21070 -11.21068
 Alpha  occ. eigenvalues --  -11.21010 -11.20939  -1.08431  -1.08395  -1.03564
 Alpha  occ. eigenvalues --   -1.03452  -0.96043  -0.95869  -0.87037  -0.86911
 Alpha  occ. eigenvalues --   -0.79634  -0.79532  -0.78272  -0.78187  -0.65087
 Alpha  occ. eigenvalues --   -0.65006  -0.61027  -0.60807  -0.59403  -0.59271
 Alpha  occ. eigenvalues --   -0.57736  -0.57420  -0.55320  -0.55156  -0.52853
 Alpha  occ. eigenvalues --   -0.52540  -0.52449  -0.52163  -0.49986  -0.49839
 Alpha  occ. eigenvalues --   -0.47938  -0.47836  -0.46743  -0.46476  -0.45836
 Alpha  occ. eigenvalues --   -0.45736  -0.45714  -0.45550  -0.43836  -0.43671
 Alpha virt. eigenvalues --    0.22224   0.23009   0.23479   0.24799   0.26303
 Alpha virt. eigenvalues --    0.26634   0.26782   0.27482   0.27740   0.29199
 Alpha virt. eigenvalues --    0.30254   0.30989   0.31464   0.31841   0.32410

 Mulliken charges:
               1
     1  C   -0.298297
     2  C   -0.299589
     3  C   -0.475686
     4  H    0.149458
     5  H    0.149044
     6  H    0.151996
     7  H    0.151951
     8  H    0.155043
     9  H    0.155120
    10  H    0.160254
    11  C   -0.297571
    12  C   -0.302101
    13  C   -0.480171
    14  H    0.149444
    15  H    0.149554
    16  H    0.151366
    17  H    0.153448
    18  H    0.154228
    19  H    0.154292
    20  H    0.168275
    21  C   -0.298242
    22  C   -0.299635
    23  C   -0.475696
    24  H    0.149646
    25  H    0.149454
    26  H    0.151895
    27  H    0.151953
    28  H    0.155166
    29  H    0.155169
    30  H    0.160236
    31  C   -0.298452
    32  C   -0.300521
    33  C   -0.481970
    34  H    0.149430
    35  H    0.149811
    36  H    0.151680
    37  H    0.151502
    38  H    0.164206
    39  H    0.154006
    40  H    0.160300
 Sum of Mulliken charges =  -0.00000

 Dipole moment (field-independent basis, Debye):
    X=             -0.0062    Y=             -0.0083    Z=             -0.0037  Tot=              0.0110
 Quadrupole moment (field-independent basis, Debye-Ang):
   XX=            -85.5920   YY=            -85.7507   ZZ=            -83.6368
   XY=              0.7181   XZ=              0.3005   YZ=              0.0167

 Normal termination of Gaussian 16 at Wed May  5 21:36:29 2021.
