 Gaussian 16, Revision A.03,
 Gaussian 16:  EM64L-G16RevA.03 25-Dec-2016

 -------------
 #p 6-31g* mp2
 -------------

 ------------------------------------------------------
 Input file generated by CHIRIPA (05-May-2021 14:53:13)
 ------------------------------------------------------
 Symbolic Z-matrix:
 Charge =  0 Multiplicity = 1

                         Standard orientation:
 ---------------------------------------------------------------------
 Center     Atomic      Atomic             Coordinates (Angstroms)
 Number     Number       Type             X           Y           Z
 ---------------------------------------------------------------------
      1          6           0       -4.566312   -0.456964   -0.403288
      2          6           0       -4.624444   -1.706665    0.475832
      3          6           0       -5.599917   -2.757768   -0.054665
      4          1           0       -5.572191   -0.021472   -0.477451
      5          1           0       -4.275472   -0.747254   -1.422376
      6          1           0       -4.913743   -1.413930    1.493294
      7          1           0       -3.618274   -2.139125    0.548067
      8          1           0       -5.311175   -3.078264   -1.060901
      9          1           0       -6.614004   -2.348949   -0.110303
     10          1           0       -5.625694   -3.642650    0.588904
     11          6           0       -3.595475    0.603026    0.114036
     12          6           0       -3.537344    1.852727   -0.765084
     13          6           0       -2.561870    2.903830   -0.234587
     14          1           0       -3.886316    0.893315    1.133124
     15          1           0       -2.589597    0.167533    0.188199
     16          1           0       -4.543513    2.285186   -0.837319
     17          1           0       -3.248045    1.559992   -1.782546
     18          1           0       -1.547783    2.495011   -0.178949
     19          1           0       -2.850612    3.224326    0.771649
     20          1           0       -2.536094    3.788711   -0.878156
     21          6           0        5.255086   -1.040426   -0.948557
     22          6           0        4.231757   -0.527493   -1.752436
     23          6           0        3.082068    0.019758   -1.175132
     24          6           0        2.988379    0.038014    0.215615
     25          6           0        3.990771   -0.465218    1.043420
     26          6           0        5.131544   -1.007709    0.444348
     27          1           0        6.144729   -1.463695   -1.405476
     28          1           0        4.324982   -0.551574   -2.834459
     29          1           0        2.274685    0.423752   -1.773748
     30          1           0        3.869188   -0.427235    2.119149
     31          1           0        5.924686   -1.405337    1.071137
     32          7           0        1.775974    0.614845    0.838303
     33          8           0        1.717624    0.619127    2.065989
     34          8           0        0.906999    1.051759    0.086889
 ---------------------------------------------------------------------

 SCF Done:  E(RHF) =  -669.536406128     A.U. after   15 cycles
 E2 =    -0.2090947261D+01 EUMP2 =    -0.67162735338992D+03

 The electronic state is 1-A.
 Alpha  occ. eigenvalues --  -20.61025 -20.61018 -15.86056 -11.31345 -11.27904
 Alpha  occ. eigenvalues --  -11.27899 -11.27635 -11.26904 -11.26894 -11.20876
 Alpha  occ. eigenvalues --  -11.20519 -11.20513 -11.20405 -11.20170 -11.19449
 Alpha  occ. eigenvalues --   -1.60079  -1.39637  -1.19509  -1.08919  -1.07430
 Alpha  occ. eigenvalues --   -1.04901  -1.02509  -0.95766  -0.94942  -0.86303
 Alpha  occ. eigenvalues --   -0.85955  -0.82602  -0.78611  -0.77658  -0.77192
 Alpha  occ. eigenvalues --   -0.72281  -0.71390  -0.70618  -0.65167  -0.64904
 Alpha  occ. eigenvalues --   -0.64064  -0.62248  -0.59903  -0.58369  -0.56548
 Alpha  occ. eigenvalues --   -0.55406  -0.54215  -0.53234  -0.52992  -0.51670
 Alpha  occ. eigenvalues --   -0.51350  -0.49144  -0.49025  -0.48753  -0.46890
 Alpha  occ. eigenvalues --   -0.45640  -0.45060  -0.44742  -0.44603  -0.42772
 Alpha  occ. eigenvalues --   -0.37487  -0.36501
 Alpha virt. eigenvalues --    0.04869   0.11155   0.16372   0.21282   0.23799
 Alpha virt. eigenvalues --    0.25364   0.27214   0.27599   0.28130   0.28519
 Alpha virt. eigenvalues --    0.29111   0.30858   0.32245   0.32521   0.32656

 Mulliken charges:
               1
     1  C   -0.297495
     2  C   -0.298818
     3  C   -0.475033
     4  H    0.146731
     5  H    0.146271
     6  H    0.151908
     7  H    0.152084
     8  H    0.153155
     9  H    0.154009
    10  H    0.158060
    11  C   -0.300279
    12  C   -0.297163
    13  C   -0.488255
    14  H    0.148467
    15  H    0.160749
    16  H    0.145688
    17  H    0.146866
    18  H    0.185813
    19  H    0.151514
    20  H    0.151135
    21  C   -0.170485
    22  C   -0.218538
    23  C   -0.170795
    24  C    0.157316
    25  C   -0.170302
    26  C   -0.218617
    27  H    0.226191
    28  H    0.224007
    29  H    0.275699
    30  H    0.276044
    31  H    0.224011
    32  N    0.493379
    33  O   -0.457902
    34  O   -0.465417
 Sum of Mulliken charges =  -0.00000

 Dipole moment (field-independent basis, Debye):
    X=              4.6812    Y=             -2.0598    Z=             -2.1003  Tot=              5.5288
 Quadrupole moment (field-independent basis, Debye-Ang):
   XX=            -70.2256   YY=            -96.7326   ZZ=            -91.5036
   XY=             -7.2919   XZ=             -4.7187   YZ=             -1.3754

 Normal termination of Gaussian 16 at Thu May  6 00:58:57 2021.
