 Gaussian 16, Revision A.03,
 Gaussian 16:  EM64L-G16RevA.03 25-Dec-2016

 -------------
 #p 6-31g* mp2
 -------------

 ------------------------------------------------------
 Input file generated by CHIRIPA (05-May-2021 14:57:22)
 ------------------------------------------------------
 Symbolic Z-matrix:
 Charge =  0 Multiplicity = 1

                         Standard orientation:
 ---------------------------------------------------------------------
 Center     Atomic      Atomic             Coordinates (Angstroms)
 Number     Number       Type             X           Y           Z
 ---------------------------------------------------------------------
      1          6           0        2.537425    1.890450   -0.373135
      2          6           0        2.200764    0.588103   -0.756634
      3          6           0        3.115156   -0.457514   -0.598139
      4          6           0        4.362903   -0.163742   -0.050309
      5          6           0        4.727928    1.123347    0.341416
      6          6           0        3.797711    2.153452    0.173702
      7          1           0        1.820957    2.696685   -0.499839
      8          1           0        1.222741    0.380917   -1.181593
      9          1           0        2.880644   -1.474987   -0.886529
     10          1           0        5.710577    1.298951    0.762110
     11          1           0        4.061904    3.163903    0.472424
     12          7           0        5.339305   -1.262479    0.122362
     13          8           0        6.432065   -0.977553    0.607471
     14          8           0        4.993362   -2.387789   -0.230677
     15          6           0       -1.808809    0.769998    0.215696
     16          6           0       -2.421995    0.607429   -1.030938
     17          6           0       -3.747512    0.171729   -1.118784
     18          6           0       -4.433343   -0.093460    0.065530
     19          6           0       -3.850064    0.058881    1.322459
     20          6           0       -2.523540    0.495688    1.386351
     21          1           0       -0.778724    1.108889    0.274633
     22          1           0       -1.869355    0.819712   -1.941745
     23          1           0       -4.246621    0.037378   -2.070760
     24          1           0       -4.426569   -0.160638    2.212891
     25          1           0       -2.049889    0.621050    2.355879
     26          7           0       -5.837141   -0.555303   -0.014790
     27          8           0       -6.419741   -0.782260    1.043371
     28          8           0       -6.328258   -0.681592   -1.134384
 ---------------------------------------------------------------------

 SCF Done:  E(RHF) =  -868.336516905     A.U. after   16 cycles
 E2 =    -0.2600224021D+01 EUMP2 =    -0.87093674092571D+03

 The electronic state is 1-A.
 Alpha  occ. eigenvalues --  -20.61419 -20.61413 -20.61234 -20.61227 -15.86480
 Alpha  occ. eigenvalues --  -15.86292 -11.32036 -11.31804 -11.28658 -11.28604
 Alpha  occ. eigenvalues --  -11.28497 -11.28409 -11.28359 -11.28243 -11.27801
 Alpha  occ. eigenvalues --  -11.27657 -11.27536 -11.27423  -1.60491  -1.60305
 Alpha  occ. eigenvalues --   -1.40038  -1.39854  -1.20247  -1.20003  -1.09629
 Alpha  occ. eigenvalues --   -1.09393  -1.05676  -1.05424  -0.96419  -0.96198
 Alpha  occ. eigenvalues --   -0.87089  -0.86830  -0.83239  -0.83020  -0.78244
 Alpha  occ. eigenvalues --   -0.78021  -0.72696  -0.72508  -0.71817  -0.71629
 Alpha  occ. eigenvalues --   -0.71423  -0.71143  -0.65910  -0.65781  -0.65641
 Alpha  occ. eigenvalues --   -0.65398  -0.63015  -0.62757  -0.56221  -0.56016
 Alpha  occ. eigenvalues --   -0.53980  -0.53817  -0.53692  -0.53525  -0.49470
 Alpha  occ. eigenvalues --   -0.49436  -0.49280  -0.49252  -0.45400  -0.45226
 Alpha  occ. eigenvalues --   -0.38272  -0.38025  -0.37265  -0.37017
 Alpha virt. eigenvalues --    0.04288   0.04504   0.10207   0.10582   0.15686
 Alpha virt. eigenvalues --    0.15966   0.18137   0.21977   0.24965   0.25953
 Alpha virt. eigenvalues --    0.27378   0.28992   0.29873   0.30943   0.31905

 Mulliken charges:
               1
     1  C   -0.174467
     2  C   -0.222756
     3  C   -0.170030
     4  C    0.159100
     5  C   -0.169523
     6  C   -0.217980
     7  H    0.223425
     8  H    0.218446
     9  H    0.278927
    10  H    0.278672
    11  H    0.226390
    12  N    0.487936
    13  O   -0.458006
    14  O   -0.458115
    15  C   -0.175080
    16  C   -0.220924
    17  C   -0.169522
    18  C    0.159189
    19  C   -0.169764
    20  C   -0.218646
    21  H    0.221185
    22  H    0.218921
    23  H    0.277522
    24  H    0.278102
    25  H    0.226344
    26  N    0.487950
    27  O   -0.458331
    28  O   -0.458965
 Sum of Mulliken charges =  -0.00000

 Dipole moment (field-independent basis, Debye):
    X=              1.5957    Y=              5.4003    Z=             -0.2175  Tot=              5.6353
 Quadrupole moment (field-independent basis, Debye-Ang):
   XX=           -175.2472   YY=           -105.4269   ZZ=            -99.6015
   XY=             12.4124   XZ=             -2.2664   YZ=              1.2646

 Normal termination of Gaussian 16 at Fri May  7 04:51:48 2021.
