 Gaussian 16, Revision A.03,
 Gaussian 16:  EM64L-G16RevA.03 25-Dec-2016

 -------------
 #p 6-31g* mp2
 -------------

 ------------------------------------------------------
 Input file generated by CHIRIPA (05-May-2021 14:57:26)
 ------------------------------------------------------
 Symbolic Z-matrix:
 Charge =  0 Multiplicity = 1

                         Standard orientation:
 ---------------------------------------------------------------------
 Center     Atomic      Atomic             Coordinates (Angstroms)
 Number     Number       Type             X           Y           Z
 ---------------------------------------------------------------------
      1          6           0        2.900216   -2.323910    0.630219
      2          6           0        3.695940   -2.023029   -0.480104
      3          6           0        3.973854   -0.694534   -0.815385
      4          6           0        3.437339    0.312702   -0.014812
      5          6           0        2.641095    0.044988    1.097669
      6          6           0        2.376257   -1.290763    1.414179
      7          1           0        2.689405   -3.358735    0.883382
      8          1           0        4.104192   -2.823340   -1.090741
      9          1           0        4.586836   -0.433312   -1.669454
     10          1           0        2.248242    0.864329    1.687385
     11          1           0        1.757970   -1.521465    2.277048
     12          7           0        3.724633    1.722961   -0.359823
     13          8           0        3.240047    2.592142    0.361521
     14          8           0        4.428960    1.932437   -1.345054
     15          6           0       -1.083579   -1.095780    0.081011
     16          6           0       -1.372197    0.074002    0.791525
     17          6           0       -2.646664    0.645479    0.730718
     18          6           0       -3.612965    0.017901   -0.053947
     19          6           0       -3.356167   -1.148204   -0.773352
     20          6           0       -2.074738   -1.702081   -0.697786
     21          1           0       -0.090840   -1.532881    0.133979
     22          1           0       -0.604413    0.547037    1.397157
     23          1           0       -2.897241    1.550536    1.270624
     24          1           0       -4.142206   -1.596841   -1.368568
     25          1           0       -1.853439   -2.610607   -1.250645
     26          7           0       -4.965870    0.613582   -0.126133
     27          8           0       -5.799728    0.041345   -0.824605
     28          8           0       -5.166803    1.641433    0.517127
 ---------------------------------------------------------------------

 SCF Done:  E(RHF) =  -868.336553086     A.U. after   16 cycles
 E2 =    -0.2602146447D+01 EUMP2 =    -0.87093869953264D+03

 The electronic state is 1-A.
 Alpha  occ. eigenvalues --  -20.61685 -20.61674 -20.60830 -20.60823 -15.86746
 Alpha  occ. eigenvalues --  -15.85887 -11.32392 -11.31294 -11.29047 -11.28922
 Alpha  occ. eigenvalues --  -11.28764 -11.28094 -11.27989 -11.27893 -11.27889
 Alpha  occ. eigenvalues --  -11.27529 -11.26929 -11.26898  -1.60750  -1.59905
 Alpha  occ. eigenvalues --   -1.40297  -1.39457  -1.20605  -1.19481  -1.09941
 Alpha  occ. eigenvalues --   -1.08865  -1.06046  -1.04902  -0.96718  -0.95689
 Alpha  occ. eigenvalues --   -0.87411  -0.86306  -0.83542  -0.82529  -0.78548
 Alpha  occ. eigenvalues --   -0.77572  -0.72956  -0.72105  -0.72077  -0.71669
 Alpha  occ. eigenvalues --   -0.71229  -0.70607  -0.66239  -0.66008  -0.65135
 Alpha  occ. eigenvalues --   -0.64963  -0.63348  -0.62249  -0.56492  -0.55663
 Alpha  occ. eigenvalues --   -0.54139  -0.54040  -0.53217  -0.52998  -0.49735
 Alpha  occ. eigenvalues --   -0.49697  -0.48869  -0.48854  -0.45641  -0.44852
 Alpha  occ. eigenvalues --   -0.38586  -0.37649  -0.37443  -0.36513
 Alpha virt. eigenvalues --    0.03944   0.04977   0.09869   0.11152   0.15315
 Alpha virt. eigenvalues --    0.16446   0.19216   0.21892   0.24756   0.26627
 Alpha virt. eigenvalues --    0.28278   0.29200   0.29712   0.30449   0.32153

 Mulliken charges:
               1
     1  C   -0.175761
     2  C   -0.217426
     3  C   -0.169033
     4  C    0.161497
     5  C   -0.172729
     6  C   -0.232670
     7  H    0.229638
     8  H    0.228228
     9  H    0.280302
    10  H    0.275787
    11  H    0.227760
    12  N    0.488161
    13  O   -0.458448
    14  O   -0.455912
    15  C   -0.176750
    16  C   -0.222443
    17  C   -0.169543
    18  C    0.158060
    19  C   -0.169979
    20  C   -0.220547
    21  H    0.232104
    22  H    0.217251
    23  H    0.277308
    24  H    0.275618
    25  H    0.221351
    26  N    0.488075
    27  O   -0.460495
    28  O   -0.459404
 Sum of Mulliken charges =  -0.00000

 Dipole moment (field-independent basis, Debye):
    X=              4.1095    Y=             -6.9957    Z=              1.3462  Tot=              8.2243
 Quadrupole moment (field-independent basis, Debye-Ang):
   XX=           -144.0614   YY=           -105.5468   ZZ=           -100.6996
   XY=             -9.7559   XZ=              1.2919   YZ=              4.5805

 Normal termination of Gaussian 16 at Wed May  5 19:35:51 2021.
