 Gaussian 16, Revision A.03,
 Gaussian 16:  EM64L-G16RevA.03 25-Dec-2016

 -------------
 #p 6-31g* mp2
 -------------

 ------------------------------------------------------
 Input file generated by CHIRIPA (05-May-2021 14:53:16)
 ------------------------------------------------------
 Symbolic Z-matrix:
 Charge =  0 Multiplicity = 1

                         Standard orientation:
 ---------------------------------------------------------------------
 Center     Atomic      Atomic             Coordinates (Angstroms)
 Number     Number       Type             X           Y           Z
 ---------------------------------------------------------------------
      1          6           0        3.784997    0.438618    0.072176
      2          6           0        4.746424    0.131017   -1.076312
      3          6           0        5.454631    1.378836   -1.604693
      4          1           0        3.038474    1.169019   -0.268653
      5          1           0        4.341915    0.918714    0.888720
      6          1           0        4.188120   -0.349611   -1.889890
      7          1           0        5.490629   -0.598881   -0.732766
      8          1           0        6.036077    1.857376   -0.810010
      9          1           0        4.726168    2.108062   -1.973709
     10          1           0        6.137060    1.136017   -2.425174
     11          6           0        3.069405   -0.798802    0.611109
     12          6           0        2.107978   -0.491202    1.759597
     13          6           0        1.399771   -1.739020    2.287978
     14          1           0        2.512487   -1.278899   -0.205435
     15          1           0        3.815927   -1.529203    0.951938
     16          1           0        1.363773    0.238696    1.416051
     17          1           0        2.666282   -0.010573    2.573175
     18          1           0        2.128234   -2.468246    2.656994
     19          1           0        0.818325   -2.217560    1.493295
     20          1           0        0.717342   -1.496201    3.108459
     21          6           0       -2.449578   -2.201682   -1.176433
     22          6           0       -1.309438   -1.479234   -0.809462
     23          6           0       -1.423802   -0.180637   -0.304372
     24          6           0       -2.699535    0.367150   -0.178978
     25          6           0       -3.854401   -0.327239   -0.535911
     26          6           0       -3.716189   -1.624396   -1.038730
     27          1           0       -2.351475   -3.209904   -1.567917
     28          1           0       -0.324497   -1.925029   -0.915313
     29          1           0       -0.557833    0.401076   -0.012607
     30          1           0       -4.822810    0.143833   -0.418889
     31          1           0       -4.603386   -2.183110   -1.322921
     32          7           0       -2.833231    1.741154    0.354535
     33          8           0       -3.968491    2.201229    0.455294
     34          8           0       -1.800230    2.332008    0.661843
 ---------------------------------------------------------------------

 SCF Done:  E(RHF) =  -669.535167667     A.U. after   15 cycles
 E2 =    -0.2092582817D+01 EUMP2 =    -0.67162775048413D+03

 The electronic state is 1-A.
 Alpha  occ. eigenvalues --  -20.60784 -20.60779 -15.85837 -11.31197 -11.27776
 Alpha  occ. eigenvalues --  -11.27763 -11.27520 -11.26790 -11.26780 -11.22102
 Alpha  occ. eigenvalues --  -11.21973 -11.21915 -11.21727 -11.21568 -11.21255
 Alpha  occ. eigenvalues --   -1.59858  -1.39413  -1.19378  -1.08883  -1.08772
 Alpha  occ. eigenvalues --   -1.04789  -1.03927  -0.96374  -0.95607  -0.87388
 Alpha  occ. eigenvalues --   -0.86184  -0.82442  -0.79992  -0.78680  -0.77495
 Alpha  occ. eigenvalues --   -0.72057  -0.71181  -0.70501  -0.65570  -0.65022
 Alpha  occ. eigenvalues --   -0.64801  -0.62259  -0.61195  -0.59733  -0.57973
 Alpha  occ. eigenvalues --   -0.55697  -0.55273  -0.53111  -0.53040  -0.52908
 Alpha  occ. eigenvalues --   -0.52774  -0.50316  -0.48817  -0.48812  -0.48290
 Alpha  occ. eigenvalues --   -0.47031  -0.46209  -0.46144  -0.44818  -0.44188
 Alpha  occ. eigenvalues --   -0.37356  -0.36364
 Alpha virt. eigenvalues --    0.05025   0.11208   0.16413   0.18513   0.23012
 Alpha virt. eigenvalues --    0.23875   0.24840   0.25486   0.27622   0.28417
 Alpha virt. eigenvalues --    0.29684   0.29986   0.31415   0.31562   0.32158

 Mulliken charges:
               1
     1  C   -0.299076
     2  C   -0.299612
     3  C   -0.476195
     4  H    0.151650
     5  H    0.153383
     6  H    0.149423
     7  H    0.152240
     8  H    0.156744
     9  H    0.157270
    10  H    0.160656
    11  C   -0.299141
    12  C   -0.307274
    13  C   -0.477090
    14  H    0.139111
    15  H    0.152539
    16  H    0.154613
    17  H    0.158962
    18  H    0.156765
    19  H    0.147722
    20  H    0.166369
    21  C   -0.171254
    22  C   -0.222945
    23  C   -0.175587
    24  C    0.158376
    25  C   -0.170191
    26  C   -0.218686
    27  H    0.225998
    28  H    0.226092
    29  H    0.283572
    30  H    0.275726
    31  H    0.223570
    32  N    0.487465
    33  O   -0.460224
    34  O   -0.460969
 Sum of Mulliken charges =  -0.00000

 Dipole moment (field-independent basis, Debye):
    X=              0.5633    Y=             -4.7648    Z=             -1.7890  Tot=              5.1206
 Quadrupole moment (field-independent basis, Debye-Ang):
   XX=            -91.4444   YY=            -99.6629   ZZ=            -94.3546
   XY=             13.4404   XZ=              6.6660   YZ=              0.5466

 Normal termination of Gaussian 16 at Thu May  6 18:53:35 2021.
