 Gaussian 16, Revision A.03,
 Gaussian 16:  EM64L-G16RevA.03 25-Dec-2016

 -------------
 #p 6-31g* mp2
 -------------

 ------------------------------------------------------
 Input file generated by CHIRIPA (05-May-2021 14:53:17)
 ------------------------------------------------------
 Symbolic Z-matrix:
 Charge =  0 Multiplicity = 1

                         Standard orientation:
 ---------------------------------------------------------------------
 Center     Atomic      Atomic             Coordinates (Angstroms)
 Number     Number       Type             X           Y           Z
 ---------------------------------------------------------------------
      1          6           0        2.536424    0.661083    0.505838
      2          6           0        2.689107    2.036581    1.155976
      3          6           0        1.407017    2.513022    1.839381
      4          1           0        1.719920    0.698138   -0.228256
      5          1           0        2.235515   -0.067308    1.271537
      6          1           0        2.990983    2.761885    0.389543
      7          1           0        3.505469    1.996298    1.888469
      8          1           0        1.105112    1.811597    2.623892
      9          1           0        0.587703    2.581534    1.116449
     10          1           0        1.538548    3.498275    2.297460
     11          6           0        3.809741    0.171152   -0.181447
     12          6           0        3.657058   -1.204345   -0.831585
     13          6           0        4.939148   -1.680787   -1.514991
     14          1           0        4.110650    0.899543   -0.947146
     15          1           0        4.626245    0.134098    0.552646
     16          1           0        2.840696   -1.164063   -1.564078
     17          1           0        3.355182   -1.929650   -0.065152
     18          1           0        5.758463   -1.749298   -0.792058
     19          1           0        5.241053   -0.979361   -2.299501
     20          1           0        4.807617   -2.666040   -1.973069
     21          6           0       -1.725469   -2.072805    1.529683
     22          6           0       -3.079087   -1.732344    1.438416
     23          6           0       -3.507931   -0.765393    0.524280
     24          6           0       -2.551817   -0.156130   -0.286849
     25          6           0       -1.196116   -0.473686   -0.219583
     26          6           0       -0.789954   -1.443499    0.701852
     27          1           0       -1.401143   -2.825068    2.242642
     28          1           0       -3.807843   -2.219433    2.080058
     29          1           0       -4.549628   -0.482714    0.432743
     30          1           0       -0.493082    0.029146   -0.872516
     31          1           0        0.261935   -1.705902    0.770542
     32          7           0       -2.993809    0.869053   -1.258469
     33          8           0       -2.131692    1.391228   -1.961835
     34          8           0       -4.193990    1.131005   -1.298258
 ---------------------------------------------------------------------

 SCF Done:  E(RHF) =  -669.535224546     A.U. after   15 cycles
 E2 =    -0.2092852798D+01 EUMP2 =    -0.67162807734476D+03

 The electronic state is 1-A.
 Alpha  occ. eigenvalues --  -20.60740 -20.60733 -15.85789 -11.31114 -11.27681
 Alpha  occ. eigenvalues --  -11.27652 -11.27411 -11.26700 -11.26632 -11.22324
 Alpha  occ. eigenvalues --  -11.22165 -11.22009 -11.21971 -11.21582 -11.21304
 Alpha  occ. eigenvalues --   -1.59813  -1.39369  -1.19281  -1.09054  -1.08685
 Alpha  occ. eigenvalues --   -1.04676  -1.04034  -0.96474  -0.95529  -0.87488
 Alpha  occ. eigenvalues --   -0.86081  -0.82368  -0.80118  -0.78960  -0.77375
 Alpha  occ. eigenvalues --   -0.72009  -0.71135  -0.70408  -0.65716  -0.64932
 Alpha  occ. eigenvalues --   -0.64651  -0.62055  -0.61412  -0.59849  -0.58093
 Alpha  occ. eigenvalues --   -0.55754  -0.55193  -0.53139  -0.53018  -0.52888
 Alpha  occ. eigenvalues --   -0.52780  -0.50403  -0.48768  -0.48764  -0.48421
 Alpha  occ. eigenvalues --   -0.47147  -0.46397  -0.46337  -0.44781  -0.44328
 Alpha  occ. eigenvalues --   -0.37266  -0.36251
 Alpha virt. eigenvalues --    0.05096   0.11308   0.16562   0.19621   0.22905
 Alpha virt. eigenvalues --    0.23484   0.24373   0.24864   0.27474   0.28539
 Alpha virt. eigenvalues --    0.30289   0.30731   0.31220   0.31520   0.32055

 Mulliken charges:
               1
     1  C   -0.305086
     2  C   -0.299513
     3  C   -0.477878
     4  H    0.148672
     5  H    0.143951
     6  H    0.156658
     7  H    0.152708
     8  H    0.153010
     9  H    0.160671
    10  H    0.163046
    11  C   -0.297638
    12  C   -0.301969
    13  C   -0.475808
    14  H    0.154709
    15  H    0.151779
    16  H    0.151316
    17  H    0.145829
    18  H    0.156455
    19  H    0.158808
    20  H    0.161567
    21  C   -0.171803
    22  C   -0.218352
    23  C   -0.171029
    24  C    0.159764
    25  C   -0.176389
    26  C   -0.221129
    27  H    0.225152
    28  H    0.223036
    29  H    0.275230
    30  H    0.278941
    31  H    0.228965
    32  N    0.488143
    33  O   -0.461466
    34  O   -0.460350
 Sum of Mulliken charges =  -0.00000

 Dipole moment (field-independent basis, Debye):
    X=              1.7249    Y=             -3.4947    Z=              3.4043  Tot=              5.1748
 Quadrupole moment (field-independent basis, Debye-Ang):
   XX=            -98.2685   YY=            -94.0573   ZZ=            -96.4574
   XY=             10.1891   XZ=            -10.4558   YZ=             -0.3246

 Normal termination of Gaussian 16 at Thu May  6 15:38:18 2021.
