 Gaussian 16, Revision A.03,
 Gaussian 16:  EM64L-G16RevA.03 25-Dec-2016

 -------------
 #p 6-31g* mp2
 -------------

 ------------------------------------------------------
 Input file generated by CHIRIPA (05-May-2021 14:53:13)
 ------------------------------------------------------
 Symbolic Z-matrix:
 Charge =  0 Multiplicity = 1

                         Standard orientation:
 ---------------------------------------------------------------------
 Center     Atomic      Atomic             Coordinates (Angstroms)
 Number     Number       Type             X           Y           Z
 ---------------------------------------------------------------------
      1          6           0        4.038666    0.236156   -0.299766
      2          6           0        4.712211    1.387498    0.447719
      3          6           0        5.522871    2.297674   -0.475430
      4          1           0        4.806127   -0.354809   -0.818139
      5          1           0        3.382307    0.648151   -1.078770
      6          1           0        5.366044    0.973481    1.225991
      7          1           0        3.943076    1.975678    0.964529
      8          1           0        4.879648    2.738025   -1.244167
      9          1           0        6.310701    1.730134   -0.981219
     10          1           0        5.995736    3.113876    0.079613
     11          6           0        3.224547   -0.682525    0.609609
     12          6           0        2.551003   -1.833867   -0.137876
     13          6           0        1.740342   -2.744043    0.785273
     14          1           0        3.880907   -1.094520    1.388613
     15          1           0        2.457087   -0.091560    1.127982
     16          1           0        3.320137   -2.422047   -0.654686
     17          1           0        1.897169   -1.419850   -0.916148
     18          1           0        0.952512   -2.176502    1.291062
     19          1           0        2.383565   -3.184394    1.554010
     20          1           0        1.267477   -3.560245    0.230230
     21          6           0       -3.823636    2.448559    0.348950
     22          6           0       -4.608870    1.300607    0.497728
     23          6           0       -4.072790    0.035387    0.240084
     24          6           0       -2.741827   -0.045498   -0.166469
     25          6           0       -1.933979    1.079634   -0.323787
     26          6           0       -2.491046    2.334609   -0.060610
     27          1           0       -4.248227    3.427434    0.551244
     28          1           0       -5.644080    1.386083    0.815660
     29          1           0       -4.658193   -0.869731    0.347244
     30          1           0       -0.905218    0.962612   -0.642181
     31          1           0       -1.878864    3.224403   -0.176994
     32          7           0       -2.163194   -1.379508   -0.442153
     33          8           0       -0.987923   -1.423906   -0.799090
     34          8           0       -2.895889   -2.355447   -0.296078
 ---------------------------------------------------------------------

 SCF Done:  E(RHF) =  -669.535737794     A.U. after   15 cycles
 E2 =    -0.2091894423D+01 EUMP2 =    -0.67162763221779D+03

 The electronic state is 1-A.
 Alpha  occ. eigenvalues --  -20.60972 -20.60961 -15.85996 -11.31321 -11.27889
 Alpha  occ. eigenvalues --  -11.27877 -11.27617 -11.26890 -11.26880 -11.21355
 Alpha  occ. eigenvalues --  -11.20943 -11.20922 -11.20670 -11.20354 -11.19591
 Alpha  occ. eigenvalues --   -1.60027  -1.39585  -1.19488  -1.08892  -1.07805
 Alpha  occ. eigenvalues --   -1.04885  -1.02767  -0.95743  -0.95223  -0.86291
 Alpha  occ. eigenvalues --   -0.86254  -0.82572  -0.78916  -0.77646  -0.77516
 Alpha  occ. eigenvalues --   -0.72240  -0.71344  -0.70597  -0.65154  -0.64887
 Alpha  occ. eigenvalues --   -0.64438  -0.62234  -0.60141  -0.58687  -0.56802
 Alpha  occ. eigenvalues --   -0.55387  -0.54533  -0.53214  -0.52976  -0.51898
 Alpha  occ. eigenvalues --   -0.51668  -0.49289  -0.48980  -0.48904  -0.47202
 Alpha  occ. eigenvalues --   -0.45996  -0.45147  -0.44981  -0.44837  -0.43042
 Alpha  occ. eigenvalues --   -0.37465  -0.36486
 Alpha virt. eigenvalues --    0.04890   0.11166   0.16372   0.20991   0.23148
 Alpha virt. eigenvalues --    0.24843   0.26641   0.27437   0.27957   0.28678
 Alpha virt. eigenvalues --    0.28814   0.30866   0.31805   0.32229   0.32981

 Mulliken charges:
               1
     1  C   -0.297047
     2  C   -0.298488
     3  C   -0.475006
     4  H    0.150086
     5  H    0.145795
     6  H    0.152265
     7  H    0.147697
     8  H    0.152783
     9  H    0.155986
    10  H    0.158481
    11  C   -0.297383
    12  C   -0.303160
    13  C   -0.465985
    14  H    0.147152
    15  H    0.143807
    16  H    0.146190
    17  H    0.166277
    18  H    0.153854
    19  H    0.143071
    20  H    0.168867
    21  C   -0.170594
    22  C   -0.218503
    23  C   -0.170706
    24  C    0.157748
    25  C   -0.170883
    26  C   -0.218457
    27  H    0.226147
    28  H    0.223962
    29  H    0.275994
    30  H    0.275120
    31  H    0.223966
    32  N    0.493530
    33  O   -0.463954
    34  O   -0.458611
 Sum of Mulliken charges =  -0.00000

 Dipole moment (field-independent basis, Debye):
    X=             -2.3423    Y=              4.6043    Z=              0.8700  Tot=              5.2386
 Quadrupole moment (field-independent basis, Debye-Ang):
   XX=            -80.2691   YY=            -94.9820   ZZ=            -96.1498
   XY=            -11.8706   XZ=             -3.3802   YZ=             -0.8072

 Normal termination of Gaussian 16 at Thu May  6 04:10:55 2021.
