 Gaussian 16, Revision A.03,
 Gaussian 16:  EM64L-G16RevA.03 25-Dec-2016

 -------------
 #p 6-31g* mp2
 -------------

 ------------------------------------------------------
 Input file generated by CHIRIPA (05-May-2021 14:51:08)
 ------------------------------------------------------
 Symbolic Z-matrix:
 Charge =  0 Multiplicity = 1

                         Standard orientation:
 ---------------------------------------------------------------------
 Center     Atomic      Atomic             Coordinates (Angstroms)
 Number     Number       Type             X           Y           Z
 ---------------------------------------------------------------------
      1          6           0        5.149322   -0.338977    0.104830
      2          6           0        5.794278    0.490508   -1.006013
      3          6           0        7.315963    0.567915   -0.878427
      4          1           0        5.415487    0.094124    1.078752
      5          1           0        5.571694   -1.353229    0.087849
      6          1           0        5.369810    1.502492   -0.987825
      7          1           0        5.526390    0.055495   -1.977412
      8          1           0        7.757355   -0.433157   -0.918785
      9          1           0        7.599885    1.022062    0.076424
     10          1           0        7.756380    1.165551   -1.682618
     11          6           0        3.628388   -0.425663   -0.009070
     12          6           0        2.983432   -1.255148    1.101773
     13          6           0        1.461748   -1.332555    0.974187
     14          1           0        3.206016    0.588590    0.007911
     15          1           0        3.362224   -0.858764   -0.982992
     16          1           0        3.251321   -0.820135    2.073172
     17          1           0        3.407901   -2.267132    1.083585
     18          1           0        1.177826   -1.786702    0.019336
     19          1           0        1.020356   -0.331483    1.014545
     20          1           0        1.021330   -1.930191    1.778378
     21          6           0       -3.632075    0.465944   -0.108896
     22          6           0       -3.073660    1.589058    0.765617
     23          6           0       -1.558372    1.744017    0.632632
     24          1           0       -3.140399   -0.478846    0.160495
     25          1           0       -3.373581    0.664730   -1.158210
     26          1           0       -3.334322    1.388927    1.812812
     27          1           0       -3.566861    2.531250    0.494244
     28          1           0       -1.283454    1.967899   -0.403176
     29          1           0       -1.049594    0.819085    0.922884
     30          1           0       -1.180334    2.552376    1.266274
     31          6           0       -5.145635    0.298695    0.013136
     32          6           0       -5.704050   -0.824418   -0.861377
     33          6           0       -7.219339   -0.979377   -0.728392
     34          1           0       -5.404130    0.099910    1.062450
     35          1           0       -5.637312    1.243485   -0.256255
     36          1           0       -5.210850   -1.766610   -0.590004
     37          1           0       -5.443388   -0.624287   -1.908572
     38          1           0       -7.728117   -0.054445   -1.018645
     39          1           0       -7.494257   -1.203258    0.307416
     40          1           0       -7.597376   -1.787737   -1.362033
 ---------------------------------------------------------------------

 SCF Done:  E(RHF) =  -470.733274625     A.U. after   11 cycles
 E2 =    -0.1582227295D+01 EUMP2 =    -0.47231550192080D+03

 The electronic state is 1-A.
 Alpha  occ. eigenvalues --  -11.21584 -11.21584 -11.21580 -11.21574 -11.21382
 Alpha  occ. eigenvalues --  -11.21375 -11.21322 -11.21314 -11.21058 -11.21054
 Alpha  occ. eigenvalues --  -11.21039 -11.21024  -1.08411  -1.08400  -1.03524
 Alpha  occ. eigenvalues --   -1.03492  -0.95994  -0.95927  -0.87033  -0.86926
 Alpha  occ. eigenvalues --   -0.79632  -0.79517  -0.78234  -0.78199  -0.65059
 Alpha  occ. eigenvalues --   -0.65015  -0.60996  -0.60831  -0.59330  -0.59323
 Alpha  occ. eigenvalues --   -0.57654  -0.57500  -0.55416  -0.55101  -0.52675
 Alpha  occ. eigenvalues --   -0.52654  -0.52530  -0.52237  -0.50087  -0.49716
 Alpha  occ. eigenvalues --   -0.48020  -0.47754  -0.46707  -0.46474  -0.45813
 Alpha  occ. eigenvalues --   -0.45724  -0.45694  -0.45606  -0.43769  -0.43759
 Alpha virt. eigenvalues --    0.22599   0.22938   0.23680   0.24593   0.25920
 Alpha virt. eigenvalues --    0.26695   0.27022   0.27606   0.27743   0.28884
 Alpha virt. eigenvalues --    0.30414   0.31603   0.31777   0.31833   0.32058

 Mulliken charges:
               1
     1  C   -0.298301
     2  C   -0.299656
     3  C   -0.475693
     4  H    0.149614
     5  H    0.149426
     6  H    0.152022
     7  H    0.151903
     8  H    0.155133
     9  H    0.155160
    10  H    0.160203
    11  C   -0.298509
    12  C   -0.299252
    13  C   -0.482324
    14  H    0.150209
    15  H    0.149604
    16  H    0.151879
    17  H    0.151739
    18  H    0.155300
    19  H    0.162123
    20  H    0.159473
    21  C   -0.298496
    22  C   -0.299193
    23  C   -0.482693
    24  H    0.150400
    25  H    0.149440
    26  H    0.151810
    27  H    0.151708
    28  H    0.155150
    29  H    0.162584
    30  H    0.159507
    31  C   -0.298295
    32  C   -0.299648
    33  C   -0.475687
    34  H    0.149468
    35  H    0.149529
    36  H    0.152028
    37  H    0.151876
    38  H    0.155124
    39  H    0.155153
    40  H    0.160182
 Sum of Mulliken charges =  -0.00000

 Dipole moment (field-independent basis, Debye):
    X=              0.0041    Y=             -0.0014    Z=             -0.0018  Tot=              0.0047
 Quadrupole moment (field-independent basis, Debye-Ang):
   XX=            -87.2837   YY=            -83.7717   ZZ=            -83.8745
   XY=             -0.5328   XZ=              0.0810   YZ=             -0.0154

 Normal termination of Gaussian 16 at Wed May  5 19:39:41 2021.
