 Gaussian 16, Revision A.03,
 Gaussian 16:  EM64L-G16RevA.03 25-Dec-2016

 -------------
 #p 6-31g* mp2
 -------------

 ------------------------------------------------------
 Input file generated by CHIRIPA (05-May-2021 14:55:23)
 ------------------------------------------------------
 Symbolic Z-matrix:
 Charge =  0 Multiplicity = 1

                         Standard orientation:
 ---------------------------------------------------------------------
 Center     Atomic      Atomic             Coordinates (Angstroms)
 Number     Number       Type             X           Y           Z
 ---------------------------------------------------------------------
      1          6           0        1.003957   -0.056827   -0.444171
      2          6           0        1.548894   -1.077394    0.341964
      3          6           0        2.932049   -1.173940    0.521154
      4          6           0        3.744485   -0.228754   -0.103235
      5          6           0        3.231721    0.799569   -0.892485
      6          6           0        1.845625    0.876751   -1.057804
      7          1           0       -0.071653    0.010651   -0.577982
      8          1           0        0.897661   -1.803814    0.819723
      9          1           0        3.380543   -1.953876    1.124454
     10          1           0        3.906378    1.509044   -1.356060
     11          1           0        1.425210    1.670401   -1.668882
     12          7           0        5.210325   -0.320713    0.079123
     13          8           0        5.904574    0.524372   -0.481668
     14          8           0        5.637246   -1.236134    0.779394
     15          6           0       -5.074860    0.094321   -0.278720
     16          6           0       -5.801406   -1.179567    0.154092
     17          6           0       -6.981648   -1.524720   -0.754585
     18          1           0       -5.787980    0.929961   -0.289255
     19          1           0       -4.720308   -0.027065   -1.311654
     20          1           0       -6.153278   -1.056340    1.186378
     21          1           0       -5.086431   -2.012235    0.163783
     22          1           0       -6.643555   -1.674478   -1.785053
     23          1           0       -7.716463   -0.713151   -0.756647
     24          1           0       -7.486645   -2.438788   -0.426989
     25          6           0       -3.892554    0.452490    0.619942
     26          6           0       -3.166009    1.726378    0.187131
     27          6           0       -1.985767    2.071531    1.095806
     28          1           0       -4.247107    0.573875    1.652875
     29          1           0       -3.179435   -0.383151    0.630477
     30          1           0       -3.880984    2.559045    0.177440
     31          1           0       -2.814136    1.603151   -0.845157
     32          1           0       -1.250952    1.259962    1.097869
     33          1           0       -2.323860    2.221288    2.126275
     34          1           0       -1.480769    2.985598    0.768211
 ---------------------------------------------------------------------

 SCF Done:  E(RHF) =  -669.535186139     A.U. after   15 cycles
 E2 =    -0.2091503619D+01 EUMP2 =    -0.67162668975798D+03

 The electronic state is 1-A.
 Alpha  occ. eigenvalues --  -20.60759 -20.60754 -15.85813 -11.31187 -11.27757
 Alpha  occ. eigenvalues --  -11.27751 -11.27482 -11.26780 -11.26764 -11.22620
 Alpha  occ. eigenvalues --  -11.22342 -11.22271 -11.22147 -11.22051 -11.21625
 Alpha  occ. eigenvalues --   -1.59835  -1.39388  -1.19362  -1.09294  -1.08757
 Alpha  occ. eigenvalues --   -1.04764  -1.04362  -0.96803  -0.95589  -0.87811
 Alpha  occ. eigenvalues --   -0.86161  -0.82423  -0.80424  -0.79085  -0.77464
 Alpha  occ. eigenvalues --   -0.72031  -0.71158  -0.70511  -0.65937  -0.65013
 Alpha  occ. eigenvalues --   -0.64767  -0.62110  -0.61779  -0.60172  -0.58403
 Alpha  occ. eigenvalues --   -0.56223  -0.55160  -0.53479  -0.53239  -0.53048
 Alpha  occ. eigenvalues --   -0.52856  -0.50728  -0.48798  -0.48786  -0.48718
 Alpha  occ. eigenvalues --   -0.47479  -0.46623  -0.46550  -0.44792  -0.44610
 Alpha  occ. eigenvalues --   -0.37316  -0.36368
 Alpha virt. eigenvalues --    0.05034   0.11274   0.16411   0.18976   0.22659
 Alpha virt. eigenvalues --    0.23800   0.25501   0.26335   0.27167   0.27550
 Alpha virt. eigenvalues --    0.29220   0.30269   0.30912   0.31127   0.32115

 Mulliken charges:
               1
     1  C   -0.170693
     2  C   -0.220120
     3  C   -0.170594
     4  C    0.158675
     5  C   -0.170927
     6  C   -0.219582
     7  H    0.229241
     8  H    0.223396
     9  H    0.275651
    10  H    0.275629
    11  H    0.223706
    12  N    0.488060
    13  O   -0.460386
    14  O   -0.460404
    15  C   -0.298579
    16  C   -0.299973
    17  C   -0.476139
    18  H    0.152321
    19  H    0.148742
    20  H    0.153535
    21  H    0.150774
    22  H    0.155511
    23  H    0.156520
    24  H    0.162141
    25  C   -0.297501
    26  C   -0.302303
    27  C   -0.479396
    28  H    0.153560
    29  H    0.142283
    30  H    0.157315
    31  H    0.146090
    32  H    0.150382
    33  H    0.160851
    34  H    0.162215
 Sum of Mulliken charges =  -0.00000

 Dipole moment (field-independent basis, Debye):
    X=             -5.3392    Y=              0.3724    Z=             -0.6003  Tot=              5.3857
 Quadrupole moment (field-independent basis, Debye-Ang):
   XX=           -133.4513   YY=            -91.5942   ZZ=            -93.4373
   XY=              2.1831   XZ=             -3.3297   YZ=             -2.4086

 Normal termination of Gaussian 16 at Thu May  6 09:27:40 2021.
