 Gaussian 16, Revision A.03,
 Gaussian 16:  EM64L-G16RevA.03 25-Dec-2016

 -------------
 #p 6-31g* mp2
 -------------

 ------------------------------------------------------
 Input file generated by CHIRIPA (05-May-2021 14:51:14)
 ------------------------------------------------------
 Symbolic Z-matrix:
 Charge =  0 Multiplicity = 1

                         Standard orientation:
 ---------------------------------------------------------------------
 Center     Atomic      Atomic             Coordinates (Angstroms)
 Number     Number       Type             X           Y           Z
 ---------------------------------------------------------------------
      1          6           0       -4.740851   -0.002150   -0.097181
      2          6           0       -5.366166    1.392686   -0.059787
      3          6           0       -6.846990    1.387060   -0.440476
      4          1           0       -4.860313   -0.423697   -1.104640
      5          1           0       -5.293389   -0.662495    0.585491
      6          1           0       -4.811751    2.050560   -0.741286
      7          1           0       -5.245032    1.811038    0.947648
      8          1           0       -7.418630    0.753321    0.245238
      9          1           0       -6.982888    0.994204   -1.453292
     10          1           0       -7.273905    2.394281   -0.407154
     11          6           0       -3.260785   -0.012868    0.280996
     12          6           0       -2.635469   -1.407704    0.243601
     13          6           0       -1.154646   -1.402078    0.624291
     14          1           0       -2.708247    0.647476   -0.401677
     15          1           0       -3.141322    0.408678    1.288454
     16          1           0       -2.756604   -1.826056   -0.763833
     17          1           0       -3.189884   -2.065578    0.925100
     18          1           0       -1.018748   -1.009223    1.637107
     19          1           0       -0.583005   -0.768339   -0.061423
     20          1           0       -0.727731   -2.409299    0.590969
     21          6           0        4.556762    0.488824   -0.298535
     22          6           0        4.475379    1.845692    0.401658
     23          6           0        5.594316    2.797642   -0.022094
     24          1           0        5.531530    0.030123   -0.083214
     25          1           0        4.516822    0.642161   -1.385865
     26          1           0        4.514067    1.689737    1.487383
     27          1           0        3.500614    2.301131    0.184803
     28          1           0        5.554973    2.982617   -1.100444
     29          1           0        6.574184    2.367749    0.209537
     30          1           0        5.516976    3.761548    0.490510
     31          6           0        3.444875   -0.473806    0.114720
     32          6           0        3.526257   -1.830674   -0.585473
     33          6           0        2.407319   -2.782623   -0.161720
     34          1           0        3.484813   -0.627143    1.202051
     35          1           0        2.470104   -0.015105   -0.100600
     36          1           0        4.501021   -2.286112   -0.368618
     37          1           0        3.487569   -1.674718   -1.671197
     38          1           0        1.427452   -2.352731   -0.393352
     39          1           0        2.446662   -2.967599    0.916629
     40          1           0        2.484659   -3.746530   -0.674324
 ---------------------------------------------------------------------

 SCF Done:  E(RHF) =  -470.732612056     A.U. after   11 cycles
 E2 =    -0.1582800473D+01 EUMP2 =    -0.47231541252958D+03

 The electronic state is 1-A.
 Alpha  occ. eigenvalues --  -11.21610 -11.21605 -11.21569 -11.21516 -11.21416
 Alpha  occ. eigenvalues --  -11.21356 -11.21352 -11.21289 -11.21078 -11.21062
 Alpha  occ. eigenvalues --  -11.21047 -11.20880  -1.08442  -1.08370  -1.03555
 Alpha  occ. eigenvalues --   -1.03451  -0.96033  -0.95878  -0.87087  -0.86865
 Alpha  occ. eigenvalues --   -0.79685  -0.79460  -0.78264  -0.78170  -0.65087
 Alpha  occ. eigenvalues --   -0.64994  -0.61014  -0.60813  -0.59411  -0.59262
 Alpha  occ. eigenvalues --   -0.57654  -0.57474  -0.55386  -0.55118  -0.52889
 Alpha  occ. eigenvalues --   -0.52606  -0.52417  -0.52140  -0.50039  -0.49739
 Alpha  occ. eigenvalues --   -0.47922  -0.47828  -0.46723  -0.46476  -0.45835
 Alpha  occ. eigenvalues --   -0.45743  -0.45690  -0.45589  -0.43732  -0.43721
 Alpha virt. eigenvalues --    0.22013   0.22998   0.23672   0.24721   0.25942
 Alpha virt. eigenvalues --    0.26776   0.27040   0.27363   0.27858   0.29158
 Alpha virt. eigenvalues --    0.30459   0.31125   0.31695   0.31843   0.32107

 Mulliken charges:
               1
     1  C   -0.298276
     2  C   -0.299631
     3  C   -0.475707
     4  H    0.149626
     5  H    0.149612
     6  H    0.151845
     7  H    0.151976
     8  H    0.155220
     9  H    0.155174
    10  H    0.160270
    11  C   -0.298566
    12  C   -0.299831
    13  C   -0.479775
    14  H    0.149267
    15  H    0.149757
    16  H    0.151880
    17  H    0.152120
    18  H    0.155775
    19  H    0.154811
    20  H    0.165606
    21  C   -0.298241
    22  C   -0.299554
    23  C   -0.475661
    24  H    0.149617
    25  H    0.149209
    26  H    0.151923
    27  H    0.151807
    28  H    0.155057
    29  H    0.155140
    30  H    0.160127
    31  C   -0.298989
    32  C   -0.299469
    33  C   -0.482883
    34  H    0.149581
    35  H    0.150346
    36  H    0.151324
    37  H    0.151070
    38  H    0.165499
    39  H    0.154290
    40  H    0.158654
 Sum of Mulliken charges =  -0.00000

 Dipole moment (field-independent basis, Debye):
    X=             -0.0492    Y=             -0.0060    Z=              0.0194  Tot=              0.0532
 Quadrupole moment (field-independent basis, Debye-Ang):
   XX=            -86.3184   YY=            -85.3925   ZZ=            -83.3267
   XY=             -0.4959   XZ=              0.1056   YZ=             -0.2443

 Normal termination of Gaussian 16 at Wed May  5 16:53:54 2021.
