 Gaussian 16, Revision A.03,
 Gaussian 16:  EM64L-G16RevA.03 25-Dec-2016

 -------------
 #p 6-31g* mp2
 -------------

 ------------------------------------------------------
 Input file generated by CHIRIPA (05-May-2021 14:57:25)
 ------------------------------------------------------
 Symbolic Z-matrix:
 Charge =  0 Multiplicity = 1

                         Standard orientation:
 ---------------------------------------------------------------------
 Center     Atomic      Atomic             Coordinates (Angstroms)
 Number     Number       Type             X           Y           Z
 ---------------------------------------------------------------------
      1          6           0        1.709596   -2.233896    1.010809
      2          6           0        1.445174   -0.970057    1.548689
      3          6           0        2.108784    0.160925    1.063872
      4          6           0        3.034813   -0.009140    0.035845
      5          6           0        3.320025   -1.255000   -0.520732
      6          6           0        2.644530   -2.372090   -0.020366
      7          1           0        1.189472   -3.107074    1.393466
      8          1           0        0.719598   -0.859739    2.349573
      9          1           0        1.923278    1.151112    1.462039
     10          1           0        4.048644   -1.333415   -1.318468
     11          1           0        2.851896   -3.352370   -0.440003
     12          7           0        3.743638    1.180826   -0.485639
     13          8           0        4.554971    1.004357   -1.391859
     14          8           0        3.474461    2.267459    0.021716
     15          6           0       -2.566136    2.662617    0.329343
     16          6           0       -1.476424    1.785741    0.340925
     17          6           0       -1.659615    0.422223    0.092312
     18          6           0       -2.952005   -0.032307   -0.165406
     19          6           0       -4.057807    0.816310   -0.183885
     20          6           0       -3.851085    2.175962    0.067437
     21          1           0       -2.414689    3.720328    0.523524
     22          1           0       -0.477390    2.160878    0.544025
     23          1           0       -0.833725   -0.278717    0.095153
     24          1           0       -5.041837    0.412790   -0.389490
     25          1           0       -4.699229    2.854640    0.057802
     26          7           0       -3.158397   -1.473755   -0.430035
     27          8           0       -4.307004   -1.849235   -0.654432
     28          8           0       -2.167653   -2.200789   -0.408045
 ---------------------------------------------------------------------

 SCF Done:  E(RHF) =  -868.338533492     A.U. after   16 cycles
 E2 =    -0.2601814472D+01 EUMP2 =    -0.87094034796375D+03

 The electronic state is 1-A.
 Alpha  occ. eigenvalues --  -20.61251 -20.61214 -20.61165 -20.61130 -15.86288
 Alpha  occ. eigenvalues --  -15.86196 -11.31630 -11.31387 -11.28295 -11.28114
 Alpha  occ. eigenvalues --  -11.27966 -11.27839 -11.27767 -11.27665 -11.27168
 Alpha  occ. eigenvalues --  -11.27037 -11.26935 -11.26916  -1.60309  -1.60225
 Alpha  occ. eigenvalues --   -1.39866  -1.39784  -1.19795  -1.19557  -1.09138
 Alpha  occ. eigenvalues --   -1.08984  -1.05239  -1.04909  -0.95985  -0.95842
 Alpha  occ. eigenvalues --   -0.86588  -0.86315  -0.82866  -0.82655  -0.77979
 Alpha  occ. eigenvalues --   -0.77704  -0.72500  -0.72425  -0.71636  -0.71545
 Alpha  occ. eigenvalues --   -0.70789  -0.70661  -0.65417  -0.65242  -0.65206
 Alpha  occ. eigenvalues --   -0.64850  -0.62670  -0.62188  -0.55554  -0.55443
 Alpha  occ. eigenvalues --   -0.53597  -0.53314  -0.53251  -0.52826  -0.49270
 Alpha  occ. eigenvalues --   -0.49247  -0.49181  -0.49158  -0.45279  -0.45228
 Alpha  occ. eigenvalues --   -0.37668  -0.37535  -0.36853  -0.36495
 Alpha virt. eigenvalues --    0.04585   0.04755   0.10632   0.11203   0.16032
 Alpha virt. eigenvalues --    0.16350   0.20142   0.22020   0.25373   0.27487
 Alpha virt. eigenvalues --    0.28434   0.29013   0.30188   0.31321   0.32074

 Mulliken charges:
               1
     1  C   -0.160676
     2  C   -0.234196
     3  C   -0.180611
     4  C    0.160403
     5  C   -0.169694
     6  C   -0.216800
     7  H    0.237029
     8  H    0.228234
     9  H    0.270614
    10  H    0.277759
    11  H    0.229009
    12  N    0.488590
    13  O   -0.456806
    14  O   -0.465228
    15  C   -0.169907
    16  C   -0.227000
    17  C   -0.183003
    18  C    0.157402
    19  C   -0.170113
    20  C   -0.219177
    21  H    0.228729
    22  H    0.226430
    23  H    0.286184
    24  H    0.275556
    25  H    0.224465
    26  N    0.487980
    27  O   -0.458947
    28  O   -0.466225
 Sum of Mulliken charges =  -0.00000

 Dipole moment (field-independent basis, Debye):
    X=             -1.6251    Y=              0.6228    Z=              2.7143  Tot=              3.2243
 Quadrupole moment (field-independent basis, Debye-Ang):
   XX=           -118.3387   YY=           -103.3801   ZZ=           -104.0526
   XY=            -31.4303   XZ=              1.2792   YZ=              0.7698

 Normal termination of Gaussian 16 at Thu May  6 05:08:08 2021.
