 Gaussian 16, Revision A.03,
 Gaussian 16:  EM64L-G16RevA.03 25-Dec-2016

 -------------
 #p 6-31g* mp2
 -------------

 ------------------------------------------------------
 Input file generated by CHIRIPA (05-May-2021 14:51:09)
 ------------------------------------------------------
 Symbolic Z-matrix:
 Charge =  0 Multiplicity = 1

                         Standard orientation:
 ---------------------------------------------------------------------
 Center     Atomic      Atomic             Coordinates (Angstroms)
 Number     Number       Type             X           Y           Z
 ---------------------------------------------------------------------
      1          6           0        2.437093   -0.717243    0.013534
      2          6           0        2.111114   -1.901478    0.924200
      3          6           0        0.682540   -2.413974    0.738948
      4          1           0        1.725654    0.096131    0.211579
      5          1           0        2.286633   -1.016194   -1.033072
      6          1           0        2.263476   -1.600801    1.968707
      7          1           0        2.823531   -2.712057    0.724099
      8          1           0        0.521276   -2.740575   -0.293489
      9          1           0       -0.041961   -1.623006    0.958191
     10          1           0        0.470891   -3.260530    1.399561
     11          6           0        3.861693   -0.193690    0.187125
     12          6           0        4.187672    0.990545   -0.723540
     13          6           0        5.616246    1.503042   -0.538289
     14          1           0        4.012153    0.105261    1.233732
     15          1           0        4.573132   -1.007064   -0.010919
     16          1           0        3.475255    1.801124   -0.523439
     17          1           0        4.035310    0.689868   -1.768047
     18          1           0        6.340747    0.712073   -0.757531
     19          1           0        5.777510    1.829642    0.494149
     20          1           0        5.827895    2.349597   -1.198901
     21          6           0       -3.082235   -0.277982    0.102090
     22          6           0       -3.582189   -1.250260   -0.966885
     23          6           0       -3.441258   -2.713764   -0.547255
     24          1           0       -2.028963   -0.497364    0.324427
     25          1           0       -3.640362   -0.448830    1.033058
     26          1           0       -3.024240   -1.076693   -1.895962
     27          1           0       -4.634338   -1.028415   -1.186841
     28          1           0       -4.012219   -2.909309    0.366182
     29          1           0       -2.392972   -2.957863   -0.346969
     30          1           0       -3.804584   -3.391487   -1.326066
     31          6           0       -3.216551    1.188916   -0.302750
     32          6           0       -2.716597    2.161193    0.766225
     33          6           0       -2.857528    3.624697    0.346595
     34          1           0       -2.658423    1.359763   -1.233718
     35          1           0       -4.269824    1.408297   -0.525087
     36          1           0       -1.664447    1.939348    0.986181
     37          1           0       -3.274545    1.987626    1.695302
     38          1           0       -3.905813    3.868795    0.146309
     39          1           0       -2.286567    3.820242   -0.566842
     40          1           0       -2.494202    4.302419    1.125406
 ---------------------------------------------------------------------

 SCF Done:  E(RHF) =  -470.733176094     A.U. after   11 cycles
 E2 =    -0.1583189121D+01 EUMP2 =    -0.47231636521467D+03

 The electronic state is 1-A.
 Alpha  occ. eigenvalues --  -11.21663 -11.21640 -11.21611 -11.21536 -11.21464
 Alpha  occ. eigenvalues --  -11.21400 -11.21368 -11.21297 -11.21138 -11.21099
 Alpha  occ. eigenvalues --  -11.21076 -11.20955  -1.08486  -1.08395  -1.03589
 Alpha  occ. eigenvalues --   -1.03486  -0.96038  -0.95936  -0.87059  -0.86953
 Alpha  occ. eigenvalues --   -0.79685  -0.79528  -0.78324  -0.78186  -0.65144
 Alpha  occ. eigenvalues --   -0.65010  -0.60992  -0.60887  -0.59402  -0.59310
 Alpha  occ. eigenvalues --   -0.57646  -0.57550  -0.55410  -0.55152  -0.52735
 Alpha  occ. eigenvalues --   -0.52636  -0.52481  -0.52354  -0.50079  -0.49787
 Alpha  occ. eigenvalues --   -0.48089  -0.47805  -0.46732  -0.46569  -0.45985
 Alpha  occ. eigenvalues --   -0.45772  -0.45713  -0.45393  -0.43835  -0.43746
 Alpha virt. eigenvalues --    0.21113   0.23015   0.23694   0.24383   0.25448
 Alpha virt. eigenvalues --    0.26456   0.27186   0.27365   0.28044   0.29319
 Alpha virt. eigenvalues --    0.30526   0.31144   0.31792   0.31921   0.32044

 Mulliken charges:
               1
     1  C   -0.298287
     2  C   -0.300342
     3  C   -0.482893
     4  H    0.148736
     5  H    0.149545
     6  H    0.152317
     7  H    0.152319
     8  H    0.155116
     9  H    0.161889
    10  H    0.161449
    11  C   -0.298315
    12  C   -0.299705
    13  C   -0.475745
    14  H    0.149739
    15  H    0.149901
    16  H    0.151930
    17  H    0.151931
    18  H    0.155258
    19  H    0.155292
    20  H    0.160386
    21  C   -0.306467
    22  C   -0.298686
    23  C   -0.480821
    24  H    0.157378
    25  H    0.149130
    26  H    0.151507
    27  H    0.151550
    28  H    0.154575
    29  H    0.162140
    30  H    0.159461
    31  C   -0.297666
    32  C   -0.299397
    33  C   -0.475698
    34  H    0.149568
    35  H    0.149657
    36  H    0.150545
    37  H    0.152005
    38  H    0.155355
    39  H    0.155263
    40  H    0.160079
 Sum of Mulliken charges =  -0.00000

 Dipole moment (field-independent basis, Debye):
    X=              0.0390    Y=             -0.0182    Z=              0.0108  Tot=              0.0444
 Quadrupole moment (field-independent basis, Debye-Ang):
   XX=            -84.8729   YY=            -85.8060   ZZ=            -84.1178
   XY=             -0.7284   XZ=             -0.6719   YZ=              0.6142

 Normal termination of Gaussian 16 at Thu May  6 02:10:26 2021.
