 Gaussian 16, Revision A.03,
 Gaussian 16:  EM64L-G16RevA.03 25-Dec-2016

 -------------
 #p 6-31g* mp2
 -------------

 ------------------------------------------------------
 Input file generated by CHIRIPA (05-May-2021 14:51:09)
 ------------------------------------------------------
 Symbolic Z-matrix:
 Charge =  0 Multiplicity = 1

                         Standard orientation:
 ---------------------------------------------------------------------
 Center     Atomic      Atomic             Coordinates (Angstroms)
 Number     Number       Type             X           Y           Z
 ---------------------------------------------------------------------
      1          6           0        2.223597    0.693815    0.099213
      2          6           0        3.282698    1.783397    0.269804
      3          6           0        2.828708    2.908606    1.200176
      4          1           0        1.301707    1.145503   -0.291994
      5          1           0        1.973799    0.277482    1.084943
      6          1           0        3.531431    2.196594   -0.716105
      7          1           0        4.202235    1.329031    0.660469
      8          1           0        2.599247    2.516038    2.196087
      9          1           0        1.924632    3.388529    0.811691
     10          1           0        3.600960    3.676644    1.307901
     11          6           0        2.662726   -0.438004   -0.828084
     12          6           0        1.603624   -1.527586   -0.998674
     13          6           0        2.057614   -2.652795   -1.929047
     14          1           0        2.912523   -0.021672   -1.813814
     15          1           0        3.584615   -0.889692   -0.436877
     16          1           0        0.684087   -1.073220   -1.389340
     17          1           0        1.354892   -1.940783   -0.012765
     18          1           0        2.961690   -3.132718   -1.540562
     19          1           0        2.287075   -2.260227   -2.924958
     20          1           0        1.285363   -3.420833   -2.036772
     21          6           0       -2.783564    0.020305   -0.303091
     22          6           0       -3.218286    1.478728   -0.451435
     23          6           0       -3.897711    1.759624   -1.792060
     24          1           0       -2.099639   -0.237052   -1.123432
     25          1           0       -3.662414   -0.630000   -0.413186
     26          1           0       -2.339101    2.126161   -0.339716
     27          1           0       -3.901105    1.732699    0.369463
     28          1           0       -4.791302    1.137961   -1.908806
     29          1           0       -3.220425    1.533658   -2.622014
     30          1           0       -4.200315    2.807999   -1.876910
     31          6           0       -2.102758   -0.276117    1.031962
     32          6           0       -1.668036   -1.734538    1.180306
     33          6           0       -0.988611   -2.015434    2.520930
     34          1           0       -1.223908    0.374189    1.142056
     35          1           0       -2.786682   -0.018759    1.852302
     36          1           0       -0.985217   -1.988510    0.359408
     37          1           0       -2.547220   -2.381972    1.068587
     38          1           0       -1.665897   -1.789470    3.350884
     39          1           0       -0.095019   -1.393772    2.637677
     40          1           0       -0.686006   -3.063809    2.605781
 ---------------------------------------------------------------------

 SCF Done:  E(RHF) =  -470.732683528     A.U. after   11 cycles
 E2 =    -0.1584788826D+01 EUMP2 =    -0.47231747235471D+03

 The electronic state is 1-A.
 Alpha  occ. eigenvalues --  -11.21684 -11.21682 -11.21591 -11.21513 -11.21449
 Alpha  occ. eigenvalues --  -11.21420 -11.21355 -11.21260 -11.21147 -11.21132
 Alpha  occ. eigenvalues --  -11.21072 -11.21035  -1.08547  -1.08355  -1.03634
 Alpha  occ. eigenvalues --   -1.03466  -0.96064  -0.95940  -0.87080  -0.86955
 Alpha  occ. eigenvalues --   -0.79778  -0.79485  -0.78381  -0.78153  -0.65165
 Alpha  occ. eigenvalues --   -0.65010  -0.61075  -0.60860  -0.59447  -0.59276
 Alpha  occ. eigenvalues --   -0.57691  -0.57538  -0.55346  -0.55237  -0.52752
 Alpha  occ. eigenvalues --   -0.52636  -0.52492  -0.52362  -0.50012  -0.49884
 Alpha  occ. eigenvalues --   -0.48197  -0.47814  -0.46770  -0.46488  -0.46133
 Alpha  occ. eigenvalues --   -0.45790  -0.45590  -0.45337  -0.43868  -0.43726
 Alpha virt. eigenvalues --    0.19769   0.22459   0.23330   0.23874   0.25231
 Alpha virt. eigenvalues --    0.26205   0.26751   0.27943   0.28626   0.30254
 Alpha virt. eigenvalues --    0.30819   0.31160   0.31602   0.31733   0.32384

 Mulliken charges:
               1
     1  C   -0.301830
     2  C   -0.299689
     3  C   -0.475870
     4  H    0.150426
     5  H    0.151018
     6  H    0.152290
     7  H    0.152386
     8  H    0.155413
     9  H    0.155099
    10  H    0.160706
    11  C   -0.297513
    12  C   -0.307842
    13  C   -0.476181
    14  H    0.149762
    15  H    0.150164
    16  H    0.154261
    17  H    0.157790
    18  H    0.155680
    19  H    0.155484
    20  H    0.160813
    21  C   -0.300488
    22  C   -0.299564
    23  C   -0.475622
    24  H    0.150432
    25  H    0.149565
    26  H    0.151274
    27  H    0.152222
    28  H    0.155322
    29  H    0.154684
    30  H    0.160194
    31  C   -0.300614
    32  C   -0.306951
    33  C   -0.477657
    34  H    0.152950
    35  H    0.149072
    36  H    0.162113
    37  H    0.150765
    38  H    0.155238
    39  H    0.155235
    40  H    0.159463
 Sum of Mulliken charges =  -0.00000

 Dipole moment (field-independent basis, Debye):
    X=              0.0678    Y=             -0.0049    Z=             -0.0233  Tot=              0.0719
 Quadrupole moment (field-independent basis, Debye-Ang):
   XX=            -84.0748   YY=            -85.3779   ZZ=            -85.3178
   XY=              0.3176   XZ=             -0.3934   YZ=             -0.6621

 Normal termination of Gaussian 16 at Thu May  6 03:43:52 2021.
