 Gaussian 16, Revision A.03,
 Gaussian 16:  EM64L-G16RevA.03 25-Dec-2016

 -------------
 #p 6-31g* mp2
 -------------

 ------------------------------------------------------
 Input file generated by CHIRIPA (05-May-2021 14:51:08)
 ------------------------------------------------------
 Symbolic Z-matrix:
 Charge =  0 Multiplicity = 1

                         Standard orientation:
 ---------------------------------------------------------------------
 Center     Atomic      Atomic             Coordinates (Angstroms)
 Number     Number       Type             X           Y           Z
 ---------------------------------------------------------------------
      1          6           0        3.734475    0.787386   -0.411673
      2          6           0        3.627805    1.884034    0.648501
      3          6           0        4.260676    3.202109    0.201350
      4          1           0        4.793122    0.623433   -0.655252
      5          1           0        3.250857    1.132414   -1.336045
      6          1           0        4.110266    1.536499    1.571034
      7          1           0        2.569299    2.045261    0.889724
      8          1           0        3.774015    3.574942   -0.705710
      9          1           0        5.323738    3.063290   -0.020529
     10          1           0        4.173148    3.972048    0.974263
     11          6           0        3.106300   -0.536332    0.020642
     12          6           0        3.212970   -1.632980   -1.039532
     13          6           0        2.580098   -2.951056   -0.592381
     14          1           0        3.589917   -0.881361    0.945014
     15          1           0        2.047652   -0.372380    0.264221
     16          1           0        4.271475   -1.794207   -1.280755
     17          1           0        2.730508   -1.285446   -1.962065
     18          1           0        1.517037   -2.812236   -0.370502
     19          1           0        3.066759   -3.323888    0.314679
     20          1           0        2.667626   -3.720994   -1.365294
     21          6           0       -3.104355   -0.750374    0.500674
     22          6           0       -1.581251   -0.668889    0.607910
     23          6           0       -0.963634   -1.926391    1.220310
     24          1           0       -3.527467   -0.918856    1.500441
     25          1           0       -3.375982   -1.625833   -0.105285
     26          1           0       -1.312540    0.206944    1.212333
     27          1           0       -1.161729   -0.500391   -0.392204
     28          1           0       -1.202771   -2.806911    0.615248
     29          1           0       -1.354439   -2.095557    2.228900
     30          1           0        0.125852   -1.846676    1.287570
     31          6           0       -3.736419    0.499320   -0.109643
     32          6           0       -5.259523    0.417835   -0.216879
     33          6           0       -5.877140    1.675337   -0.829279
     34          1           0       -3.464792    1.374779    0.496316
     35          1           0       -3.313307    0.667803   -1.109411
     36          1           0       -5.679045    0.249337    0.783234
     37          1           0       -5.528234   -0.457997   -0.821302
     38          1           0       -5.486335    1.844504   -1.837870
     39          1           0       -5.638003    2.555857   -0.224217
     40          1           0       -6.966627    1.595622   -0.896540
 ---------------------------------------------------------------------

 SCF Done:  E(RHF) =  -470.732837204     A.U. after   11 cycles
 E2 =    -0.1583257966D+01 EUMP2 =    -0.47231609517008D+03

 The electronic state is 1-A.
 Alpha  occ. eigenvalues --  -11.21669 -11.21628 -11.21594 -11.21575 -11.21445
 Alpha  occ. eigenvalues --  -11.21398 -11.21385 -11.21339 -11.21093 -11.21071
 Alpha  occ. eigenvalues --  -11.21065 -11.20971  -1.08476  -1.08415  -1.03587
 Alpha  occ. eigenvalues --   -1.03494  -0.96035  -0.95941  -0.87065  -0.86947
 Alpha  occ. eigenvalues --   -0.79668  -0.79541  -0.78288  -0.78237  -0.65125
 Alpha  occ. eigenvalues --   -0.65040  -0.61057  -0.60863  -0.59514  -0.59210
 Alpha  occ. eigenvalues --   -0.57661  -0.57535  -0.55399  -0.55157  -0.52789
 Alpha  occ. eigenvalues --   -0.52644  -0.52445  -0.52333  -0.50050  -0.49797
 Alpha  occ. eigenvalues --   -0.48015  -0.47812  -0.46686  -0.46561  -0.45835
 Alpha  occ. eigenvalues --   -0.45758  -0.45748  -0.45675  -0.43790  -0.43747
 Alpha virt. eigenvalues --    0.20882   0.23124   0.23520   0.24997   0.26269
 Alpha virt. eigenvalues --    0.26552   0.27092   0.27225   0.28123   0.29151
 Alpha virt. eigenvalues --    0.30566   0.31143   0.31707   0.31771   0.32179

 Mulliken charges:
               1
     1  C   -0.297929
     2  C   -0.299745
     3  C   -0.475702
     4  H    0.149760
     5  H    0.149513
     6  H    0.151846
     7  H    0.152087
     8  H    0.155221
     9  H    0.155163
    10  H    0.160194
    11  C   -0.303804
    12  C   -0.299094
    13  C   -0.482790
    14  H    0.149275
    15  H    0.154673
    16  H    0.151783
    17  H    0.151332
    18  H    0.163892
    19  H    0.154519
    20  H    0.159693
    21  C   -0.298395
    22  C   -0.300696
    23  C   -0.483563
    24  H    0.150080
    25  H    0.149838
    26  H    0.151964
    27  H    0.151593
    28  H    0.155322
    29  H    0.155863
    30  H    0.167969
    31  C   -0.298346
    32  C   -0.299700
    33  C   -0.475733
    34  H    0.149545
    35  H    0.149539
    36  H    0.152054
    37  H    0.152021
    38  H    0.155172
    39  H    0.155215
    40  H    0.160372
 Sum of Mulliken charges =  -0.00000

 Dipole moment (field-independent basis, Debye):
    X=             -0.0292    Y=             -0.0012    Z=              0.0160  Tot=              0.0333
 Quadrupole moment (field-independent basis, Debye-Ang):
   XX=            -84.5673   YY=            -86.3032   ZZ=            -83.9606
   XY=             -0.1719   XZ=              0.1191   YZ=              0.7769

 Normal termination of Gaussian 16 at Wed May  5 18:07:09 2021.
