 Gaussian 16, Revision A.03,
 Gaussian 16:  EM64L-G16RevA.03 25-Dec-2016

 -------------
 #p 6-31g* mp2
 -------------

 ------------------------------------------------------
 Input file generated by CHIRIPA (05-May-2021 14:53:12)
 ------------------------------------------------------
 Symbolic Z-matrix:
 Charge =  0 Multiplicity = 1

                         Standard orientation:
 ---------------------------------------------------------------------
 Center     Atomic      Atomic             Coordinates (Angstroms)
 Number     Number       Type             X           Y           Z
 ---------------------------------------------------------------------
      1          6           0       -3.106665    0.952613    0.052550
      2          6           0       -3.787309    2.159196    0.699750
      3          6           0       -2.840980    3.346941    0.877282
      4          1           0       -2.248034    0.650404    0.667666
      5          1           0       -2.701879    1.249405   -0.924925
      6          1           0       -4.191899    1.859860    1.675106
      7          1           0       -4.644534    2.458450    0.083123
      8          1           0       -2.446688    3.673359   -0.090491
      9          1           0       -1.991481    3.071369    1.510538
     10          1           0       -3.348144    4.198421    1.341638
     11          6           0       -4.039877   -0.242769   -0.131584
     12          6           0       -3.359233   -1.449352   -0.778783
     13          6           0       -4.305562   -2.637097   -0.956316
     14          1           0       -4.444663   -0.539561    0.845891
     15          1           0       -4.898508    0.059440   -0.746700
     16          1           0       -2.502008   -1.748606   -0.162156
     17          1           0       -2.954643   -1.150017   -1.754140
     18          1           0       -5.155061   -2.361525   -1.589571
     19          1           0       -4.699854   -2.963515    0.011458
     20          1           0       -3.798398   -3.488577   -1.420672
     21          6           0        1.304672   -1.927931    1.226813
     22          6           0        2.570134   -1.625771    1.740451
     23          6           0        3.402481   -0.712715    1.086176
     24          6           0        2.935370   -0.117704   -0.084747
     25          6           0        1.679725   -0.398040   -0.621457
     26          6           0        0.864283   -1.314183    0.049574
     27          1           0        0.664650   -2.638414    1.741578
     28          1           0        2.914768   -2.100892    2.654526
     29          1           0        4.386718   -0.460515    1.461794
     30          1           0        1.363797    0.091646   -1.534591
     31          1           0       -0.118014   -1.546929   -0.351633
     32          7           0        3.807591    0.850542   -0.786268
     33          8           0        3.372749    1.361187   -1.816215
     34          8           0        4.909564    1.080475   -0.292888
 ---------------------------------------------------------------------

 SCF Done:  E(RHF) =  -669.535666171     A.U. after   15 cycles
 E2 =    -0.2091435492D+01 EUMP2 =    -0.67162710166388D+03

 The electronic state is 1-A.
 Alpha  occ. eigenvalues --  -20.60727 -20.60722 -15.85779 -11.31139 -11.27712
 Alpha  occ. eigenvalues --  -11.27694 -11.27452 -11.26730 -11.26664 -11.22638
 Alpha  occ. eigenvalues --  -11.22114 -11.22034 -11.21965 -11.21885 -11.21330
 Alpha  occ. eigenvalues --   -1.59802  -1.39356  -1.19310  -1.09119  -1.08708
 Alpha  occ. eigenvalues --   -1.04708  -1.04172  -0.96579  -0.95544  -0.87600
 Alpha  occ. eigenvalues --   -0.86112  -0.82375  -0.80289  -0.78922  -0.77414
 Alpha  occ. eigenvalues --   -0.71998  -0.71125  -0.70425  -0.65772  -0.64961
 Alpha  occ. eigenvalues --   -0.64704  -0.62082  -0.61547  -0.59977  -0.58200
 Alpha  occ. eigenvalues --   -0.55849  -0.55221  -0.53302  -0.53054  -0.53000
 Alpha  occ. eigenvalues --   -0.52789  -0.50523  -0.48781  -0.48754  -0.48540
 Alpha  occ. eigenvalues --   -0.47321  -0.46431  -0.46348  -0.44763  -0.44422
 Alpha  occ. eigenvalues --   -0.37296  -0.36304
 Alpha virt. eigenvalues --    0.05108   0.11282   0.16568   0.20027   0.22616
 Alpha virt. eigenvalues --    0.23758   0.25159   0.25973   0.27432   0.28244
 Alpha virt. eigenvalues --    0.29027   0.30346   0.30943   0.31383   0.31945

 Mulliken charges:
               1
     1  C   -0.300883
     2  C   -0.300065
     3  C   -0.476474
     4  H    0.148418
     5  H    0.149993
     6  H    0.152044
     7  H    0.153455
     8  H    0.157630
     9  H    0.156192
    10  H    0.161940
    11  C   -0.297700
    12  C   -0.305044
    13  C   -0.475392
    14  H    0.150716
    15  H    0.153481
    16  H    0.143266
    17  H    0.152914
    18  H    0.159648
    19  H    0.156555
    20  H    0.160406
    21  C   -0.173378
    22  C   -0.218523
    23  C   -0.171316
    24  C    0.158820
    25  C   -0.172541
    26  C   -0.225838
    27  H    0.224878
    28  H    0.223110
    29  H    0.275408
    30  H    0.276039
    31  H    0.235317
    32  N    0.488036
    33  O   -0.460455
    34  O   -0.460658
 Sum of Mulliken charges =  -0.00000

 Dipole moment (field-independent basis, Debye):
    X=             -3.2611    Y=             -3.3353    Z=              2.4555  Tot=              5.2715
 Quadrupole moment (field-independent basis, Debye-Ang):
   XX=           -110.2294   YY=            -95.1649   ZZ=            -92.2690
   XY=            -10.8958   XZ=             10.6802   YZ=             -1.0343

 Normal termination of Gaussian 16 at Thu May  6 08:52:01 2021.
