 Gaussian 16, Revision A.03,
 Gaussian 16:  EM64L-G16RevA.03 25-Dec-2016

 -------------
 #p 6-31g* mp2
 -------------

 ------------------------------------------------------
 Input file generated by CHIRIPA (05-May-2021 14:55:19)
 ------------------------------------------------------
 Symbolic Z-matrix:
 Charge =  0 Multiplicity = 1

                         Standard orientation:
 ---------------------------------------------------------------------
 Center     Atomic      Atomic             Coordinates (Angstroms)
 Number     Number       Type             X           Y           Z
 ---------------------------------------------------------------------
      1          6           0       -2.642444    2.050199    1.184764
      2          6           0       -1.647483    1.937114    0.208145
      3          6           0       -1.484136    0.745390   -0.504356
      4          6           0       -2.337138   -0.318062   -0.213240
      5          6           0       -3.337773   -0.236327    0.753889
      6          6           0       -3.482932    0.965031    1.454045
      7          1           0       -2.762272    2.979700    1.733457
      8          1           0       -0.993306    2.778230   -0.003092
      9          1           0       -0.722103    0.630549   -1.265628
     10          1           0       -3.974682   -1.092070    0.942217
     11          1           0       -4.256495    1.049993    2.211954
     12          7           0       -2.173837   -1.584786   -0.960999
     13          8           0       -2.938171   -2.507102   -0.685745
     14          8           0       -1.284600   -1.631344   -1.808186
     15          6           0        3.200704    0.726023   -0.342354
     16          6           0        2.287369    1.937391   -0.151587
     17          6           0        2.649459    3.101831   -1.073956
     18          1           0        4.241693    1.027808   -0.162881
     19          1           0        3.146908    0.396251   -1.389136
     20          1           0        2.341811    2.263928    0.894848
     21          1           0        1.248413    1.632641   -0.331349
     22          1           0        2.576838    2.798891   -2.123505
     23          1           0        3.676449    3.433764   -0.890343
     24          1           0        1.983983    3.957153   -0.920899
     25          6           0        2.851269   -0.446238    0.572756
     26          6           0        3.764603   -1.657607    0.381989
     27          6           0        3.402513   -2.822047    1.304358
     28          1           0        2.905064   -0.116467    1.619538
     29          1           0        1.810279   -0.748025    0.393282
     30          1           0        4.803560   -1.352857    0.561750
     31          1           0        3.710161   -1.984145   -0.664446
     32          1           0        2.375524   -3.153981    1.120744
     33          1           0        3.475134   -2.519107    2.353907
     34          1           0        4.067989   -3.677369    1.151301
 ---------------------------------------------------------------------

 SCF Done:  E(RHF) =  -669.534774106     A.U. after   15 cycles
 E2 =    -0.2093056335D+01 EUMP2 =    -0.67162783044092D+03

 The electronic state is 1-A.
 Alpha  occ. eigenvalues --  -20.60835 -20.60828 -15.85883 -11.31230 -11.27785
 Alpha  occ. eigenvalues --  -11.27779 -11.27515 -11.26805 -11.26772 -11.22141
 Alpha  occ. eigenvalues --  -11.21668 -11.21591 -11.21444 -11.21357 -11.20815
 Alpha  occ. eigenvalues --   -1.59907  -1.39461  -1.19399  -1.08794  -1.08592
 Alpha  occ. eigenvalues --   -1.04808  -1.03704  -0.96137  -0.95635  -0.87156
 Alpha  occ. eigenvalues --   -0.86194  -0.82485  -0.79828  -0.78368  -0.77499
 Alpha  occ. eigenvalues --   -0.72102  -0.71229  -0.70516  -0.65289  -0.65020
 Alpha  occ. eigenvalues --   -0.64796  -0.62229  -0.61033  -0.59553  -0.57741
 Alpha  occ. eigenvalues --   -0.55404  -0.55290  -0.53152  -0.52889  -0.52851
 Alpha  occ. eigenvalues --   -0.52552  -0.50075  -0.48859  -0.48857  -0.48105
 Alpha  occ. eigenvalues --   -0.46849  -0.45897  -0.45773  -0.44861  -0.43938
 Alpha  occ. eigenvalues --   -0.37372  -0.36343
 Alpha virt. eigenvalues --    0.04972   0.11191   0.16400   0.20018   0.22920
 Alpha virt. eigenvalues --    0.23906   0.25868   0.26349   0.27189   0.28419
 Alpha virt. eigenvalues --    0.29624   0.30067   0.31335   0.31714   0.32621

 Mulliken charges:
               1
     1  C   -0.171763
     2  C   -0.216623
     3  C   -0.172237
     4  C    0.157293
     5  C   -0.171349
     6  C   -0.218225
     7  H    0.225904
     8  H    0.226849
     9  H    0.276234
    10  H    0.275652
    11  H    0.223645
    12  N    0.488416
    13  O   -0.459819
    14  O   -0.461471
    15  C   -0.298703
    16  C   -0.306336
    17  C   -0.476761
    18  H    0.150605
    19  H    0.153430
    20  H    0.152378
    21  H    0.146485
    22  H    0.158039
    23  H    0.159629
    24  H    0.153644
    25  C   -0.299646
    26  C   -0.300021
    27  C   -0.476780
    28  H    0.147555
    29  H    0.153443
    30  H    0.150139
    31  H    0.156423
    32  H    0.160424
    33  H    0.152683
    34  H    0.160864
 Sum of Mulliken charges =  -0.00000

 Dipole moment (field-independent basis, Debye):
    X=             -0.5448    Y=              4.3641    Z=              2.6324  Tot=              5.1256
 Quadrupole moment (field-independent basis, Debye-Ang):
   XX=            -88.7900   YY=            -98.1070   ZZ=            -95.0293
   XY=             -8.6514   XZ=             -8.1069   YZ=             -2.0211

 Normal termination of Gaussian 16 at Wed May  5 23:43:30 2021.
