 Gaussian 16, Revision A.03,
 Gaussian 16:  EM64L-G16RevA.03 25-Dec-2016

 -------------
 #p 6-31g* mp2
 -------------

 ------------------------------------------------------
 Input file generated by CHIRIPA (05-May-2021 14:51:13)
 ------------------------------------------------------
 Symbolic Z-matrix:
 Charge =  0 Multiplicity = 1

                         Standard orientation:
 ---------------------------------------------------------------------
 Center     Atomic      Atomic             Coordinates (Angstroms)
 Number     Number       Type             X           Y           Z
 ---------------------------------------------------------------------
      1          6           0       -3.248250   -0.395337    0.201839
      2          6           0       -4.217458   -1.536821   -0.107409
      3          6           0       -4.566815   -2.366815    1.128250
      4          1           0       -2.329511   -0.810893    0.637932
      5          1           0       -3.691578    0.255274    0.968364
      6          1           0       -3.773026   -2.184311   -0.874125
      7          1           0       -5.133921   -1.118517   -0.542994
      8          1           0       -5.033517   -1.739346    1.894457
      9          1           0       -3.664890   -2.811196    1.561444
     10          1           0       -5.260821   -3.177231    0.884443
     11          6           0       -2.889462    0.443483   -1.023469
     12          6           0       -1.920255    1.584968   -0.714221
     13          6           0       -1.570898    2.414962   -1.949880
     14          1           0       -2.446135   -0.207128   -1.789994
     15          1           0       -3.808202    0.859039   -1.459562
     16          1           0       -1.003792    1.166663   -0.278636
     17          1           0       -2.364687    2.232458    0.052495
     18          1           0       -2.472823    2.859342   -2.383074
     19          1           0       -1.104196    1.787492   -2.716087
     20          1           0       -0.876892    3.225377   -1.706073
     21          6           0        3.641374   -0.160405   -0.076083
     22          6           0        3.865709   -1.648465   -0.346884
     23          6           0        5.014380   -1.905124   -1.322833
     24          1           0        3.438482    0.352195   -1.026358
     25          1           0        4.567361    0.276186    0.323077
     26          1           0        2.939153   -2.082418   -0.744117
     27          1           0        4.067901   -2.157614    0.604169
     28          1           0        5.951908   -1.498721   -0.929796
     29          1           0        4.816748   -1.423097   -2.285742
     30          1           0        5.157287   -2.975301   -1.502158
     31          6           0        2.496340    0.112259    0.897714
     32          6           0        2.272003    1.600319    1.168514
     33          6           0        1.123333    1.856977    2.144464
     34          1           0        1.570351   -0.324332    0.498553
     35          1           0        2.699230   -0.400341    1.847989
     36          1           0        2.069813    2.109468    0.217461
     37          1           0        3.198561    2.034272    1.565747
     38          1           0        1.320966    1.374951    3.107373
     39          1           0        0.185804    1.450576    1.751426
     40          1           0        0.980426    2.927155    2.323788
 ---------------------------------------------------------------------

 SCF Done:  E(RHF) =  -470.733206795     A.U. after   11 cycles
 E2 =    -0.1583083298D+01 EUMP2 =    -0.47231629009307D+03

 The electronic state is 1-A.
 Alpha  occ. eigenvalues --  -11.21643 -11.21627 -11.21624 -11.21595 -11.21445
 Alpha  occ. eigenvalues --  -11.21430 -11.21386 -11.21370 -11.21123 -11.21088
 Alpha  occ. eigenvalues --  -11.21083 -11.20990  -1.08480  -1.08437  -1.03586
 Alpha  occ. eigenvalues --   -1.03513  -0.96019  -0.95972  -0.87040  -0.86984
 Alpha  occ. eigenvalues --   -0.79681  -0.79553  -0.78318  -0.78229  -0.65204
 Alpha  occ. eigenvalues --   -0.64991  -0.61116  -0.60803  -0.59379  -0.59343
 Alpha  occ. eigenvalues --   -0.57630  -0.57584  -0.55332  -0.55238  -0.52711
 Alpha  occ. eigenvalues --   -0.52665  -0.52459  -0.52383  -0.50010  -0.49895
 Alpha  occ. eigenvalues --   -0.48059  -0.47820  -0.46776  -0.46548  -0.45954
 Alpha  occ. eigenvalues --   -0.45774  -0.45762  -0.45478  -0.43820  -0.43789
 Alpha virt. eigenvalues --    0.20180   0.23265   0.23671   0.24748   0.25700
 Alpha virt. eigenvalues --    0.26733   0.26858   0.27798   0.28210   0.29088
 Alpha virt. eigenvalues --    0.30898   0.31200   0.31608   0.31820   0.32105

 Mulliken charges:
               1
     1  C   -0.298894
     2  C   -0.299606
     3  C   -0.475778
     4  H    0.149312
     5  H    0.149935
     6  H    0.151898
     7  H    0.152107
     8  H    0.155329
     9  H    0.155388
    10  H    0.160315
    11  C   -0.297807
    12  C   -0.306452
    13  C   -0.475618
    14  H    0.149199
    15  H    0.149940
    16  H    0.158140
    17  H    0.152776
    18  H    0.155552
    19  H    0.154790
    20  H    0.160579
    21  C   -0.298277
    22  C   -0.299616
    23  C   -0.475722
    24  H    0.149802
    25  H    0.149771
    26  H    0.151558
    27  H    0.152009
    28  H    0.155295
    29  H    0.155217
    30  H    0.160274
    31  C   -0.299498
    32  C   -0.300064
    33  C   -0.480616
    34  H    0.148841
    35  H    0.149972
    36  H    0.152215
    37  H    0.152085
    38  H    0.154664
    39  H    0.161086
    40  H    0.159899
 Sum of Mulliken charges =  -0.00000

 Dipole moment (field-independent basis, Debye):
    X=             -0.0238    Y=              0.0068    Z=             -0.0036  Tot=              0.0250
 Quadrupole moment (field-independent basis, Debye-Ang):
   XX=            -84.3977   YY=            -84.9928   ZZ=            -85.2846
   XY=             -0.5311   XZ=              1.1766   YZ=              0.3719

 Normal termination of Gaussian 16 at Wed May  5 23:11:40 2021.
