 Gaussian 16, Revision A.03,
 Gaussian 16:  EM64L-G16RevA.03 25-Dec-2016

 -------------
 #p 6-31g* mp2
 -------------

 ------------------------------------------------------
 Input file generated by CHIRIPA (05-May-2021 14:51:11)
 ------------------------------------------------------
 Symbolic Z-matrix:
 Charge =  0 Multiplicity = 1

                         Standard orientation:
 ---------------------------------------------------------------------
 Center     Atomic      Atomic             Coordinates (Angstroms)
 Number     Number       Type             X           Y           Z
 ---------------------------------------------------------------------
      1          6           0       -4.580908    0.222785    0.379205
      2          6           0       -5.497793    0.821894   -0.687743
      3          6           0       -6.830469    1.307637   -0.116933
      4          1           0       -5.097617   -0.613199    0.870210
      5          1           0       -4.394822    0.975704    1.157587
      6          1           0       -5.680976    0.068520   -1.464588
      7          1           0       -4.978768    1.656427   -1.176397
      8          1           0       -6.665990    2.077783    0.643608
      9          1           0       -7.372188    0.480853    0.353779
     10          1           0       -7.470368    1.732151   -0.896790
     11          6           0       -3.244773   -0.267317   -0.176016
     12          6           0       -2.327888   -0.866425    0.890932
     13          6           0       -0.995212   -1.352168    0.320122
     14          1           0       -3.430859   -1.020236   -0.954398
     15          1           0       -2.728063    0.568668   -0.667021
     16          1           0       -2.846913   -1.700959    1.379586
     17          1           0       -2.144704   -0.113052    1.667777
     18          1           0       -0.453492   -0.525385   -0.150590
     19          1           0       -1.159691   -2.122314   -0.440419
     20          1           0       -0.355313   -1.776683    1.099979
     21          6           0        3.448859   -0.481892   -0.439201
     22          6           0        3.513808   -1.877065    0.183102
     23          6           0        2.579996   -2.874499   -0.503129
     24          1           0        2.415294   -0.112842   -0.389292
     25          1           0        3.704801   -0.551363   -1.505532
     26          1           0        3.259166   -1.804779    1.248254
     27          1           0        4.547375   -2.242757    0.131878
     28          1           0        2.836388   -2.976143   -1.562626
     29          1           0        1.540861   -2.535676   -0.439907
     30          1           0        2.642397   -3.865308   -0.042407
     31          6           0        4.376822    0.526424    0.236012
     32          6           0        4.311873    1.921596   -0.386291
     33          6           0        5.245685    2.919030    0.299940
     34          1           0        4.120879    0.595895    1.302344
     35          1           0        5.410387    0.157373    0.186104
     36          1           0        3.278305    2.287289   -0.335068
     37          1           0        4.566514    1.849311   -1.451443
     38          1           0        6.284821    2.580208    0.236719
     39          1           0        4.989292    3.020674    1.359436
     40          1           0        5.183284    3.909839   -0.160782
 ---------------------------------------------------------------------

 SCF Done:  E(RHF) =  -470.733105845     A.U. after   11 cycles
 E2 =    -0.1582851886D+01 EUMP2 =    -0.47231595773046D+03

 The electronic state is 1-A.
 Alpha  occ. eigenvalues --  -11.21666 -11.21627 -11.21579 -11.21508 -11.21447
 Alpha  occ. eigenvalues --  -11.21386 -11.21351 -11.21285 -11.21177 -11.21091
 Alpha  occ. eigenvalues --  -11.21055 -11.20866  -1.08478  -1.08368  -1.03594
 Alpha  occ. eigenvalues --   -1.03451  -0.96062  -0.95887  -0.87100  -0.86891
 Alpha  occ. eigenvalues --   -0.79702  -0.79483  -0.78294  -0.78173  -0.65110
 Alpha  occ. eigenvalues --   -0.64999  -0.60984  -0.60879  -0.59408  -0.59270
 Alpha  occ. eigenvalues --   -0.57647  -0.57518  -0.55362  -0.55183  -0.52797
 Alpha  occ. eigenvalues --   -0.52597  -0.52480  -0.52262  -0.50026  -0.49777
 Alpha  occ. eigenvalues --   -0.48016  -0.47798  -0.46683  -0.46558  -0.45879
 Alpha  occ. eigenvalues --   -0.45753  -0.45697  -0.45587  -0.43801  -0.43715
 Alpha virt. eigenvalues --    0.21486   0.22976   0.23731   0.24781   0.25670
 Alpha virt. eigenvalues --    0.26518   0.27101   0.27573   0.27780   0.29121
 Alpha virt. eigenvalues --    0.30555   0.30765   0.31208   0.31822   0.32242

 Mulliken charges:
               1
     1  C   -0.298378
     2  C   -0.299661
     3  C   -0.475735
     4  H    0.149777
     5  H    0.149544
     6  H    0.152044
     7  H    0.151996
     8  H    0.155198
     9  H    0.155232
    10  H    0.160369
    11  C   -0.298612
    12  C   -0.300715
    13  C   -0.480107
    14  H    0.149841
    15  H    0.149691
    16  H    0.152470
    17  H    0.151978
    18  H    0.157090
    19  H    0.156511
    20  H    0.161510
    21  C   -0.300846
    22  C   -0.298601
    23  C   -0.486288
    24  H    0.151905
    25  H    0.149297
    26  H    0.150940
    27  H    0.151404
    28  H    0.153989
    29  H    0.169998
    30  H    0.158846
    31  C   -0.298167
    32  C   -0.299503
    33  C   -0.475654
    34  H    0.149332
    35  H    0.149608
    36  H    0.151416
    37  H    0.151905
    38  H    0.155211
    39  H    0.155090
    40  H    0.160076
 Sum of Mulliken charges =  -0.00000

 Dipole moment (field-independent basis, Debye):
    X=             -0.0714    Y=             -0.0002    Z=             -0.0008  Tot=              0.0714
 Quadrupole moment (field-independent basis, Debye-Ang):
   XX=            -85.6162   YY=            -84.8070   ZZ=            -84.5831
   XY=              0.1867   XZ=             -0.3931   YZ=             -0.1168

 Normal termination of Gaussian 16 at Thu May  6 03:49:46 2021.
