 Gaussian 16, Revision A.03,
 Gaussian 16:  EM64L-G16RevA.03 25-Dec-2016

 -------------
 #p 6-31g* mp2
 -------------

 ------------------------------------------------------
 Input file generated by CHIRIPA (05-May-2021 14:57:25)
 ------------------------------------------------------
 Symbolic Z-matrix:
 Charge =  0 Multiplicity = 1

                         Standard orientation:
 ---------------------------------------------------------------------
 Center     Atomic      Atomic             Coordinates (Angstroms)
 Number     Number       Type             X           Y           Z
 ---------------------------------------------------------------------
      1          6           0        4.393470    1.568404   -1.254000
      2          6           0        3.944538    1.944630    0.016211
      3          6           0        3.199789    1.056473    0.797923
      4          6           0        2.920920   -0.205668    0.275887
      5          6           0        3.354112   -0.609946   -0.985935
      6          6           0        4.097346    0.294562   -1.750144
      7          1           0        4.971421    2.264697   -1.854454
      8          1           0        4.173017    2.933263    0.404087
      9          1           0        2.839808    1.321763    1.784560
     10          1           0        3.110598   -1.602305   -1.345579
     11          1           0        4.444690   -0.000342   -2.736262
     12          7           0        2.133289   -1.154576    1.094185
     13          8           0        1.900907   -2.260749    0.611467
     14          8           0        1.763241   -0.774189    2.202791
     15          6           0       -3.932649    2.376034    0.276530
     16          6           0       -4.776810    1.390814   -0.246210
     17          6           0       -4.298942    0.098227   -0.481600
     18          6           0       -2.965471   -0.175665   -0.181389
     19          6           0       -2.099684    0.784332    0.340253
     20          6           0       -2.599131    2.070187    0.567580
     21          1           0       -4.312250    3.377531    0.456255
     22          1           0       -5.812886    1.625487   -0.473189
     23          1           0       -4.930644   -0.683557   -0.885563
     24          1           0       -1.071603    0.520353    0.556545
     25          1           0       -1.941258    2.833323    0.973623
     26          7           0       -2.448151   -1.540506   -0.426318
     27          8           0       -1.269366   -1.756438   -0.153412
     28          8           0       -3.231255   -2.368491   -0.886562
 ---------------------------------------------------------------------

 SCF Done:  E(RHF) =  -868.336312853     A.U. after   16 cycles
 E2 =    -0.2600922079D+01 EUMP2 =    -0.87093723493184D+03

 The electronic state is 1-A.
 Alpha  occ. eigenvalues --  -20.60315 -20.60156 -20.60077 -20.60001 -15.85278
 Alpha  occ. eigenvalues --  -15.85089 -11.30952 -11.30687 -11.27605 -11.27482
 Alpha  occ. eigenvalues --  -11.27341 -11.27307 -11.27273 -11.27106 -11.26665
 Alpha  occ. eigenvalues --  -11.26583 -11.26376 -11.26365  -1.59282  -1.59118
 Alpha  occ. eigenvalues --   -1.38835  -1.38662  -1.19147  -1.18893  -1.08484
 Alpha  occ. eigenvalues --   -1.08251  -1.04591  -1.04331  -0.95269  -0.95039
 Alpha  occ. eigenvalues --   -0.85973  -0.85721  -0.82100  -0.81865  -0.77098
 Alpha  occ. eigenvalues --   -0.76882  -0.71538  -0.71331  -0.70510  -0.70455
 Alpha  occ. eigenvalues --   -0.70245  -0.70008  -0.64790  -0.64593  -0.64538
 Alpha  occ. eigenvalues --   -0.64346  -0.61930  -0.61674  -0.55077  -0.54843
 Alpha  occ. eigenvalues --   -0.52911  -0.52681  -0.52650  -0.52432  -0.48293
 Alpha  occ. eigenvalues --   -0.48236  -0.48075  -0.48048  -0.44148  -0.44003
 Alpha  occ. eigenvalues --   -0.37145  -0.36898  -0.36213  -0.35943
 Alpha virt. eigenvalues --    0.05448   0.05669   0.11426   0.11707   0.16873
 Alpha virt. eigenvalues --    0.17107   0.21513   0.21772   0.27364   0.27581
 Alpha virt. eigenvalues --    0.28354   0.28664   0.30833   0.31374   0.32563

 Mulliken charges:
               1
     1  C   -0.171904
     2  C   -0.218824
     3  C   -0.176134
     4  C    0.158008
     5  C   -0.169192
     6  C   -0.218729
     7  H    0.224244
     8  H    0.220760
     9  H    0.272118
    10  H    0.280499
    11  H    0.223766
    12  N    0.488990
    13  O   -0.442005
    14  O   -0.469327
    15  C   -0.171528
    16  C   -0.218820
    17  C   -0.171242
    18  C    0.158474
    19  C   -0.169245
    20  C   -0.218837
    21  H    0.223156
    22  H    0.221599
    23  H    0.274878
    24  H    0.276575
    25  H    0.220447
    26  N    0.488086
    27  O   -0.451517
    28  O   -0.464297
 Sum of Mulliken charges =  -0.00000

 Dipole moment (field-independent basis, Debye):
    X=              1.0548    Y=              7.7715    Z=             -2.0840  Tot=              8.1149
 Quadrupole moment (field-independent basis, Debye-Ang):
   XX=            -75.5492   YY=           -106.0046   ZZ=           -104.8758
   XY=             -3.9993   XZ=             -8.9472   YZ=              3.8549

 Normal termination of Gaussian 16 at Thu May  6 13:06:03 2021.
