 Gaussian 16, Revision A.03,
 Gaussian 16:  EM64L-G16RevA.03 25-Dec-2016

 -------------
 #p 6-31g* mp2
 -------------

 ------------------------------------------------------
 Input file generated by CHIRIPA (05-May-2021 14:57:26)
 ------------------------------------------------------
 Symbolic Z-matrix:
 Charge =  0 Multiplicity = 1

                         Standard orientation:
 ---------------------------------------------------------------------
 Center     Atomic      Atomic             Coordinates (Angstroms)
 Number     Number       Type             X           Y           Z
 ---------------------------------------------------------------------
      1          6           0        5.907041   -0.132581   -1.226473
      2          6           0        4.705309   -0.589346   -1.777588
      3          6           0        3.527886   -0.575217   -1.023915
      4          6           0        3.588685   -0.095473    0.283540
      5          6           0        4.770539    0.366328    0.860819
      6          6           0        5.935770    0.342960    0.088653
      7          1           0        6.816955   -0.147145   -1.819127
      8          1           0        4.680022   -0.959208   -2.798670
      9          1           0        2.583904   -0.922905   -1.425696
     10          1           0        4.764390    0.729224    1.881450
     11          1           0        6.867620    0.698311    0.519264
     12          7           0        2.348654   -0.075625    1.091209
     13          8           0        2.428692    0.351927    2.240744
     14          8           0        1.320160   -0.487995    0.559432
     15          6           0       -3.092265    2.507748   -0.417847
     16          6           0       -2.123732    1.501745   -0.337709
     17          6           0       -2.500506    0.163607   -0.189476
     18          6           0       -3.860807   -0.134150   -0.124573
     19          6           0       -4.849476    0.845600   -0.201486
     20          6           0       -4.449653    2.177048   -0.349601
     21          1           0       -2.790626    3.544648   -0.532953
     22          1           0       -1.068836    1.755637   -0.390424
     23          1           0       -1.771606   -0.635109   -0.124848
     24          1           0       -5.893346    0.561586   -0.145921
     25          1           0       -5.204020    2.956236   -0.411566
     26          7           0       -4.271881   -1.547235    0.032291
     27          8           0       -5.476810   -1.783452    0.086925
     28          8           0       -3.381368   -2.391838    0.097638
 ---------------------------------------------------------------------

 SCF Done:  E(RHF) =  -868.339682338     A.U. after   16 cycles
 E2 =    -0.2598599982D+01 EUMP2 =    -0.87093828231926D+03

 The electronic state is 1-A.
 Alpha  occ. eigenvalues --  -20.61535 -20.61488 -20.59908 -20.59886 -15.86549
 Alpha  occ. eigenvalues --  -15.84946 -11.31703 -11.30182 -11.28248 -11.28237
 Alpha  occ. eigenvalues --  -11.27944 -11.27210 -11.27200 -11.26835 -11.26586
 Alpha  occ. eigenvalues --  -11.26552 -11.25856 -11.25653  -1.60572  -1.58978
 Alpha  occ. eigenvalues --   -1.40133  -1.38532  -1.19855  -1.18366  -1.09286
 Alpha  occ. eigenvalues --   -1.07808  -1.05224  -1.03725  -0.96156  -0.94648
 Alpha  occ. eigenvalues --   -0.86632  -0.85151  -0.82998  -0.81464  -0.78069
 Alpha  occ. eigenvalues --   -0.76509  -0.72776  -0.71881  -0.71171  -0.70957
 Alpha  occ. eigenvalues --   -0.70300  -0.69490  -0.65510  -0.65220  -0.64016
 Alpha  occ. eigenvalues --   -0.63734  -0.62572  -0.61042  -0.55728  -0.54303
 Alpha  occ. eigenvalues --   -0.53567  -0.53310  -0.52105  -0.51807  -0.49534
 Alpha  occ. eigenvalues --   -0.49495  -0.47933  -0.47914  -0.45579  -0.43965
 Alpha  occ. eigenvalues --   -0.37823  -0.36819  -0.36399  -0.35327
 Alpha virt. eigenvalues --    0.04434   0.05988   0.10838   0.12307   0.15960
 Alpha virt. eigenvalues --    0.17483   0.20975   0.22414   0.26933   0.27608
 Alpha virt. eigenvalues --    0.28474   0.29253   0.30670   0.31907   0.32144

 Mulliken charges:
               1
     1  C   -0.170066
     2  C   -0.218498
     3  C   -0.171210
     4  C    0.157065
     5  C   -0.170579
     6  C   -0.218568
     7  H    0.227516
     8  H    0.225499
     9  H    0.275309
    10  H    0.276435
    11  H    0.225101
    12  N    0.491443
    13  O   -0.455551
    14  O   -0.471098
    15  C   -0.171516
    16  C   -0.219929
    17  C   -0.172782
    18  C    0.157219
    19  C   -0.172066
    20  C   -0.219550
    21  H    0.221499
    22  H    0.227791
    23  H    0.290798
    24  H    0.272229
    25  H    0.219263
    26  N    0.487850
    27  O   -0.464818
    28  O   -0.458789
 Sum of Mulliken charges =  -0.00000

 Dipole moment (field-independent basis, Debye):
    X=              6.3569    Y=              4.8248    Z=             -3.3463  Tot=              8.6538
 Quadrupole moment (field-independent basis, Debye-Ang):
   XX=            -79.6947   YY=           -106.7061   ZZ=           -104.2872
   XY=            -20.3260   XZ=             -5.1103   YZ=              1.5595

 Normal termination of Gaussian 16 at Thu May  6 18:07:58 2021.
