 Gaussian 16, Revision A.03,
 Gaussian 16:  EM64L-G16RevA.03 25-Dec-2016

 -------------
 #p 6-31g* mp2
 -------------

 ------------------------------------------------------
 Input file generated by CHIRIPA (05-May-2021 14:53:17)
 ------------------------------------------------------
 Symbolic Z-matrix:
 Charge =  0 Multiplicity = 1

                         Standard orientation:
 ---------------------------------------------------------------------
 Center     Atomic      Atomic             Coordinates (Angstroms)
 Number     Number       Type             X           Y           Z
 ---------------------------------------------------------------------
      1          6           0        4.268462    0.939619   -0.167392
      2          6           0        2.879656    1.573501   -0.253398
      3          6           0        2.932002    3.077485   -0.523738
      4          1           0        4.842816    1.436525    0.626426
      5          1           0        4.807619    1.125737   -1.106575
      6          1           0        2.342769    1.385053    0.685142
      7          1           0        2.308474    1.074899   -1.046975
      8          1           0        3.444236    3.281275   -1.469617
      9          1           0        3.478726    3.593191    0.272341
     10          1           0        1.928360    3.510200   -0.581349
     11          6           0        4.232643   -0.563582    0.102481
     12          6           0        5.621449   -1.197463    0.188486
     13          6           0        5.569102   -2.701448    0.458827
     14          1           0        3.693486   -0.749699    1.041664
     15          1           0        3.658289   -1.060488   -0.691337
     16          1           0        6.192630   -0.698862    0.982064
     17          1           0        6.158335   -1.009016   -0.750053
     18          1           0        5.022379   -3.217153   -0.337253
     19          1           0        5.056868   -2.905238    1.404706
     20          1           0        6.572745   -3.134163    0.516437
     21          6           0       -0.827864    0.242032    0.040004
     22          6           0       -1.628364    0.793982    1.045525
     23          6           0       -3.010710    0.585026    1.047413
     24          6           0       -3.561747   -0.184489    0.023940
     25          6           0       -2.790797   -0.747756   -0.991765
     26          6           0       -1.410608   -0.525722   -0.973645
     27          1           0        0.245137    0.409434    0.046308
     28          1           0       -1.178532    1.390655    1.833991
     29          1           0       -3.653909    1.000551    1.813606
     30          1           0       -3.268026   -1.338083   -1.764542
     31          1           0       -0.791391   -0.955609   -1.755829
     32          7           0       -5.024032   -0.412625    0.015348
     33          8           0       -5.485169   -1.094338   -0.897482
     34          8           0       -5.681347    0.094595    0.921605
 ---------------------------------------------------------------------

 SCF Done:  E(RHF) =  -669.535191081     A.U. after   15 cycles
 E2 =    -0.2091667116D+01 EUMP2 =    -0.67162685819691D+03

 The electronic state is 1-A.
 Alpha  occ. eigenvalues --  -20.60680 -20.60675 -15.85734 -11.31069 -11.27649
 Alpha  occ. eigenvalues --  -11.27646 -11.27254 -11.26636 -11.26624 -11.23037
 Alpha  occ. eigenvalues --  -11.22456 -11.22386 -11.22330 -11.22160 -11.21714
 Alpha  occ. eigenvalues --   -1.59757  -1.39311  -1.19238  -1.09482  -1.08626
 Alpha  occ. eigenvalues --   -1.04645  -1.04535  -0.96925  -0.95470  -0.87946
 Alpha  occ. eigenvalues --   -0.86038  -0.82328  -0.80675  -0.79294  -0.77370
 Alpha  occ. eigenvalues --   -0.71952  -0.71081  -0.70327  -0.66102  -0.64885
 Alpha  occ. eigenvalues --   -0.64657  -0.62006  -0.61916  -0.60346  -0.58566
 Alpha  occ. eigenvalues --   -0.56186  -0.55146  -0.53616  -0.53330  -0.52970
 Alpha  occ. eigenvalues --   -0.52734  -0.50869  -0.48915  -0.48709  -0.48686
 Alpha  occ. eigenvalues --   -0.47704  -0.46783  -0.46716  -0.44774  -0.44724
 Alpha  occ. eigenvalues --   -0.37197  -0.36261
 Alpha virt. eigenvalues --    0.05167   0.11392   0.16642   0.20187   0.22328
 Alpha virt. eigenvalues --    0.23704   0.24924   0.25711   0.26973   0.27504
 Alpha virt. eigenvalues --    0.29385   0.30213   0.30609   0.31195   0.31796

 Mulliken charges:
               1
     1  C   -0.296731
     2  C   -0.308420
     3  C   -0.475799
     4  H    0.153560
     5  H    0.153555
     6  H    0.146764
     7  H    0.148411
     8  H    0.160021
     9  H    0.159159
    10  H    0.161583
    11  C   -0.299797
    12  C   -0.300242
    13  C   -0.476325
    14  H    0.148862
    15  H    0.147060
    16  H    0.153943
    17  H    0.153760
    18  H    0.155387
    19  H    0.156073
    20  H    0.163051
    21  C   -0.178985
    22  C   -0.222996
    23  C   -0.170643
    24  C    0.157763
    25  C   -0.170582
    26  C   -0.222607
    27  H    0.242764
    28  H    0.222432
    29  H    0.275046
    30  H    0.275020
    31  H    0.222572
    32  N    0.488049
    33  O   -0.460849
    34  O   -0.460859
 Sum of Mulliken charges =  -0.00000

 Dipole moment (field-independent basis, Debye):
    X=              5.5131    Y=              0.8669    Z=              0.0155  Tot=              5.5808
 Quadrupole moment (field-independent basis, Debye-Ang):
   XX=           -130.9982   YY=            -94.8911   ZZ=            -90.5564
   XY=             -3.7909   XZ=             -0.4612   YZ=              2.9749

 Normal termination of Gaussian 16 at Thu May  6 06:00:15 2021.
