 Gaussian 16, Revision A.03,
 Gaussian 16:  EM64L-G16RevA.03 25-Dec-2016

 -------------
 #p 6-31g* mp2
 -------------

 ------------------------------------------------------
 Input file generated by CHIRIPA (05-May-2021 14:51:08)
 ------------------------------------------------------
 Symbolic Z-matrix:
 Charge =  0 Multiplicity = 1

                         Standard orientation:
 ---------------------------------------------------------------------
 Center     Atomic      Atomic             Coordinates (Angstroms)
 Number     Number       Type             X           Y           Z
 ---------------------------------------------------------------------
      1          6           0       -3.565617   -0.262033    0.544213
      2          6           0       -2.251557   -0.593089   -0.164048
      3          6           0       -1.034846   -0.451736    0.751061
      4          1           0       -3.515982    0.763598    0.934806
      5          1           0       -3.681530   -0.922687    1.414555
      6          1           0       -2.138824    0.067059   -1.033595
      7          1           0       -2.304399   -1.617985   -0.553167
      8          1           0       -1.120659   -1.122102    1.612366
      9          1           0       -0.954143    0.572517    1.129208
     10          1           0       -0.106245   -0.693119    0.224473
     11          6           0       -4.791066   -0.398745   -0.357626
     12          6           0       -6.105125   -0.067689    0.350636
     13          6           0       -7.321837   -0.209042   -0.564474
     14          1           0       -4.675153    0.261909   -1.227968
     15          1           0       -4.840701   -1.424376   -0.748218
     16          1           0       -6.052283    0.957207    0.739754
     17          1           0       -6.217859   -0.727837    1.220182
     18          1           0       -7.402540   -1.233295   -0.942621
     19          1           0       -7.236024    0.461324   -1.425779
     20          1           0       -8.250438    0.032341   -0.037886
     21          6           0        3.927540    1.014924    0.134616
     22          6           0        2.561457    1.383909   -0.444740
     23          6           0        2.073169    2.756142    0.020390
     24          1           0        3.870487    1.032927    1.231596
     25          1           0        4.659432    1.782409   -0.152947
     26          1           0        1.832657    0.615234   -0.157329
     27          1           0        2.621719    1.364838   -1.540469
     28          1           0        2.778286    3.538020   -0.279738
     29          1           0        1.984741    2.784157    1.111260
     30          1           0        1.094911    2.999778   -0.405651
     31          6           0        4.429143   -0.354146   -0.321204
     32          6           0        5.795226   -0.723130    0.258153
     33          6           0        6.283514   -2.095364   -0.206978
     34          1           0        3.697250   -1.121631   -0.033640
     35          1           0        4.486197   -0.372149   -1.418184
     36          1           0        5.734964   -0.704060    1.353881
     37          1           0        6.524026    0.045544   -0.029259
     38          1           0        6.371942   -2.123379   -1.297847
     39          1           0        5.578397   -2.877242    0.093152
     40          1           0        7.261772   -2.339001    0.219064
 ---------------------------------------------------------------------

 SCF Done:  E(RHF) =  -470.733206027     A.U. after   11 cycles
 E2 =    -0.1582538255D+01 EUMP2 =    -0.47231574428134D+03

 The electronic state is 1-A.
 Alpha  occ. eigenvalues --  -11.21627 -11.21611 -11.21580 -11.21510 -11.21421
 Alpha  occ. eigenvalues --  -11.21372 -11.21361 -11.21308 -11.21102 -11.21078
 Alpha  occ. eigenvalues --  -11.21055 -11.21036  -1.08448  -1.08392  -1.03559
 Alpha  occ. eigenvalues --   -1.03483  -0.96012  -0.95937  -0.87028  -0.86959
 Alpha  occ. eigenvalues --   -0.79649  -0.79526  -0.78261  -0.78205  -0.65089
 Alpha  occ. eigenvalues --   -0.65020  -0.61009  -0.60859  -0.59445  -0.59243
 Alpha  occ. eigenvalues --   -0.57641  -0.57527  -0.55330  -0.55187  -0.52749
 Alpha  occ. eigenvalues --   -0.52626  -0.52441  -0.52355  -0.49942  -0.49881
 Alpha  occ. eigenvalues --   -0.47991  -0.47820  -0.46668  -0.46551  -0.45801
 Alpha  occ. eigenvalues --   -0.45752  -0.45725  -0.45665  -0.43786  -0.43710
 Alpha virt. eigenvalues --    0.21635   0.23040   0.23642   0.24904   0.25967
 Alpha virt. eigenvalues --    0.26619   0.27076   0.27431   0.27779   0.29002
 Alpha virt. eigenvalues --    0.30724   0.31419   0.31679   0.31855   0.32093

 Mulliken charges:
               1
     1  C   -0.298673
     2  C   -0.299234
     3  C   -0.481242
     4  H    0.149792
     5  H    0.149533
     6  H    0.152314
     7  H    0.151979
     8  H    0.155110
     9  H    0.156540
    10  H    0.164601
    11  C   -0.298296
    12  C   -0.299663
    13  C   -0.475714
    14  H    0.149587
    15  H    0.149682
    16  H    0.151994
    17  H    0.151928
    18  H    0.155189
    19  H    0.155214
    20  H    0.160291
    21  C   -0.297658
    22  C   -0.307759
    23  C   -0.475138
    24  H    0.149670
    25  H    0.149211
    26  H    0.160711
    27  H    0.151132
    28  H    0.154885
    29  H    0.155070
    30  H    0.159649
    31  C   -0.298309
    32  C   -0.299606
    33  C   -0.475708
    34  H    0.149009
    35  H    0.149517
    36  H    0.152012
    37  H    0.151925
    38  H    0.155102
    39  H    0.155161
    40  H    0.160191
 Sum of Mulliken charges =  -0.00000

 Dipole moment (field-independent basis, Debye):
    X=             -0.0292    Y=             -0.0112    Z=              0.0082  Tot=              0.0323
 Quadrupole moment (field-independent basis, Debye-Ang):
   XX=            -85.8540   YY=            -84.6153   ZZ=            -84.4189
   XY=              0.6898   XZ=             -0.7741   YZ=             -0.8951

 Normal termination of Gaussian 16 at Thu May  6 14:50:39 2021.
