 Gaussian 16, Revision A.03,
 Gaussian 16:  EM64L-G16RevA.03 25-Dec-2016

 -------------
 #p 6-31g* mp2
 -------------

 ------------------------------------------------------
 Input file generated by CHIRIPA (05-May-2021 14:55:21)
 ------------------------------------------------------
 Symbolic Z-matrix:
 Charge =  0 Multiplicity = 1

                         Standard orientation:
 ---------------------------------------------------------------------
 Center     Atomic      Atomic             Coordinates (Angstroms)
 Number     Number       Type             X           Y           Z
 ---------------------------------------------------------------------
      1          6           0       -5.591468   -0.145422   -0.062383
      2          6           0       -4.903710    0.577227    0.918070
      3          6           0       -3.510687    0.501810    1.009424
      4          6           0       -2.834126   -0.309679    0.100006
      5          6           0       -3.490895   -1.041740   -0.887936
      6          6           0       -4.884113   -0.951179   -0.960673
      7          1           0       -6.673678   -0.080954   -0.126118
      8          1           0       -5.450444    1.203792    1.617029
      9          1           0       -2.953134    1.050611    1.758671
     10          1           0       -2.918406   -1.657859   -1.570631
     11          1           0       -5.415603   -1.513513   -1.723132
     12          7           0       -1.359291   -0.397536    0.186864
     13          8           0       -0.786439   -1.119611   -0.626207
     14          8           0       -0.804094    0.257342    1.066369
     15          6           0        4.650427    0.123195   -0.220066
     16          6           0        4.952958   -1.174912    0.529186
     17          6           0        6.380431   -1.671757    0.298402
     18          1           0        4.816258   -0.033965   -1.294657
     19          1           0        5.364375    0.896096    0.096629
     20          1           0        4.237778   -1.944749    0.212193
     21          1           0        4.786202   -1.014698    1.602098
     22          1           0        7.107241   -0.924022    0.631927
     23          1           0        6.555701   -1.859356   -0.765877
     24          1           0        6.575169   -2.600793    0.843223
     25          6           0        3.227196    0.632514    0.000697
     26          6           0        2.924664    1.930621   -0.748555
     27          6           0        1.497192    2.427466   -0.517771
     28          1           0        2.513248   -0.140388   -0.315997
     29          1           0        3.061364    0.789674    1.075288
     30          1           0        3.091420    1.770407   -1.821466
     31          1           0        3.639844    2.700458   -0.431562
     32          1           0        1.321921    2.615066    0.546507
     33          1           0        0.770381    1.679730   -0.851295
     34          1           0        1.302453    3.356501   -1.062593
 ---------------------------------------------------------------------

 SCF Done:  E(RHF) =  -669.536170551     A.U. after   15 cycles
 E2 =    -0.2091923122D+01 EUMP2 =    -0.67162809367305D+03

 The electronic state is 1-A.
 Alpha  occ. eigenvalues --  -20.61015 -20.61005 -15.86013 -11.31323 -11.27882
 Alpha  occ. eigenvalues --  -11.27877 -11.27616 -11.26883 -11.26873 -11.20508
 Alpha  occ. eigenvalues --  -11.20208 -11.20203 -11.20150 -11.19712 -11.19471
 Alpha  occ. eigenvalues --   -1.60058  -1.39613  -1.19487  -1.08896  -1.07086
 Alpha  occ. eigenvalues --   -1.04879  -1.02254  -0.95741  -0.94693  -0.86281
 Alpha  occ. eigenvalues --   -0.85712  -0.82576  -0.78348  -0.77633  -0.76833
 Alpha  occ. eigenvalues --   -0.72231  -0.71379  -0.70596  -0.65142  -0.64883
 Alpha  occ. eigenvalues --   -0.63724  -0.62226  -0.59664  -0.58094  -0.56297
 Alpha  occ. eigenvalues --   -0.55385  -0.53979  -0.53212  -0.52971  -0.51459
 Alpha  occ. eigenvalues --   -0.51103  -0.49054  -0.49000  -0.48601  -0.46635
 Alpha  occ. eigenvalues --   -0.45383  -0.45009  -0.44360  -0.44230  -0.42494
 Alpha  occ. eigenvalues --   -0.37462  -0.36478
 Alpha virt. eigenvalues --    0.04870   0.11178   0.16370   0.21308   0.24141
 Alpha virt. eigenvalues --    0.25590   0.27233   0.27958   0.28155   0.28886
 Alpha virt. eigenvalues --    0.29255   0.30905   0.32376   0.32609   0.32867

 Mulliken charges:
               1
     1  C   -0.170456
     2  C   -0.218609
     3  C   -0.170456
     4  C    0.159207
     5  C   -0.170784
     6  C   -0.218602
     7  H    0.226113
     8  H    0.223973
     9  H    0.276043
    10  H    0.275745
    11  H    0.223894
    12  N    0.487024
    13  O   -0.461696
    14  O   -0.456156
    15  C   -0.297706
    16  C   -0.298923
    17  C   -0.474893
    18  H    0.146208
    19  H    0.144401
    20  H    0.154987
    21  H    0.151028
    22  H    0.152720
    23  H    0.153341
    24  H    0.157320
    25  C   -0.300998
    26  C   -0.299237
    27  C   -0.472526
    28  H    0.168030
    29  H    0.150329
    30  H    0.146750
    31  H    0.144736
    32  H    0.158096
    33  H    0.163815
    34  H    0.147283
 Sum of Mulliken charges =  -0.00000

 Dipole moment (field-independent basis, Debye):
    X=             -5.6009    Y=              0.1633    Z=             -0.2072  Tot=              5.6072
 Quadrupole moment (field-independent basis, Debye-Ang):
   XX=            -68.3004   YY=            -94.1820   ZZ=            -91.6215
   XY=              1.0378   XZ=              0.8072   YZ=              3.7605

 Normal termination of Gaussian 16 at Thu May  6 10:51:48 2021.
