 Gaussian 16, Revision A.03,
 Gaussian 16:  EM64L-G16RevA.03 25-Dec-2016

 -------------
 #p 6-31g* mp2
 -------------

 ------------------------------------------------------
 Input file generated by CHIRIPA (05-May-2021 14:57:26)
 ------------------------------------------------------
 Symbolic Z-matrix:
 Charge =  0 Multiplicity = 1

                         Standard orientation:
 ---------------------------------------------------------------------
 Center     Atomic      Atomic             Coordinates (Angstroms)
 Number     Number       Type             X           Y           Z
 ---------------------------------------------------------------------
      1          6           0       -4.745258   -1.539539   -0.784521
      2          6           0       -4.610747   -0.305231   -1.428656
      3          6           0       -3.790569    0.690860   -0.890455
      4          6           0       -3.116472    0.417481    0.298724
      5          6           0       -3.229985   -0.802228    0.964094
      6          6           0       -4.055663   -1.783668    0.407696
      7          1           0       -5.384528   -2.307636   -1.209676
      8          1           0       -5.145096   -0.112849   -2.354671
      9          1           0       -3.668343    1.655300   -1.368297
     10          1           0       -2.684685   -0.964622    1.885882
     11          1           0       -4.158229   -2.741318    0.910123
     12          7           0       -2.245275    1.464242    0.878125
     13          8           0       -1.662061    1.198590    1.926899
     14          8           0       -2.162141    2.530526    0.272514
     15          6           0        0.775433   -0.597100   -0.465086
     16          6           0        1.536626   -1.505169    0.278228
     17          6           0        2.914032   -1.320020    0.429964
     18          6           0        3.500260   -0.210918   -0.177917
     19          6           0        2.768881    0.711443   -0.924660
     20          6           0        1.392901    0.506362   -1.063103
     21          1           0       -0.294016   -0.748670   -0.577795
     22          1           0        1.059772   -2.363028    0.743772
     23          1           0        3.527163   -2.007460    0.999977
     24          1           0        3.272468    1.557152   -1.376982
     25          1           0        0.804247    1.213210   -1.640941
     26          7           0        4.957704   -0.004359   -0.024317
     27          8           0        5.450335    0.980738   -0.569784
     28          8           0        5.579819   -0.831467    0.638633
 ---------------------------------------------------------------------

 SCF Done:  E(RHF) =  -868.337688199     A.U. after   16 cycles
 E2 =    -0.2600975869D+01 EUMP2 =    -0.87093866406802D+03

 The electronic state is 1-A.
 Alpha  occ. eigenvalues --  -20.61782 -20.61747 -20.60323 -20.60315 -15.86811
 Alpha  occ. eigenvalues --  -15.85373 -11.32288 -11.30676 -11.28837 -11.28810
 Alpha  occ. eigenvalues --  -11.28507 -11.27825 -11.27794 -11.27266 -11.27209
 Alpha  occ. eigenvalues --  -11.27003 -11.26314 -11.26206  -1.60843  -1.59397
 Alpha  occ. eigenvalues --   -1.40389  -1.38953  -1.20449  -1.18842  -1.09805
 Alpha  occ. eigenvalues --   -1.08262  -1.05831  -1.04241  -0.96621  -0.95113
 Alpha  occ. eigenvalues --   -0.87215  -0.85655  -0.83433  -0.81948  -0.78489
 Alpha  occ. eigenvalues --   -0.76991  -0.73008  -0.72244  -0.71597  -0.71483
 Alpha  occ. eigenvalues --   -0.70715  -0.69975  -0.66061  -0.65788  -0.64512
 Alpha  occ. eigenvalues --   -0.64265  -0.63156  -0.61601  -0.56272  -0.54954
 Alpha  occ. eigenvalues --   -0.54040  -0.53887  -0.52553  -0.52352  -0.49782
 Alpha  occ. eigenvalues --   -0.49772  -0.48353  -0.48350  -0.45756  -0.44373
 Alpha  occ. eigenvalues --   -0.38411  -0.37455  -0.36805  -0.35820
 Alpha virt. eigenvalues --    0.04011   0.05540   0.10165   0.11823   0.15505
 Alpha virt. eigenvalues --    0.17043   0.20474   0.21688   0.26359   0.27360
 Alpha virt. eigenvalues --    0.27740   0.28128   0.30222   0.31239   0.31541

 Mulliken charges:
               1
     1  C   -0.170748
     2  C   -0.217827
     3  C   -0.174211
     4  C    0.152121
     5  C   -0.178435
     6  C   -0.218300
     7  H    0.229585
     8  H    0.227335
     9  H    0.277501
    10  H    0.277462
    11  H    0.226605
    12  N    0.488014
    13  O   -0.454732
    14  O   -0.460076
    15  C   -0.170494
    16  C   -0.216802
    17  C   -0.170812
    18  C    0.158743
    19  C   -0.169760
    20  C   -0.215447
    21  H    0.221473
    22  H    0.217794
    23  H    0.273598
    24  H    0.275551
    25  H    0.226484
    26  N    0.488171
    27  O   -0.460670
    28  O   -0.462123
 Sum of Mulliken charges =  -0.00000

 Dipole moment (field-independent basis, Debye):
    X=             -8.4816    Y=             -4.3244    Z=             -2.5689  Tot=              9.8609
 Quadrupole moment (field-independent basis, Debye-Ang):
   XX=           -121.9505   YY=           -102.8484   ZZ=           -102.1488
   XY=              8.2463   XZ=              5.9162   YZ=             -7.0613

 Normal termination of Gaussian 16 at Thu May  6 19:45:26 2021.
