 Gaussian 16, Revision A.03,
 Gaussian 16:  EM64L-G16RevA.03 25-Dec-2016

 -------------
 #p 6-31g* mp2
 -------------

 ------------------------------------------------------
 Input file generated by CHIRIPA (05-May-2021 14:53:12)
 ------------------------------------------------------
 Symbolic Z-matrix:
 Charge =  0 Multiplicity = 1

                         Standard orientation:
 ---------------------------------------------------------------------
 Center     Atomic      Atomic             Coordinates (Angstroms)
 Number     Number       Type             X           Y           Z
 ---------------------------------------------------------------------
      1          6           0        3.783288    1.103335   -0.387128
      2          6           0        2.430444    1.678256    0.033900
      3          6           0        2.214170    3.107163   -0.465343
      4          1           0        4.584478    1.751486   -0.006417
      5          1           0        3.857968    1.125023   -1.483188
      6          1           0        2.357777    1.654211    1.128778
      7          1           0        1.632388    1.028557   -0.347694
      8          1           0        2.259980    3.144357   -1.558558
      9          1           0        2.989490    3.773566   -0.073698
     10          1           0        1.240953    3.498553   -0.153055
     11          6           0        4.014206   -0.324508    0.104471
     12          6           0        5.367050   -0.899429   -0.316557
     13          6           0        5.583325   -2.328336    0.182686
     14          1           0        3.939526   -0.346197    1.200531
     15          1           0        3.213016   -0.972659   -0.276240
     16          1           0        6.165106   -0.249730    0.065037
     17          1           0        5.439718   -0.875384   -1.411435
     18          1           0        4.808005   -2.994740   -0.208960
     19          1           0        5.537515   -2.365530    1.275901
     20          1           0        6.556541   -2.719726   -0.129602
     21          6           0       -0.593202   -0.564398    0.641944
     22          6           0       -1.253579    0.629367    0.950729
     23          6           0       -2.612381    0.784636    0.660737
     24          6           0       -3.283013   -0.279077    0.059027
     25          6           0       -2.652971   -1.480760   -0.260811
     26          6           0       -1.293771   -1.613801    0.038224
     27          1           0        0.462503   -0.676382    0.870730
     28          1           0       -0.712039    1.446028    1.419606
     29          1           0       -3.148248    1.697953    0.889035
     30          1           0       -3.219470   -2.277142   -0.728007
     31          1           0       -0.783493   -2.542033   -0.202710
     32          7           0       -4.721728   -0.126466   -0.252761
     33          8           0       -5.290043   -1.078547   -0.783042
     34          8           0       -5.253834    0.942342    0.039042
 ---------------------------------------------------------------------

 SCF Done:  E(RHF) =  -669.535054859     A.U. after   15 cycles
 E2 =    -0.2092594414D+01 EUMP2 =    -0.67162764927281D+03

 The electronic state is 1-A.
 Alpha  occ. eigenvalues --  -20.60734 -20.60728 -15.85787 -11.31146 -11.27720
 Alpha  occ. eigenvalues --  -11.27710 -11.27384 -11.26718 -11.26698 -11.22694
 Alpha  occ. eigenvalues --  -11.22470 -11.22403 -11.22323 -11.21973 -11.21817
 Alpha  occ. eigenvalues --   -1.59810  -1.39363  -1.19318  -1.09420  -1.08706
 Alpha  occ. eigenvalues --   -1.04723  -1.04451  -0.96879  -0.95548  -0.87893
 Alpha  occ. eigenvalues --   -0.86115  -0.82386  -0.80554  -0.79275  -0.77427
 Alpha  occ. eigenvalues --   -0.72005  -0.71133  -0.70420  -0.66033  -0.64965
 Alpha  occ. eigenvalues --   -0.64724  -0.62078  -0.61839  -0.60253  -0.58508
 Alpha  occ. eigenvalues --   -0.56148  -0.55234  -0.53554  -0.53309  -0.53055
 Alpha  occ. eigenvalues --   -0.52795  -0.50806  -0.48843  -0.48763  -0.48755
 Alpha  occ. eigenvalues --   -0.47566  -0.46756  -0.46697  -0.44771  -0.44719
 Alpha  occ. eigenvalues --   -0.37247  -0.36325
 Alpha virt. eigenvalues --    0.05068   0.11254   0.16470   0.19892   0.22365
 Alpha virt. eigenvalues --    0.23035   0.24876   0.25515   0.26208   0.28158
 Alpha virt. eigenvalues --    0.29455   0.30633   0.30742   0.31311   0.32289

 Mulliken charges:
               1
     1  C   -0.297504
     2  C   -0.310715
     3  C   -0.475071
     4  H    0.153243
     5  H    0.153517
     6  H    0.145934
     7  H    0.155290
     8  H    0.160169
     9  H    0.158431
    10  H    0.158280
    11  C   -0.301018
    12  C   -0.300108
    13  C   -0.476301
    14  H    0.148541
    15  H    0.143882
    16  H    0.154913
    17  H    0.154520
    18  H    0.153809
    19  H    0.155634
    20  H    0.163660
    21  C   -0.174662
    22  C   -0.219977
    23  C   -0.171191
    24  C    0.158382
    25  C   -0.170861
    26  C   -0.220851
    27  H    0.233087
    28  H    0.226202
    29  H    0.275371
    30  H    0.275373
    31  H    0.223074
    32  N    0.488086
    33  O   -0.460597
    34  O   -0.460543
 Sum of Mulliken charges =  -0.00000

 Dipole moment (field-independent basis, Debye):
    X=              5.2933    Y=             -0.4853    Z=              1.0216  Tot=              5.4128
 Quadrupole moment (field-independent basis, Debye-Ang):
   XX=           -127.7170   YY=            -90.9616   ZZ=            -93.9770
   XY=              0.9946   XZ=             -3.2815   YZ=              2.1776

 Normal termination of Gaussian 16 at Thu May  6 08:51:59 2021.
