 Gaussian 16, Revision A.03,
 Gaussian 16:  EM64L-G16RevA.03 25-Dec-2016

 -------------
 #p 6-31g* mp2
 -------------

 ------------------------------------------------------
 Input file generated by CHIRIPA (05-May-2021 14:57:21)
 ------------------------------------------------------
 Symbolic Z-matrix:
 Charge =  0 Multiplicity = 1

                         Standard orientation:
 ---------------------------------------------------------------------
 Center     Atomic      Atomic             Coordinates (Angstroms)
 Number     Number       Type             X           Y           Z
 ---------------------------------------------------------------------
      1          6           0       -1.564558    0.558069    1.234966
      2          6           0       -1.747029   -0.725421    0.709724
      3          6           0       -2.946681   -1.071175    0.080569
      4          6           0       -3.947221   -0.104381   -0.006150
      5          6           0       -3.795609    1.182745    0.507280
      6          6           0       -2.587627    1.506384    1.132249
      7          1           0       -0.629404    0.818070    1.722083
      8          1           0       -0.954236   -1.463926    0.788051
      9          1           0       -3.114581   -2.057440   -0.334774
     10          1           0       -4.604196    1.897517    0.413977
     11          1           0       -2.448711    2.503932    1.539244
     12          7           0       -5.221648   -0.458710   -0.669992
     13          8           0       -6.087681    0.411109   -0.733539
     14          8           0       -5.330379   -1.599542   -1.114195
     15          6           0        3.128267    2.467799   -0.463758
     16          6           0        4.268845    1.934599   -1.073104
     17          6           0        4.615862    0.594082   -0.880386
     18          6           0        3.796047   -0.188148   -0.068408
     19          6           0        2.653323    0.313921    0.552397
     20          6           0        2.325562    1.657187    0.345621
     21          1           0        2.866175    3.510213   -0.618926
     22          1           0        4.894092    2.561781   -1.702193
     23          1           0        5.493266    0.155557   -1.340034
     24          1           0        2.049595   -0.336042    1.174071
     25          1           0        1.439188    2.068580    0.820113
     26          7           0        4.153226   -1.608749    0.143056
     27          8           0        3.414463   -2.276995    0.862997
     28          8           0        5.165182   -2.027072   -0.415144
 ---------------------------------------------------------------------

 SCF Done:  E(RHF) =  -868.336564805     A.U. after   16 cycles
 E2 =    -0.2600261681D+01 EUMP2 =    -0.87093682648628D+03

 The electronic state is 1-A.
 Alpha  occ. eigenvalues --  -20.61506 -20.61478 -20.61051 -20.61040 -15.86553
 Alpha  occ. eigenvalues --  -15.86103 -11.31996 -11.31594 -11.28685 -11.28504
 Alpha  occ. eigenvalues --  -11.28290 -11.28177 -11.28115 -11.28076 -11.27692
 Alpha  occ. eigenvalues --  -11.27516 -11.27302 -11.27199  -1.60566  -1.60120
 Alpha  occ. eigenvalues --   -1.40121  -1.39669  -1.20168  -1.19784  -1.09537
 Alpha  occ. eigenvalues --   -1.09192  -1.05605  -1.05188  -0.96366  -0.96003
 Alpha  occ. eigenvalues --   -0.86992  -0.86601  -0.83227  -0.82807  -0.78269
 Alpha  occ. eigenvalues --   -0.77808  -0.72769  -0.72322  -0.71889  -0.71443
 Alpha  occ. eigenvalues --   -0.71301  -0.70974  -0.65829  -0.65630  -0.65444
 Alpha  occ. eigenvalues --   -0.65206  -0.62975  -0.62513  -0.56102  -0.55781
 Alpha  occ. eigenvalues --   -0.53895  -0.53715  -0.53505  -0.53283  -0.49535
 Alpha  occ. eigenvalues --   -0.49517  -0.49091  -0.49067  -0.45511  -0.45046
 Alpha  occ. eigenvalues --   -0.38118  -0.37841  -0.37174  -0.36769
 Alpha virt. eigenvalues --    0.04289   0.04693   0.10442   0.10865   0.15718
 Alpha virt. eigenvalues --    0.16085   0.17683   0.22169   0.24884   0.25222
 Alpha virt. eigenvalues --    0.27726   0.29174   0.30267   0.31114   0.33133

 Mulliken charges:
               1
     1  C   -0.173821
     2  C   -0.219253
     3  C   -0.170217
     4  C    0.159586
     5  C   -0.170644
     6  C   -0.218817
     7  H    0.216591
     8  H    0.230310
     9  H    0.279276
    10  H    0.276580
    11  H    0.221179
    12  N    0.487839
    13  O   -0.459854
    14  O   -0.457932
    15  C   -0.169986
    16  C   -0.217795
    17  C   -0.169545
    18  C    0.159794
    19  C   -0.172100
    20  C   -0.216429
    21  H    0.228018
    22  H    0.226803
    23  H    0.278363
    24  H    0.267199
    25  H    0.216029
    26  N    0.488476
    27  O   -0.463165
    28  O   -0.456487
 Sum of Mulliken charges =  -0.00000

 Dipole moment (field-independent basis, Debye):
    X=              3.3015    Y=              6.1823    Z=              1.3835  Tot=              7.1439
 Quadrupole moment (field-independent basis, Debye-Ang):
   XX=           -145.1232   YY=           -103.0929   ZZ=           -104.3503
   XY=             13.0612   XZ=            -15.4830   YZ=             -0.1074

 Normal termination of Gaussian 16 at Wed May  5 16:12:17 2021.
