 Gaussian 16, Revision A.03,
 Gaussian 16:  EM64L-G16RevA.03 25-Dec-2016

 -------------
 #p 6-31g* mp2
 -------------

 ------------------------------------------------------
 Input file generated by CHIRIPA (05-May-2021 14:53:17)
 ------------------------------------------------------
 Symbolic Z-matrix:
 Charge =  0 Multiplicity = 1

                         Standard orientation:
 ---------------------------------------------------------------------
 Center     Atomic      Atomic             Coordinates (Angstroms)
 Number     Number       Type             X           Y           Z
 ---------------------------------------------------------------------
      1          6           0        3.234020   -0.584635   -0.404877
      2          6           0        4.042538   -1.365383    0.631808
      3          6           0        4.395074   -2.778007    0.164899
      4          1           0        2.312580   -1.137294   -0.633922
      5          1           0        3.806718   -0.530148   -1.341063
      6          1           0        3.469078   -1.417191    1.566192
      7          1           0        4.962069   -0.810706    0.858553
      8          1           0        4.988329   -2.743015   -0.754571
      9          1           0        3.486855   -3.352945   -0.042911
     10          1           0        4.973003   -3.318283    0.921180
     11          6           0        2.873950    0.829422    0.047362
     12          6           0        2.065431    1.610170   -0.989323
     13          6           0        1.712895    3.022795   -0.522415
     14          1           0        2.301252    0.774936    0.983547
     15          1           0        3.795389    1.382082    0.276407
     16          1           0        1.145901    1.055494   -1.216068
     17          1           0        2.638892    1.661979   -1.923708
     18          1           0        2.621115    3.597733   -0.314604
     19          1           0        1.119641    2.987802    0.397055
     20          1           0        1.134967    3.563071   -1.278695
     21          6           0       -3.280668   -2.296129   -0.710711
     22          6           0       -3.076664   -1.233787   -1.597468
     23          6           0       -2.581339   -0.010041   -1.137417
     24          6           0       -2.299425    0.117117    0.221865
     25          6           0       -2.491998   -0.922664    1.130193
     26          6           0       -2.988201   -2.137456    0.647893
     27          1           0       -3.665790   -3.243286   -1.076732
     28          1           0       -3.302923   -1.354153   -2.653101
     29          1           0       -2.413979    0.828848   -1.802002
     30          1           0       -2.257214   -0.772533    2.176976
     31          1           0       -3.145645   -2.960759    1.338855
     32          7           0       -1.774582    1.407902    0.720676
     33          8           0       -1.534017    1.494479    1.922870
     34          8           0       -1.613714    2.308601   -0.099993
 ---------------------------------------------------------------------

 SCF Done:  E(RHF) =  -669.536168576     A.U. after   15 cycles
 E2 =    -0.2092429721D+01 EUMP2 =    -0.67162859829699D+03

 The electronic state is 1-A.
 Alpha  occ. eigenvalues --  -20.61024 -20.61004 -15.86020 -11.31340 -11.27892
 Alpha  occ. eigenvalues --  -11.27889 -11.27623 -11.26896 -11.26885 -11.21302
 Alpha  occ. eigenvalues --  -11.20974 -11.20911 -11.20738 -11.20669 -11.19576
 Alpha  occ. eigenvalues --   -1.60065  -1.39620  -1.19500  -1.08907  -1.07860
 Alpha  occ. eigenvalues --   -1.04891  -1.02857  -0.95756  -0.95266  -0.86307
 Alpha  occ. eigenvalues --   -0.86271  -0.82582  -0.78968  -0.77655  -0.77619
 Alpha  occ. eigenvalues --   -0.72244  -0.71394  -0.70604  -0.65155  -0.64893
 Alpha  occ. eigenvalues --   -0.64494  -0.62237  -0.60248  -0.58722  -0.56878
 Alpha  occ. eigenvalues --   -0.55399  -0.54563  -0.53222  -0.52981  -0.51945
 Alpha  occ. eigenvalues --   -0.51701  -0.49412  -0.49009  -0.48816  -0.47255
 Alpha  occ. eigenvalues --   -0.46005  -0.45218  -0.45068  -0.44926  -0.43116
 Alpha  occ. eigenvalues --   -0.37472  -0.36490
 Alpha virt. eigenvalues --    0.04863   0.11126   0.16341   0.21271   0.23282
 Alpha virt. eigenvalues --    0.24888   0.26958   0.27261   0.27948   0.28223
 Alpha virt. eigenvalues --    0.28887   0.30789   0.31765   0.32245   0.32547

 Mulliken charges:
               1
     1  C   -0.297096
     2  C   -0.299107
     3  C   -0.475065
     4  H    0.145583
     5  H    0.147857
     6  H    0.151697
     7  H    0.152427
     8  H    0.154659
     9  H    0.152331
    10  H    0.159134
    11  C   -0.299569
    12  C   -0.299862
    13  C   -0.473285
    14  H    0.153132
    15  H    0.148994
    16  H    0.144825
    17  H    0.146279
    18  H    0.145248
    19  H    0.174240
    20  H    0.161277
    21  C   -0.170535
    22  C   -0.218450
    23  C   -0.171333
    24  C    0.158764
    25  C   -0.171047
    26  C   -0.218550
    27  H    0.226258
    28  H    0.224202
    29  H    0.276378
    30  H    0.275835
    31  H    0.224032
    32  N    0.488001
    33  O   -0.460345
    34  O   -0.456907
 Sum of Mulliken charges =  -0.00000

 Dipole moment (field-independent basis, Debye):
    X=             -2.1102    Y=             -4.4451    Z=             -1.6703  Tot=              5.1964
 Quadrupole moment (field-independent basis, Debye-Ang):
   XX=            -86.9097   YY=            -96.5467   ZZ=            -91.2689
   XY=             11.0663   XZ=              3.8793   YZ=             -3.3849

 Normal termination of Gaussian 16 at Thu May  6 20:29:38 2021.
