 Gaussian 16, Revision A.03,
 Gaussian 16:  EM64L-G16RevA.03 25-Dec-2016

 -------------
 #p 6-31g* mp2
 -------------

 ------------------------------------------------------
 Input file generated by CHIRIPA (05-May-2021 14:55:25)
 ------------------------------------------------------
 Symbolic Z-matrix:
 Charge =  0 Multiplicity = 1

                         Standard orientation:
 ---------------------------------------------------------------------
 Center     Atomic      Atomic             Coordinates (Angstroms)
 Number     Number       Type             X           Y           Z
 ---------------------------------------------------------------------
      1          6           0       -4.385012   -1.527847    0.830995
      2          6           0       -3.708790   -1.655375   -0.386782
      3          6           0       -2.882676   -0.627567   -0.851210
      4          6           0       -2.755097    0.519107   -0.068808
      5          6           0       -3.415674    0.675963    1.148700
      6          6           0       -4.236558   -0.364636    1.593505
      7          1           0       -5.024726   -2.331241    1.184152
      8          1           0       -3.822201   -2.557607   -0.981056
      9          1           0       -2.347554   -0.700003   -1.790260
     10          1           0       -3.282807    1.587303    1.718984
     11          1           0       -4.760504   -0.262840    2.539635
     12          7           0       -1.883295    1.613972   -0.550090
     13          8           0       -1.787625    2.614103    0.157881
     14          8           0       -1.312154    1.451264   -1.626176
     15          6           0        4.219284   -0.208095    0.509713
     16          6           0        5.629263   -0.028251   -0.053847
     17          6           0        6.635951    0.422884    1.004856
     18          1           0        3.885631    0.739234    0.954895
     19          1           0        4.249095   -0.943497    1.325612
     20          1           0        5.596564    0.705567   -0.869359
     21          1           0        5.959524   -0.976065   -0.497910
     22          1           0        6.698090   -0.311029    1.814864
     23          1           0        6.333067    1.380158    1.441305
     24          1           0        7.637296    0.545248    0.580364
     25          6           0        3.201593   -0.658874   -0.536628
     26          6           0        1.791615   -0.838718    0.026932
     27          6           0        0.784926   -1.289852   -1.031771
     28          1           0        3.171782    0.076528   -1.352526
     29          1           0        3.535247   -1.606202   -0.981810
     30          1           0        1.461353    0.109096    0.470995
     31          1           0        1.824313   -1.572536    0.842443
     32          1           0        1.087810   -2.247127   -1.468219
     33          1           0        0.722787   -0.555940   -1.841779
     34          1           0       -0.216419   -1.412216   -0.607279
 ---------------------------------------------------------------------

 SCF Done:  E(RHF) =  -669.534891206     A.U. after   15 cycles
 E2 =    -0.2093180428D+01 EUMP2 =    -0.67162807163387D+03

 The electronic state is 1-A.
 Alpha  occ. eigenvalues --  -20.60881 -20.60853 -15.85903 -11.31228 -11.27813
 Alpha  occ. eigenvalues --  -11.27776 -11.27552 -11.26810 -11.26799 -11.21194
 Alpha  occ. eigenvalues --  -11.21090 -11.20926 -11.20842 -11.20719 -11.20453
 Alpha  occ. eigenvalues --   -1.59933  -1.39488  -1.19419  -1.08813  -1.07948
 Alpha  occ. eigenvalues --   -1.04819  -1.03066  -0.95690  -0.95494  -0.86586
 Alpha  occ. eigenvalues --   -0.86184  -0.82489  -0.79156  -0.77772  -0.77521
 Alpha  occ. eigenvalues --   -0.72135  -0.71259  -0.70529  -0.65071  -0.64817
 Alpha  occ. eigenvalues --   -0.64559  -0.62179  -0.60434  -0.58933  -0.57170
 Alpha  occ. eigenvalues --   -0.55317  -0.54779  -0.53281  -0.52922  -0.52119
 Alpha  occ. eigenvalues --   -0.51913  -0.49491  -0.48885  -0.48844  -0.47458
 Alpha  occ. eigenvalues --   -0.46171  -0.45314  -0.45233  -0.44789  -0.43342
 Alpha  occ. eigenvalues --   -0.37378  -0.36362
 Alpha virt. eigenvalues --    0.04967   0.11192   0.16429   0.21326   0.23376
 Alpha virt. eigenvalues --    0.24806   0.26923   0.27198   0.27859   0.28026
 Alpha virt. eigenvalues --    0.28887   0.30798   0.31800   0.32005   0.32216

 Mulliken charges:
               1
     1  C   -0.170266
     2  C   -0.219805
     3  C   -0.172601
     4  C    0.159508
     5  C   -0.170658
     6  C   -0.218674
     7  H    0.225907
     8  H    0.224230
     9  H    0.279881
    10  H    0.275693
    11  H    0.223630
    12  N    0.489105
    13  O   -0.460335
    14  O   -0.459554
    15  C   -0.298551
    16  C   -0.299545
    17  C   -0.475567
    18  H    0.152277
    19  H    0.146923
    20  H    0.153452
    21  H    0.150315
    22  H    0.153727
    23  H    0.155966
    24  H    0.159237
    25  C   -0.298925
    26  C   -0.298419
    27  C   -0.486851
    28  H    0.154775
    29  H    0.146632
    30  H    0.156114
    31  H    0.146946
    32  H    0.147674
    33  H    0.174967
    34  H    0.152791
 Sum of Mulliken charges =  -0.00000

 Dipole moment (field-independent basis, Debye):
    X=             -3.1907    Y=             -3.7010    Z=              1.6230  Tot=              5.1490
 Quadrupole moment (field-independent basis, Debye-Ang):
   XX=            -79.1594   YY=            -97.3087   ZZ=            -92.1795
   XY=              8.4227   XZ=             -6.2480   YZ=              3.1749

 Normal termination of Gaussian 16 at Thu May  6 17:45:04 2021.
