 Gaussian 16, Revision A.03,
 Gaussian 16:  EM64L-G16RevA.03 25-Dec-2016

 -------------
 #p 6-31g* mp2
 -------------

 ------------------------------------------------------
 Input file generated by CHIRIPA (05-May-2021 14:51:08)
 ------------------------------------------------------
 Symbolic Z-matrix:
 Charge =  0 Multiplicity = 1

                         Standard orientation:
 ---------------------------------------------------------------------
 Center     Atomic      Atomic             Coordinates (Angstroms)
 Number     Number       Type             X           Y           Z
 ---------------------------------------------------------------------
      1          6           0       -3.382322   -0.162437   -0.368622
      2          6           0       -4.014477    1.160180    0.066177
      3          6           0       -4.989218    1.718677   -0.971009
      4          1           0       -2.859308   -0.015134   -1.323454
      5          1           0       -4.177913   -0.896310   -0.557991
      6          1           0       -3.217868    1.890929    0.256004
      7          1           0       -4.535885    1.009756    1.020180
      8          1           0       -5.804027    1.010806   -1.154329
      9          1           0       -4.478521    1.896986   -1.922847
     10          1           0       -5.429475    2.664386   -0.639845
     11          6           0       -2.405500   -0.733359    0.657826
     12          6           0       -1.773345   -2.055976    0.223027
     13          6           0       -0.798603   -2.614474    1.260212
     14          1           0       -1.609909    0.000514    0.847195
     15          1           0       -2.928514   -0.880662    1.612657
     16          1           0       -1.251937   -1.905553   -0.730977
     17          1           0       -2.569954   -2.786726    0.033199
     18          1           0       -1.309301   -2.792782    2.212050
     19          1           0        0.016205   -1.906602    1.443532
     20          1           0       -0.358347   -3.560182    0.929048
     21          6           0        3.281893   -0.144697   -0.430492
     22          6           0        2.510563   -1.463271   -0.364171
     23          6           0        3.299850   -2.639450   -0.939864
     24          1           0        3.546323    0.065888   -1.475803
     25          1           0        4.229110   -0.254186    0.115572
     26          1           0        1.564454   -1.350900   -0.909025
     27          1           0        2.247772   -1.670645    0.681082
     28          1           0        4.236759   -2.780068   -0.391202
     29          1           0        3.549558   -2.458505   -1.990343
     30          1           0        2.729814   -3.571983   -0.882420
     31          6           0        2.505929    1.040493    0.141289
     32          6           0        3.277258    2.359067    0.074968
     33          6           0        2.487971    3.535247    0.650661
     34          1           0        1.558711    1.149982   -0.404776
     35          1           0        2.241499    0.829908    1.186600
     36          1           0        3.540049    2.566442   -0.970285
     37          1           0        4.223368    2.246695    0.619822
     38          1           0        2.238264    3.354301    1.701140
     39          1           0        1.551063    3.675864    0.101999
     40          1           0        3.058007    4.467780    0.593216
 ---------------------------------------------------------------------

 SCF Done:  E(RHF) =  -470.732848813     A.U. after   11 cycles
 E2 =    -0.1583506202D+01 EUMP2 =    -0.47231635501510D+03

 The electronic state is 1-A.
 Alpha  occ. eigenvalues --  -11.21652 -11.21592 -11.21589 -11.21559 -11.21462
 Alpha  occ. eigenvalues --  -11.21389 -11.21381 -11.21318 -11.21115 -11.21081
 Alpha  occ. eigenvalues --  -11.21065 -11.20949  -1.08482  -1.08395  -1.03587
 Alpha  occ. eigenvalues --   -1.03470  -0.96023  -0.95932  -0.87043  -0.86949
 Alpha  occ. eigenvalues --   -0.79676  -0.79523  -0.78310  -0.78202  -0.65112
 Alpha  occ. eigenvalues --   -0.65030  -0.60967  -0.60924  -0.59401  -0.59282
 Alpha  occ. eigenvalues --   -0.57635  -0.57546  -0.55305  -0.55228  -0.52710
 Alpha  occ. eigenvalues --   -0.52628  -0.52473  -0.52334  -0.50031  -0.49864
 Alpha  occ. eigenvalues --   -0.48034  -0.47753  -0.46854  -0.46463  -0.45922
 Alpha  occ. eigenvalues --   -0.45791  -0.45662  -0.45483  -0.43817  -0.43750
 Alpha virt. eigenvalues --    0.20717   0.23327   0.23391   0.24701   0.25305
 Alpha virt. eigenvalues --    0.25964   0.27046   0.27751   0.28418   0.29201
 Alpha virt. eigenvalues --    0.30483   0.31007   0.31216   0.32104   0.32595

 Mulliken charges:
               1
     1  C   -0.298159
     2  C   -0.299665
     3  C   -0.475668
     4  H    0.149032
     5  H    0.149503
     6  H    0.151973
     7  H    0.152001
     8  H    0.155180
     9  H    0.154965
    10  H    0.160265
    11  C   -0.299290
    12  C   -0.300886
    13  C   -0.478440
    14  H    0.150653
    15  H    0.149584
    16  H    0.152427
    17  H    0.151627
    18  H    0.153838
    19  H    0.160846
    20  H    0.159140
    21  C   -0.298057
    22  C   -0.304749
    23  C   -0.475682
    24  H    0.149538
    25  H    0.149680
    26  H    0.154090
    27  H    0.156470
    28  H    0.155178
    29  H    0.154952
    30  H    0.160596
    31  C   -0.299165
    32  C   -0.299545
    33  C   -0.475769
    34  H    0.148952
    35  H    0.149342
    36  H    0.152181
    37  H    0.152270
    38  H    0.155345
    39  H    0.154914
    40  H    0.160533
 Sum of Mulliken charges =  -0.00000

 Dipole moment (field-independent basis, Debye):
    X=              0.0403    Y=              0.0049    Z=              0.0091  Tot=              0.0416
 Quadrupole moment (field-independent basis, Debye-Ang):
   XX=            -84.7706   YY=            -85.7152   ZZ=            -84.3135
   XY=              1.0836   XZ=             -0.2502   YZ=             -0.4035

 Normal termination of Gaussian 16 at Thu May  6 14:51:43 2021.
