 Gaussian 16, Revision A.03,
 Gaussian 16:  EM64L-G16RevA.03 25-Dec-2016

 -------------
 #p 6-31g* mp2
 -------------

 ------------------------------------------------------
 Input file generated by CHIRIPA (05-May-2021 14:57:25)
 ------------------------------------------------------
 Symbolic Z-matrix:
 Charge =  0 Multiplicity = 1

                         Standard orientation:
 ---------------------------------------------------------------------
 Center     Atomic      Atomic             Coordinates (Angstroms)
 Number     Number       Type             X           Y           Z
 ---------------------------------------------------------------------
      1          6           0       -5.028187    1.748280    0.170431
      2          6           0       -4.183137    1.657199   -0.940476
      3          6           0       -3.225757    0.641732   -1.022939
      4          6           0       -3.140496   -0.269815    0.028299
      5          6           0       -3.968039   -0.205501    1.148266
      6          6           0       -4.918135    0.818279    1.209425
      7          1           0       -5.769074    2.540347    0.226215
      8          1           0       -4.266349    2.378059   -1.748858
      9          1           0       -2.558840    0.547898   -1.871370
     10          1           0       -3.861323   -0.938743    1.938446
     11          1           0       -5.573081    0.886569    2.073385
     12          7           0       -2.130816   -1.349245   -0.047724
     13          8           0       -2.075765   -2.139948    0.891634
     14          8           0       -1.413599   -1.384158   -1.045229
     15          6           0        4.266339    2.374674    0.443325
     16          6           0        3.372125    2.201981   -0.618314
     17          6           0        2.834292    0.941702   -0.895766
     18          6           0        3.214149   -0.128777   -0.087635
     19          6           0        4.102798    0.011304    0.977246
     20          6           0        4.628184    1.280713    1.236319
     21          1           0        4.679307    3.357235    0.651718
     22          1           0        3.089323    3.049766   -1.235833
     23          1           0        2.140011    0.779793   -1.711350
     24          1           0        4.365859   -0.852777    1.575226
     25          1           0        5.322432    1.411871    2.061463
     26          7           0        2.651357   -1.467810   -0.371632
     27          8           0        3.001924   -2.394890    0.355185
     28          8           0        1.870331   -1.564912   -1.315669
 ---------------------------------------------------------------------

 SCF Done:  E(RHF) =  -868.334743521     A.U. after   16 cycles
 E2 =    -0.2600788760D+01 EUMP2 =    -0.87093553228058D+03

 The electronic state is 1-A.
 Alpha  occ. eigenvalues --  -20.60071 -20.60006 -20.59692 -20.59568 -15.85102
 Alpha  occ. eigenvalues --  -15.84687 -11.30829 -11.30499 -11.27449 -11.27429
 Alpha  occ. eigenvalues --  -11.27245 -11.27122 -11.27117 -11.26963 -11.26543
 Alpha  occ. eigenvalues --  -11.26519 -11.26256 -11.26233  -1.59117  -1.58693
 Alpha  occ. eigenvalues --   -1.38661  -1.38235  -1.19036  -1.18717  -1.08362
 Alpha  occ. eigenvalues --   -1.08032  -1.04491  -1.04188  -0.95134  -0.94788
 Alpha  occ. eigenvalues --   -0.85871  -0.85564  -0.81966  -0.81617  -0.76959
 Alpha  occ. eigenvalues --   -0.76588  -0.71338  -0.70862  -0.70484  -0.70139
 Alpha  occ. eigenvalues --   -0.70006  -0.69825  -0.64675  -0.64496  -0.64357
 Alpha  occ. eigenvalues --   -0.64202  -0.61835  -0.61530  -0.54978  -0.54684
 Alpha  occ. eigenvalues --   -0.52804  -0.52587  -0.52493  -0.52289  -0.48094
 Alpha  occ. eigenvalues --   -0.48058  -0.47665  -0.47633  -0.44076  -0.43415
 Alpha  occ. eigenvalues --   -0.37037  -0.36724  -0.36114  -0.35814
 Alpha virt. eigenvalues --    0.05546   0.05995   0.11535   0.11836   0.16980
 Alpha virt. eigenvalues --    0.17398   0.21626   0.21908   0.27500   0.27774
 Alpha virt. eigenvalues --    0.28516   0.28883   0.31111   0.31453   0.32719

 Mulliken charges:
               1
     1  C   -0.172045
     2  C   -0.218685
     3  C   -0.172600
     4  C    0.159021
     5  C   -0.171584
     6  C   -0.218498
     7  H    0.223712
     8  H    0.221055
     9  H    0.274874
    10  H    0.275958
    11  H    0.222210
    12  N    0.485637
    13  O   -0.460366
    14  O   -0.448657
    15  C   -0.172360
    16  C   -0.218915
    17  C   -0.171654
    18  C    0.159863
    19  C   -0.171368
    20  C   -0.218660
    21  H    0.222315
    22  H    0.219370
    23  H    0.276254
    24  H    0.275608
    25  H    0.221138
    26  N    0.487379
    27  O   -0.463081
    28  O   -0.445922
 Sum of Mulliken charges =  -0.00000

 Dipole moment (field-independent basis, Debye):
    X=             -1.6195    Y=              8.2255    Z=              1.1372  Tot=              8.4602
 Quadrupole moment (field-independent basis, Debye-Ang):
   XX=            -70.7670   YY=           -108.2548   ZZ=            -98.5932
   XY=              3.1806   XZ=              2.7563   YZ=             -3.7646

 Normal termination of Gaussian 16 at Wed May  5 21:09:05 2021.
