 Gaussian 16, Revision A.03,
 Gaussian 16:  EM64L-G16RevA.03 25-Dec-2016

 -------------
 #p 6-31g* mp2
 -------------

 ------------------------------------------------------
 Input file generated by CHIRIPA (05-May-2021 14:53:13)
 ------------------------------------------------------
 Symbolic Z-matrix:
 Charge =  0 Multiplicity = 1

                         Standard orientation:
 ---------------------------------------------------------------------
 Center     Atomic      Atomic             Coordinates (Angstroms)
 Number     Number       Type             X           Y           Z
 ---------------------------------------------------------------------
      1          6           0       -3.267463    0.628729    0.556148
      2          6           0       -2.837464    1.813882   -0.309010
      3          6           0       -1.957782    2.809673    0.447531
      4          1           0       -3.808002    1.002602    1.436478
      5          1           0       -2.372263    0.115461    0.933730
      6          1           0       -3.733208    2.323937   -0.685976
      7          1           0       -2.298052    1.437133   -1.187481
      8          1           0       -1.047417    2.321468    0.810152
      9          1           0       -2.490727    3.213311    1.314506
     10          1           0       -1.661911    3.648866   -0.189710
     11          6           0       -4.147380   -0.375495   -0.186152
     12          6           0       -4.577380   -1.560647    0.679006
     13          6           0       -5.457062   -2.556438   -0.077535
     14          1           0       -5.042580    0.137773   -0.563734
     15          1           0       -3.606841   -0.749368   -1.066482
     16          1           0       -5.116791   -1.183898    1.557477
     17          1           0       -3.681636   -2.070702    1.055972
     18          1           0       -4.924116   -2.960077   -0.944511
     19          1           0       -6.367426   -2.068234   -0.440156
     20          1           0       -5.752932   -3.395631    0.559705
     21          6           0        4.810482   -1.610398    0.501798
     22          6           0        4.795554   -0.278374    0.928425
     23          6           0        3.740118    0.568158    0.576308
     24          6           0        2.711379    0.047204   -0.207014
     25          6           0        2.697674   -1.275292   -0.647587
     26          6           0        3.763340   -2.103736   -0.283461
     27          1           0        5.634342   -2.260978    0.779995
     28          1           0        5.607432    0.107482    1.538356
     29          1           0        3.703347    1.603453    0.892899
     30          1           0        1.874171   -1.631252   -1.254670
     31          1           0        3.772288   -3.137775   -0.616219
     32          7           0        1.588621    0.933815   -0.586140
     33          8           0        0.694277    0.450641   -1.277030
     34          8           0        1.624207    2.095126   -0.185232
 ---------------------------------------------------------------------

 SCF Done:  E(RHF) =  -669.536403965     A.U. after   15 cycles
 E2 =    -0.2091893125D+01 EUMP2 =    -0.67162829708929D+03

 The electronic state is 1-A.
 Alpha  occ. eigenvalues --  -20.61080 -20.61074 -15.86086 -11.31375 -11.27931
 Alpha  occ. eigenvalues --  -11.27926 -11.27659 -11.26926 -11.26916 -11.20913
 Alpha  occ. eigenvalues --  -11.20536 -11.20423 -11.20159 -11.19897 -11.19174
 Alpha  occ. eigenvalues --   -1.60123  -1.39680  -1.19536  -1.08947  -1.07318
 Alpha  occ. eigenvalues --   -1.04925  -1.02330  -0.95795  -0.94794  -0.86328
 Alpha  occ. eigenvalues --   -0.85823  -0.82628  -0.78476  -0.77688  -0.77054
 Alpha  occ. eigenvalues --   -0.72295  -0.71443  -0.70643  -0.65191  -0.64929
 Alpha  occ. eigenvalues --   -0.63945  -0.62272  -0.59713  -0.58266  -0.56386
 Alpha  occ. eigenvalues --   -0.55435  -0.54095  -0.53255  -0.53016  -0.51497
 Alpha  occ. eigenvalues --   -0.51241  -0.49201  -0.49061  -0.48592  -0.46762
 Alpha  occ. eigenvalues --   -0.45562  -0.45051  -0.44599  -0.44408  -0.42600
 Alpha  occ. eigenvalues --   -0.37511  -0.36524
 Alpha virt. eigenvalues --    0.04801   0.11132   0.16301   0.21266   0.23877
 Alpha virt. eigenvalues --    0.25570   0.27196   0.27653   0.28223   0.28544
 Alpha virt. eigenvalues --    0.29211   0.30853   0.32361   0.32585   0.32711

 Mulliken charges:
               1
     1  C   -0.296105
     2  C   -0.303014
     3  C   -0.472255
     4  H    0.144077
     5  H    0.147863
     6  H    0.142652
     7  H    0.168891
     8  H    0.166216
     9  H    0.141735
    10  H    0.160998
    11  C   -0.297955
    12  C   -0.298404
    13  C   -0.474938
    14  H    0.147169
    15  H    0.151520
    16  H    0.150172
    17  H    0.149157
    18  H    0.153936
    19  H    0.154604
    20  H    0.157006
    21  C   -0.170385
    22  C   -0.218578
    23  C   -0.170624
    24  C    0.158757
    25  C   -0.170821
    26  C   -0.218569
    27  H    0.226338
    28  H    0.224181
    29  H    0.276203
    30  H    0.275728
    31  H    0.224117
    32  N    0.487642
    33  O   -0.460321
    34  O   -0.456991
 Sum of Mulliken charges =  -0.00000

 Dipole moment (field-independent basis, Debye):
    X=              4.3948    Y=             -3.1039    Z=              1.2083  Tot=              5.5144
 Quadrupole moment (field-independent basis, Debye-Ang):
   XX=            -73.8216   YY=            -93.2537   ZZ=            -94.9340
   XY=             -7.5152   XZ=              4.0857   YZ=              2.5515

 Normal termination of Gaussian 16 at Thu May  6 13:43:11 2021.
