 Gaussian 16, Revision A.03,
 Gaussian 16:  EM64L-G16RevA.03 25-Dec-2016

 -------------
 #p 6-31g* mp2
 -------------

 ------------------------------------------------------
 Input file generated by CHIRIPA (05-May-2021 14:57:22)
 ------------------------------------------------------
 Symbolic Z-matrix:
 Charge =  0 Multiplicity = 1

                         Standard orientation:
 ---------------------------------------------------------------------
 Center     Atomic      Atomic             Coordinates (Angstroms)
 Number     Number       Type             X           Y           Z
 ---------------------------------------------------------------------
      1          6           0       -2.246158    2.516522   -0.276128
      2          6           0       -1.197379    1.661380    0.077871
      3          6           0       -1.423039    0.291564    0.242879
      4          6           0       -2.715697   -0.191360    0.045116
      5          6           0       -3.781307    0.635130   -0.307986
      6          6           0       -3.532507    2.001575   -0.467589
      7          1           0       -2.061872    3.579319   -0.402211
      8          1           0       -0.197363    2.058508    0.227210
      9          1           0       -0.629361   -0.392967    0.516576
     10          1           0       -4.767416    0.209889   -0.450028
     11          1           0       -4.348916    2.663330   -0.742547
     12          7           0       -2.966842   -1.639739    0.216942
     13          8           0       -4.114756   -2.040404    0.036949
     14          8           0       -2.011020   -2.346888    0.528359
     15          6           0        2.557249    2.424098    0.477331
     16          6           0        2.520549    1.498238    1.525165
     17          6           0        2.584723    0.126466    1.263118
     18          6           0        2.685622   -0.286281   -0.064568
     19          6           0        2.724446    0.611593   -1.130216
     20          6           0        2.658901    1.978606   -0.844685
     21          1           0        2.506864    3.487875    0.690016
     22          1           0        2.441639    1.841337    2.552833
     23          1           0        2.558303   -0.611995    2.055201
     24          1           0        2.803477    0.239259   -2.144385
     25          1           0        2.687612    2.695367   -1.660451
     26          7           0        2.754285   -1.735996   -0.354415
     27          8           0        2.842867   -2.074030   -1.532772
     28          8           0        2.718224   -2.506797    0.602246
 ---------------------------------------------------------------------

 SCF Done:  E(RHF) =  -868.335898159     A.U. after   16 cycles
 E2 =    -0.2603712580D+01 EUMP2 =    -0.87093961073883D+03

 The electronic state is 1-A.
 Alpha  occ. eigenvalues --  -20.61163 -20.61137 -20.60541 -20.60512 -15.86223
 Alpha  occ. eigenvalues --  -15.85581 -11.32051 -11.31081 -11.28609 -11.28593
 Alpha  occ. eigenvalues --  -11.28430 -11.27737 -11.27722 -11.27660 -11.27608
 Alpha  occ. eigenvalues --  -11.27453 -11.26740 -11.26562  -1.60218  -1.59604
 Alpha  occ. eigenvalues --   -1.39758  -1.39152  -1.20276  -1.19258  -1.09590
 Alpha  occ. eigenvalues --   -1.08643  -1.05682  -1.04669  -0.96325  -0.95457
 Alpha  occ. eigenvalues --   -0.87051  -0.86077  -0.83117  -0.82275  -0.78081
 Alpha  occ. eigenvalues --   -0.77304  -0.72422  -0.71796  -0.71560  -0.71312
 Alpha  occ. eigenvalues --   -0.70932  -0.70405  -0.65866  -0.65633  -0.64907
 Alpha  occ. eigenvalues --   -0.64719  -0.62969  -0.62087  -0.56168  -0.55301
 Alpha  occ. eigenvalues --   -0.54017  -0.53725  -0.53013  -0.52642  -0.49216
 Alpha  occ. eigenvalues --   -0.49153  -0.48567  -0.48547  -0.45053  -0.44527
 Alpha  occ. eigenvalues --   -0.38274  -0.37436  -0.37236  -0.36200
 Alpha virt. eigenvalues --    0.04381   0.05221   0.10178   0.11438   0.15738
 Alpha virt. eigenvalues --    0.16683   0.20545   0.21637   0.26568   0.27239
 Alpha virt. eigenvalues --    0.27429   0.28279   0.30290   0.31395   0.31864

 Mulliken charges:
               1
     1  C   -0.175375
     2  C   -0.225130
     3  C   -0.177863
     4  C    0.160134
     5  C   -0.171608
     6  C   -0.218115
     7  H    0.220726
     8  H    0.231920
     9  H    0.275599
    10  H    0.275568
    11  H    0.222109
    12  N    0.487471
    13  O   -0.461434
    14  O   -0.455610
    15  C   -0.189593
    16  C   -0.217593
    17  C   -0.177012
    18  C    0.157926
    19  C   -0.169525
    20  C   -0.217450
    21  H    0.227366
    22  H    0.228481
    23  H    0.282541
    24  H    0.280519
    25  H    0.226651
    26  N    0.488416
    27  O   -0.456418
    28  O   -0.452698
 Sum of Mulliken charges =  -0.00000

 Dipole moment (field-independent basis, Debye):
    X=              1.0008    Y=              9.8914    Z=              0.4041  Tot=              9.9501
 Quadrupole moment (field-independent basis, Debye-Ang):
   XX=           -106.5964   YY=           -110.6967   ZZ=           -100.5023
   XY=             -0.9611   XZ=              5.3945   YZ=             -1.6291

 Normal termination of Gaussian 16 at Fri May  7 07:55:08 2021.
