 Gaussian 16, Revision A.03,
 Gaussian 16:  EM64L-G16RevA.03 25-Dec-2016

 -------------
 #p 6-31g* mp2
 -------------

 ------------------------------------------------------
 Input file generated by CHIRIPA (05-May-2021 14:53:14)
 ------------------------------------------------------
 Symbolic Z-matrix:
 Charge =  0 Multiplicity = 1

                         Standard orientation:
 ---------------------------------------------------------------------
 Center     Atomic      Atomic             Coordinates (Angstroms)
 Number     Number       Type             X           Y           Z
 ---------------------------------------------------------------------
      1          6           0       -1.944710    1.158979   -0.580000
      2          6           0       -1.688914    2.523665    0.060457
      3          6           0       -0.651095    3.348841   -0.700994
      4          1           0       -0.998812    0.602704   -0.632737
      5          1           0       -2.279618    1.305045   -1.616290
      6          1           0       -1.355915    2.375111    1.095667
      7          1           0       -2.635566    3.076680    0.111850
      8          1           0       -0.979768    3.526395   -1.730096
      9          1           0        0.307153    2.820839   -0.740689
     10          1           0       -0.483632    4.320498   -0.225915
     11          6           0       -2.979865    0.322339    0.169811
     12          6           0       -3.235660   -1.042347   -0.470647
     13          6           0       -4.273480   -1.867523    0.290804
     14          1           0       -2.644957    0.176273    1.206100
     15          1           0       -3.925762    0.878614    0.222548
     16          1           0       -2.289009   -1.595362   -0.522040
     17          1           0       -3.568660   -0.893793   -1.505857
     18          1           0       -5.231728   -1.339521    0.330499
     19          1           0       -3.944807   -2.045076    1.319906
     20          1           0       -4.440943   -2.839179   -0.184275
     21          6           0        2.589207    1.828234    0.520685
     22          6           0        3.168274    1.089640   -0.516465
     23          6           0        2.807073   -0.244675   -0.725474
     24          6           0        1.859319   -0.811328    0.125383
     25          6           0        1.264508   -0.101604    1.167391
     26          6           0        1.640844    1.231308    1.357827
     27          1           0        2.875676    2.864218    0.675835
     28          1           0        3.905051    1.550624   -1.168153
     29          1           0        3.239597   -0.839549   -1.520752
     30          1           0        0.532854   -0.588501    1.800662
     31          1           0        1.189480    1.802491    2.164093
     32          7           0        1.468921   -2.223164   -0.086054
     33          8           0        0.631582   -2.699282    0.677368
     34          8           0        2.007656   -2.826912   -1.011198
 ---------------------------------------------------------------------

 SCF Done:  E(RHF) =  -669.534293781     A.U. after   15 cycles
 E2 =    -0.2096133387D+01 EUMP2 =    -0.67163042716798D+03

 The electronic state is 1-A.
 Alpha  occ. eigenvalues --  -20.60972 -20.60964 -15.86008 -11.31373 -11.27944
 Alpha  occ. eigenvalues --  -11.27933 -11.27648 -11.26941 -11.26912 -11.21872
 Alpha  occ. eigenvalues --  -11.21360 -11.21285 -11.21277 -11.21151 -11.20619
 Alpha  occ. eigenvalues --   -1.60033  -1.39586  -1.19566  -1.08958  -1.08378
 Alpha  occ. eigenvalues --   -1.04956  -1.03440  -0.95948  -0.95744  -0.86937
 Alpha  occ. eigenvalues --   -0.86344  -0.82605  -0.79550  -0.78160  -0.77653
 Alpha  occ. eigenvalues --   -0.72223  -0.71353  -0.70650  -0.65200  -0.65089
 Alpha  occ. eigenvalues --   -0.64928  -0.62283  -0.60890  -0.59314  -0.57509
 Alpha  occ. eigenvalues --   -0.55455  -0.55241  -0.53288  -0.53027  -0.52609
 Alpha  occ. eigenvalues --   -0.52323  -0.49889  -0.48988  -0.48980  -0.47825
 Alpha  occ. eigenvalues --   -0.46548  -0.45707  -0.45630  -0.44908  -0.43708
 Alpha  occ. eigenvalues --   -0.37429  -0.36503
 Alpha virt. eigenvalues --    0.04835   0.11015   0.16224   0.20195   0.23119
 Alpha virt. eigenvalues --    0.24280   0.25577   0.26915   0.27460   0.28542
 Alpha virt. eigenvalues --    0.29408   0.29868   0.31585   0.31904   0.32072

 Mulliken charges:
               1
     1  C   -0.302801
     2  C   -0.295716
     3  C   -0.484651
     4  H    0.153419
     5  H    0.150546
     6  H    0.140525
     7  H    0.153356
     8  H    0.156503
     9  H    0.162605
    10  H    0.153361
    11  C   -0.297380
    12  C   -0.303711
    13  C   -0.474872
    14  H    0.143747
    15  H    0.148680
    16  H    0.163687
    17  H    0.150278
    18  H    0.151429
    19  H    0.156127
    20  H    0.163209
    21  C   -0.174317
    22  C   -0.217756
    23  C   -0.170712
    24  C    0.159758
    25  C   -0.173057
    26  C   -0.213024
    27  H    0.228307
    28  H    0.224858
    29  H    0.276530
    30  H    0.276658
    31  H    0.225655
    32  N    0.487962
    33  O   -0.460370
    34  O   -0.458833
 Sum of Mulliken charges =  -0.00000

 Dipole moment (field-independent basis, Debye):
    X=              1.5620    Y=              4.7851    Z=              0.7059  Tot=              5.0828
 Quadrupole moment (field-independent basis, Debye-Ang):
   XX=            -88.0275   YY=           -104.1903   ZZ=            -91.7908
   XY=              7.6631   XZ=             -0.3879   YZ=              0.4139

 Normal termination of Gaussian 16 at Thu May  6 01:04:59 2021.
