 Gaussian 16, Revision A.03,
 Gaussian 16:  EM64L-G16RevA.03 25-Dec-2016

 -------------
 #p 6-31g* mp2
 -------------

 ------------------------------------------------------
 Input file generated by CHIRIPA (05-May-2021 14:51:12)
 ------------------------------------------------------
 Symbolic Z-matrix:
 Charge =  0 Multiplicity = 1

                         Standard orientation:
 ---------------------------------------------------------------------
 Center     Atomic      Atomic             Coordinates (Angstroms)
 Number     Number       Type             X           Y           Z
 ---------------------------------------------------------------------
      1          6           0        3.145629    1.116950    0.234339
      2          6           0        2.323540    2.338801   -0.177042
      3          6           0        2.695037    3.594356    0.612494
      4          1           0        3.003772    0.932052    1.307947
      5          1           0        4.212845    1.337405    0.093471
      6          1           0        1.258119    2.115617   -0.036746
      7          1           0        2.467220    2.520697   -1.249835
      8          1           0        3.750475    3.844567    0.464020
      9          1           0        2.534504    3.437186    1.684001
     10          1           0        2.095287    4.455734    0.302351
     11          6           0        2.785772   -0.146052   -0.546083
     12          6           0        3.607861   -1.367904   -0.134702
     13          6           0        3.236364   -2.623458   -0.924238
     14          1           0        1.718555   -0.366507   -0.405215
     15          1           0        2.927629    0.038846   -1.619691
     16          1           0        3.464180   -1.549799    0.938091
     17          1           0        4.673282   -1.144719   -0.274998
     18          1           0        3.396897   -2.466288   -1.995745
     19          1           0        2.180925   -2.873670   -0.775764
     20          1           0        3.836113   -3.484837   -0.614095
     21          6           0       -2.622527   -0.960001    0.646244
     22          6           0       -1.239634   -1.417012    0.180698
     23          6           0       -0.565787   -2.365941    1.172291
     24          1           0       -2.528832   -0.465901    1.622989
     25          1           0       -3.259312   -1.841863    0.801862
     26          1           0       -0.606070   -0.534475    0.024674
     27          1           0       -1.336603   -1.909911   -0.795141
     28          1           0       -1.174592   -3.263638    1.320952
     29          1           0       -0.439907   -1.880387    2.145427
     30          1           0        0.421529   -2.680166    0.819684
     31          6           0       -3.308874   -0.010897   -0.334500
     32          6           0       -4.691767    0.446114    0.131046
     33          6           0       -5.365615    1.395045   -0.860547
     34          1           0       -2.672088    0.870965   -0.490119
     35          1           0       -3.402568   -0.504997   -1.311246
     36          1           0       -4.594796    0.939014    1.106885
     37          1           0       -5.325331   -0.436422    0.287069
     38          1           0       -5.491494    0.909490   -1.833682
     39          1           0       -4.756809    2.292740   -1.009208
     40          1           0       -6.352929    1.709268   -0.507940
 ---------------------------------------------------------------------

 SCF Done:  E(RHF) =  -470.732691731     A.U. after   11 cycles
 E2 =    -0.1584099610D+01 EUMP2 =    -0.47231679134148D+03

 The electronic state is 1-A.
 Alpha  occ. eigenvalues --  -11.21670 -11.21632 -11.21627 -11.21587 -11.21450
 Alpha  occ. eigenvalues --  -11.21388 -11.21386 -11.21305 -11.21138 -11.21094
 Alpha  occ. eigenvalues --  -11.21088 -11.21067  -1.08493  -1.08415  -1.03605
 Alpha  occ. eigenvalues --   -1.03519  -0.96036  -0.95981  -0.87061  -0.86987
 Alpha  occ. eigenvalues --   -0.79658  -0.79597  -0.78364  -0.78168  -0.65236
 Alpha  occ. eigenvalues --   -0.64976  -0.61053  -0.60955  -0.59446  -0.59268
 Alpha  occ. eigenvalues --   -0.57650  -0.57577  -0.55386  -0.55232  -0.52749
 Alpha  occ. eigenvalues --   -0.52679  -0.52500  -0.52340  -0.49982  -0.49930
 Alpha  occ. eigenvalues --   -0.47971  -0.47891  -0.46803  -0.46608  -0.46036
 Alpha  occ. eigenvalues --   -0.45799  -0.45753  -0.45298  -0.43824  -0.43780
 Alpha virt. eigenvalues --    0.20120   0.22685   0.23489   0.24531   0.25722
 Alpha virt. eigenvalues --    0.26725   0.26931   0.27406   0.28145   0.29446
 Alpha virt. eigenvalues --    0.30414   0.31484   0.31592   0.31773   0.32387

 Mulliken charges:
               1
     1  C   -0.297722
     2  C   -0.300393
     3  C   -0.475690
     4  H    0.149446
     5  H    0.149573
     6  H    0.151140
     7  H    0.152288
     8  H    0.155479
     9  H    0.155116
    10  H    0.160180
    11  C   -0.308500
    12  C   -0.299336
    13  C   -0.480806
    14  H    0.160520
    15  H    0.149393
    16  H    0.152185
    17  H    0.152049
    18  H    0.155556
    19  H    0.158965
    20  H    0.160420
    21  C   -0.297587
    22  C   -0.305353
    23  C   -0.483267
    24  H    0.149602
    25  H    0.149834
    26  H    0.155901
    27  H    0.152610
    28  H    0.156154
    29  H    0.155182
    30  H    0.166587
    31  C   -0.298429
    32  C   -0.299700
    33  C   -0.475754
    34  H    0.149533
    35  H    0.149947
    36  H    0.151950
    37  H    0.152020
    38  H    0.155273
    39  H    0.155290
    40  H    0.160341
 Sum of Mulliken charges =  -0.00000

 Dipole moment (field-independent basis, Debye):
    X=             -0.0210    Y=             -0.0098    Z=             -0.0067  Tot=              0.0241
 Quadrupole moment (field-independent basis, Debye-Ang):
   XX=            -84.5227   YY=            -85.5401   ZZ=            -84.6726
   XY=              0.8143   XZ=             -0.7337   YZ=              0.1638

 Normal termination of Gaussian 16 at Thu May  6 05:31:53 2021.
