 Gaussian 16, Revision A.03,
 Gaussian 16:  EM64L-G16RevA.03 25-Dec-2016

 -------------
 #p 6-31g* mp2
 -------------

 ------------------------------------------------------
 Input file generated by CHIRIPA (05-May-2021 14:57:26)
 ------------------------------------------------------
 Symbolic Z-matrix:
 Charge =  0 Multiplicity = 1

                         Standard orientation:
 ---------------------------------------------------------------------
 Center     Atomic      Atomic             Coordinates (Angstroms)
 Number     Number       Type             X           Y           Z
 ---------------------------------------------------------------------
      1          6           0        3.774316    2.576321   -0.078431
      2          6           0        2.602072    2.119988    0.533227
      3          6           0        2.344096    0.750138    0.640498
      4          6           0        3.284276   -0.139488    0.122890
      5          6           0        4.461417    0.284133   -0.492069
      6          6           0        4.698618    1.658555   -0.588227
      7          1           0        3.966648    3.642230   -0.157445
      8          1           0        1.882464    2.830446    0.930037
      9          1           0        1.444707    0.369475    1.109127
     10          1           0        5.159973   -0.448225   -0.878190
     11          1           0        5.609849    2.010079   -1.063762
     12          7           0        3.022166   -1.592107    0.230571
     13          8           0        3.866324   -2.355490   -0.233412
     14          8           0        1.977528   -1.939782    0.776915
     15          6           0       -4.950094    1.825043    0.060826
     16          6           0       -5.419871    0.508131    0.100486
     17          6           0       -4.529919   -0.566220    0.009374
     18          6           0       -3.170607   -0.286020   -0.121188
     19          6           0       -2.671775    1.014998   -0.163735
     20          6           0       -3.579961    2.073835   -0.070925
     21          1           0       -5.648512    2.653599    0.132264
     22          1           0       -6.483400    0.311927    0.202741
     23          1           0       -4.866447   -1.595483    0.037400
     24          1           0       -1.605960    1.179084   -0.266356
     25          1           0       -3.212277    3.095543   -0.102006
     26          7           0       -2.218802   -1.415175   -0.218542
     27          8           0       -1.026006   -1.141723   -0.332987
     28          8           0       -2.683597   -2.552278   -0.178561
 ---------------------------------------------------------------------

 SCF Done:  E(RHF) =  -868.335486083     A.U. after   16 cycles
 E2 =    -0.2601095999D+01 EUMP2 =    -0.87093658208221D+03

 The electronic state is 1-A.
 Alpha  occ. eigenvalues --  -20.60475 -20.60460 -20.59777 -20.59632 -15.85527
 Alpha  occ. eigenvalues --  -15.84759 -11.31179 -11.30520 -11.27840 -11.27736
 Alpha  occ. eigenvalues --  -11.27550 -11.27176 -11.27125 -11.27035 -11.26889
 Alpha  occ. eigenvalues --  -11.26811 -11.26320 -11.26272  -1.59529  -1.58773
 Alpha  occ. eigenvalues --   -1.39083  -1.38309  -1.19372  -1.18755  -1.08706
 Alpha  occ. eigenvalues --   -1.08085  -1.04823  -1.04229  -0.95497  -0.94844
 Alpha  occ. eigenvalues --   -0.86206  -0.85602  -0.82336  -0.81681  -0.77356
 Alpha  occ. eigenvalues --   -0.76634  -0.71753  -0.70982  -0.70843  -0.70480
 Alpha  occ. eigenvalues --   -0.70087  -0.69868  -0.65021  -0.64830  -0.64404
 Alpha  occ. eigenvalues --   -0.64253  -0.62182  -0.61558  -0.55299  -0.54740
 Alpha  occ. eigenvalues --   -0.53126  -0.52925  -0.52529  -0.52334  -0.48502
 Alpha  occ. eigenvalues --   -0.48478  -0.47785  -0.47693  -0.44426  -0.43589
 Alpha  occ. eigenvalues --   -0.37354  -0.36768  -0.36439  -0.35850
 Alpha virt. eigenvalues --    0.05184   0.05905   0.11209   0.11796   0.16627
 Alpha virt. eigenvalues --    0.17286   0.20838   0.21979   0.26215   0.27575
 Alpha virt. eigenvalues --    0.28284   0.29151   0.30870   0.31412   0.32185

 Mulliken charges:
               1
     1  C   -0.171570
     2  C   -0.221187
     3  C   -0.169661
     4  C    0.158995
     5  C   -0.170893
     6  C   -0.219039
     7  H    0.221700
     8  H    0.215526
     9  H    0.282905
    10  H    0.275150
    11  H    0.221091
    12  N    0.486940
    13  O   -0.466701
    14  O   -0.443919
    15  C   -0.171462
    16  C   -0.218088
    17  C   -0.170676
    18  C    0.160211
    19  C   -0.172218
    20  C   -0.217948
    21  H    0.224984
    22  H    0.223881
    23  H    0.277241
    24  H    0.268962
    25  H    0.220069
    26  N    0.488788
    27  O   -0.456373
    28  O   -0.456708
 Sum of Mulliken charges =  -0.00000

 Dipole moment (field-independent basis, Debye):
    X=             -2.6282    Y=              8.7051    Z=             -0.0062  Tot=              9.0932
 Quadrupole moment (field-independent basis, Debye-Ang):
   XX=            -72.0811   YY=           -107.6189   ZZ=           -105.5425
   XY=              6.7898   XZ=             -4.4627   YZ=              0.2232

 Normal termination of Gaussian 16 at Thu May  6 19:44:35 2021.
