 Gaussian 16, Revision A.03,
 Gaussian 16:  EM64L-G16RevA.03 25-Dec-2016

 -------------
 #p 6-31g* mp2
 -------------

 ------------------------------------------------------
 Input file generated by CHIRIPA (05-May-2021 14:53:14)
 ------------------------------------------------------
 Symbolic Z-matrix:
 Charge =  0 Multiplicity = 1

                         Standard orientation:
 ---------------------------------------------------------------------
 Center     Atomic      Atomic             Coordinates (Angstroms)
 Number     Number       Type             X           Y           Z
 ---------------------------------------------------------------------
      1          6           0        3.236952   -0.552033    0.266209
      2          6           0        4.150796   -1.666545   -0.244416
      3          6           0        3.581956   -3.062148    0.013472
      4          1           0        3.069963   -0.688172    1.343486
      5          1           0        2.254045   -0.643316   -0.216445
      6          1           0        5.132121   -1.572356    0.238021
      7          1           0        4.315784   -1.527627   -1.320566
      8          1           0        2.612715   -3.180634   -0.481638
      9          1           0        3.433690   -3.225617    1.085804
     10          1           0        4.251233   -3.843696   -0.359502
     11          6           0        3.792005    0.848998    0.015698
     12          6           0        2.878160    1.963509    0.526324
     13          6           0        3.447001    3.359112    0.268435
     14          1           0        4.774912    0.940280    0.498353
     15          1           0        3.958994    0.985136   -1.061579
     16          1           0        2.713172    1.824592    1.602473
     17          1           0        1.896836    1.869320    0.043886
     18          1           0        3.595266    3.522581   -0.803897
     19          1           0        4.416241    3.477599    0.763546
     20          1           0        2.777724    4.140661    0.641409
     21          6           0       -5.193260    0.299184    0.340351
     22          6           0       -4.620908   -0.934687    0.666688
     23          6           0       -3.265801   -1.175821    0.421562
     24          6           0       -2.509064   -0.156140   -0.153670
     25          6           0       -3.050287    1.083715   -0.490014
     26          6           0       -4.407508    1.302677   -0.235943
     27          1           0       -6.246762    0.477891    0.534246
     28          1           0       -5.228718   -1.715852    1.114344
     29          1           0       -2.797093   -2.121761    0.664313
     30          1           0       -2.418929    1.843049   -0.935231
     31          1           0       -4.849319    2.261891   -0.490418
     32          7           0       -1.073354   -0.399682   -0.417910
     33          8           0       -0.428164    0.515010   -0.925558
     34          8           0       -0.620418   -1.500651   -0.112369
 ---------------------------------------------------------------------

 SCF Done:  E(RHF) =  -669.537336472     A.U. after   15 cycles
 E2 =    -0.2092662945D+01 EUMP2 =    -0.67162999941699D+03

 The electronic state is 1-A.
 Alpha  occ. eigenvalues --  -20.61273 -20.61262 -15.86235 -11.31458 -11.27999
 Alpha  occ. eigenvalues --  -11.27995 -11.27718 -11.26980 -11.26971 -11.20095
 Alpha  occ. eigenvalues --  -11.20043 -11.19957 -11.19834 -11.19616 -11.19405
 Alpha  occ. eigenvalues --   -1.60281  -1.39843  -1.19608  -1.09034  -1.06813
 Alpha  occ. eigenvalues --   -1.04986  -1.02070  -0.95892  -0.94531  -0.86392
 Alpha  occ. eigenvalues --   -0.85554  -0.82733  -0.78134  -0.77796  -0.76588
 Alpha  occ. eigenvalues --   -0.72448  -0.71569  -0.70717  -0.65266  -0.64991
 Alpha  occ. eigenvalues --   -0.63436  -0.62333  -0.59469  -0.57916  -0.56146
 Alpha  occ. eigenvalues --   -0.55498  -0.53818  -0.53324  -0.53076  -0.51301
 Alpha  occ. eigenvalues --   -0.50963  -0.49303  -0.49218  -0.48456  -0.46474
 Alpha  occ. eigenvalues --   -0.45405  -0.44982  -0.44199  -0.43797  -0.42272
 Alpha  occ. eigenvalues --   -0.37579  -0.36580
 Alpha virt. eigenvalues --    0.04698   0.11077   0.16199   0.21203   0.24495
 Alpha virt. eigenvalues --    0.25659   0.27150   0.27932   0.28334   0.29221
 Alpha virt. eigenvalues --    0.29613   0.30902   0.32222   0.32772   0.33001

 Mulliken charges:
               1
     1  C   -0.310986
     2  C   -0.297859
     3  C   -0.476175
     4  H    0.141735
     5  H    0.182311
     6  H    0.144448
     7  H    0.148605
     8  H    0.165726
     9  H    0.151066
    10  H    0.152179
    11  C   -0.294803
    12  C   -0.309422
    13  C   -0.474164
    14  H    0.141309
    15  H    0.146942
    16  H    0.144571
    17  H    0.174972
    18  H    0.153225
    19  H    0.150678
    20  H    0.153776
    21  C   -0.170166
    22  C   -0.218651
    23  C   -0.170313
    24  C    0.159200
    25  C   -0.170359
    26  C   -0.218621
    27  H    0.226631
    28  H    0.224448
    29  H    0.276346
    30  H    0.276060
    31  H    0.224453
    32  N    0.490624
    33  O   -0.460504
    34  O   -0.457284
 Sum of Mulliken charges =  -0.00000

 Dipole moment (field-independent basis, Debye):
    X=             -5.7042    Y=              0.7588    Z=              0.7990  Tot=              5.8097
 Quadrupole moment (field-independent basis, Debye-Ang):
   XX=            -71.7599   YY=            -92.9396   ZZ=            -94.5151
   XY=             -1.3856   XZ=             -1.8171   YZ=             -2.3622

 Normal termination of Gaussian 16 at Thu May  6 07:25:51 2021.
