 Gaussian 16, Revision A.03,
 Gaussian 16:  EM64L-G16RevA.03 25-Dec-2016

 -------------
 #p 6-31g* mp2
 -------------

 ------------------------------------------------------
 Input file generated by CHIRIPA (05-May-2021 14:55:23)
 ------------------------------------------------------
 Symbolic Z-matrix:
 Charge =  0 Multiplicity = 1

                         Standard orientation:
 ---------------------------------------------------------------------
 Center     Atomic      Atomic             Coordinates (Angstroms)
 Number     Number       Type             X           Y           Z
 ---------------------------------------------------------------------
      1          6           0        3.413110   -1.978812   -0.946322
      2          6           0        4.340718   -0.934942   -1.026325
      3          6           0        4.021506    0.337208   -0.542293
      4          6           0        2.759874    0.531078    0.018054
      5          6           0        1.814119   -0.488725    0.112072
      6          6           0        2.154989   -1.752771   -0.378380
      7          1           0        3.669494   -2.963901   -1.324823
      8          1           0        5.318543   -1.107591   -1.466887
      9          1           0        4.720607    1.163188   -0.591604
     10          1           0        0.847301   -0.286076    0.556613
     11          1           0        1.432603   -2.561583   -0.314925
     12          7           0        2.410474    1.873557    0.533875
     13          8           0        1.292282    2.018570    1.023011
     14          8           0        3.261423    2.755358    0.439272
     15          6           0       -3.396868   -1.063309    0.393946
     16          6           0       -1.893166   -1.166577    0.651245
     17          6           0       -1.489592   -2.506146    1.268074
     18          1           0       -3.935267   -1.209885    1.340300
     19          1           0       -3.705085   -1.881947   -0.271057
     20          1           0       -1.587631   -0.347176    1.314455
     21          1           0       -1.358276   -1.019548   -0.295798
     22          1           0       -1.766378   -3.333694    0.606898
     23          1           0       -1.997037   -2.657501    2.226299
     24          1           0       -0.410561   -2.558468    1.443613
     25          6           0       -3.815828    0.270166   -0.222530
     26          6           0       -5.319529    0.373435   -0.479830
     27          6           0       -5.723103    1.713003   -1.096659
     28          1           0       -3.507610    1.088805    0.442472
     29          1           0       -3.277428    0.416743   -1.168885
     30          1           0       -5.854420    0.226405    0.467213
     31          1           0       -5.625064   -0.445967   -1.143039
     32          1           0       -5.215659    1.864358   -2.054883
     33          1           0       -5.446317    2.540551   -0.435482
     34          1           0       -6.802134    1.765324   -1.272199
 ---------------------------------------------------------------------

 SCF Done:  E(RHF) =  -669.535118192     A.U. after   15 cycles
 E2 =    -0.2092689965D+01 EUMP2 =    -0.67162780815753D+03

 The electronic state is 1-A.
 Alpha  occ. eigenvalues --  -20.60723 -20.60718 -15.85772 -11.31097 -11.27695
 Alpha  occ. eigenvalues --  -11.27596 -11.27432 -11.26705 -11.26655 -11.22187
 Alpha  occ. eigenvalues --  -11.21882 -11.21702 -11.21609 -11.21408 -11.20985
 Alpha  occ. eigenvalues --   -1.59796  -1.39350  -1.19282  -1.08695  -1.08683
 Alpha  occ. eigenvalues --   -1.04695  -1.03848  -0.96299  -0.95522  -0.87310
 Alpha  occ. eigenvalues --   -0.86082  -0.82362  -0.79971  -0.78457  -0.77392
 Alpha  occ. eigenvalues --   -0.71994  -0.71118  -0.70402  -0.65319  -0.64937
 Alpha  occ. eigenvalues --   -0.64689  -0.62210  -0.61221  -0.59605  -0.57858
 Alpha  occ. eigenvalues --   -0.55554  -0.55169  -0.53107  -0.52992  -0.52836
 Alpha  occ. eigenvalues --   -0.52607  -0.50208  -0.48749  -0.48747  -0.48224
 Alpha  occ. eigenvalues --   -0.46955  -0.45979  -0.45859  -0.44763  -0.44075
 Alpha  occ. eigenvalues --   -0.37272  -0.36274
 Alpha virt. eigenvalues --    0.05094   0.11356   0.16529   0.20112   0.22891
 Alpha virt. eigenvalues --    0.23957   0.26192   0.26407   0.26998   0.28200
 Alpha virt. eigenvalues --    0.29717   0.29953   0.31133   0.31598   0.31977

 Mulliken charges:
               1
     1  C   -0.170532
     2  C   -0.219244
     3  C   -0.170023
     4  C    0.157924
     5  C   -0.181169
     6  C   -0.227645
     7  H    0.225423
     8  H    0.223118
     9  H    0.275308
    10  H    0.293072
    11  H    0.228008
    12  N    0.487534
    13  O   -0.461221
    14  O   -0.460636
    15  C   -0.296294
    16  C   -0.315119
    17  C   -0.480999
    18  H    0.151997
    19  H    0.148828
    20  H    0.164207
    21  H    0.149012
    22  H    0.155558
    23  H    0.162940
    24  H    0.152904
    25  C   -0.300037
    26  C   -0.300155
    27  C   -0.476030
    28  H    0.156593
    29  H    0.150353
    30  H    0.152187
    31  H    0.150533
    32  H    0.155594
    33  H    0.158015
    34  H    0.159995
 Sum of Mulliken charges =  -0.00000

 Dipole moment (field-independent basis, Debye):
    X=              1.0340    Y=             -4.6380    Z=             -1.7655  Tot=              5.0692
 Quadrupole moment (field-independent basis, Debye-Ang):
   XX=            -83.7545   YY=           -100.6163   ZZ=            -94.4904
   XY=            -10.5824   XZ=             -7.0559   YZ=             -0.7718

 Normal termination of Gaussian 16 at Thu May  6 10:59:26 2021.
