 Gaussian 16, Revision A.03,
 Gaussian 16:  EM64L-G16RevA.03 25-Dec-2016

 -------------
 #p 6-31g* mp2
 -------------

 ------------------------------------------------------
 Input file generated by CHIRIPA (05-May-2021 14:55:24)
 ------------------------------------------------------
 Symbolic Z-matrix:
 Charge =  0 Multiplicity = 1

                         Standard orientation:
 ---------------------------------------------------------------------
 Center     Atomic      Atomic             Coordinates (Angstroms)
 Number     Number       Type             X           Y           Z
 ---------------------------------------------------------------------
      1          6           0        1.397700    2.863434    0.495981
      2          6           0        1.679302    1.957251    1.523626
      3          6           0        2.155913    0.676212    1.229810
      4          6           0        2.340190    0.333148   -0.108711
      5          6           0        2.068720    1.213619   -1.154829
      6          6           0        1.592964    2.489385   -0.837615
      7          1           0        1.027789    3.856528    0.733313
      8          1           0        1.528607    2.245003    2.560224
      9          1           0        2.381946   -0.045073    2.005746
     10          1           0        2.228949    0.897916   -2.178585
     11          1           0        1.375111    3.191069   -1.637756
     12          7           0        2.844305   -1.020240   -0.432146
     13          8           0        2.998203   -1.298117   -1.619469
     14          8           0        3.075985   -1.777522    0.507793
     15          6           0       -3.188261   -0.009582    0.095978
     16          6           0       -4.632381    0.052528   -0.402665
     17          6           0       -5.217008    1.464209   -0.346406
     18          1           0       -3.146943    0.365080    1.127902
     19          1           0       -2.569710    0.668782   -0.507851
     20          1           0       -5.247759   -0.626792    0.201032
     21          1           0       -4.670296   -0.322505   -1.433455
     22          1           0       -4.627619    2.150133   -0.963438
     23          1           0       -5.208363    1.844117    0.680335
     24          1           0       -6.250013    1.485615   -0.707380
     25          6           0       -2.589931   -1.414296    0.045858
     26          6           0       -1.145811   -1.476406    0.544501
     27          6           0       -0.561183   -2.888086    0.488242
     28          1           0       -3.208482   -2.092660    0.649687
     29          1           0       -2.631249   -1.788958   -0.986066
     30          1           0       -1.107895   -1.101373    1.575292
     31          1           0       -0.530432   -0.797086   -0.059195
     32          1           0       -0.569828   -3.267994   -0.538499
     33          1           0       -1.150571   -3.574011    1.105275
     34          1           0        0.471821   -2.909493    0.849216
 ---------------------------------------------------------------------

 SCF Done:  E(RHF) =  -669.535891483     A.U. after   15 cycles
 E2 =    -0.2093431748D+01 EUMP2 =    -0.67162932323092D+03

 The electronic state is 1-A.
 Alpha  occ. eigenvalues --  -20.60931 -20.60917 -15.85944 -11.31248 -11.27832
 Alpha  occ. eigenvalues --  -11.27812 -11.27560 -11.26840 -11.26818 -11.21658
 Alpha  occ. eigenvalues --  -11.21395 -11.21303 -11.21234 -11.21193 -11.20329
 Alpha  occ. eigenvalues --   -1.59978  -1.39537  -1.19434  -1.08837  -1.08328
 Alpha  occ. eigenvalues --   -1.04826  -1.03369  -0.95798  -0.95675  -0.86800
 Alpha  occ. eigenvalues --   -0.86228  -0.82515  -0.79452  -0.78145  -0.77570
 Alpha  occ. eigenvalues --   -0.72174  -0.71306  -0.70538  -0.65088  -0.64970
 Alpha  occ. eigenvalues --   -0.64829  -0.62176  -0.60778  -0.59178  -0.57402
 Alpha  occ. eigenvalues --   -0.55330  -0.55092  -0.53191  -0.52919  -0.52437
 Alpha  occ. eigenvalues --   -0.52214  -0.49742  -0.48937  -0.48927  -0.47749
 Alpha  occ. eigenvalues --   -0.46509  -0.45664  -0.45605  -0.44934  -0.43558
 Alpha  occ. eigenvalues --   -0.37364  -0.36415
 Alpha virt. eigenvalues --    0.04922   0.11193   0.16387   0.21317   0.22887
 Alpha virt. eigenvalues --    0.24341   0.26611   0.27160   0.27481   0.27925
 Alpha virt. eigenvalues --    0.28476   0.30812   0.31430   0.31757   0.32042

 Mulliken charges:
               1
     1  C   -0.170295
     2  C   -0.217497
     3  C   -0.169024
     4  C    0.160056
     5  C   -0.173171
     6  C   -0.218150
     7  H    0.226095
     8  H    0.223763
     9  H    0.275592
    10  H    0.275704
    11  H    0.223714
    12  N    0.489259
    13  O   -0.458621
    14  O   -0.459824
    15  C   -0.297130
    16  C   -0.299497
    17  C   -0.475179
    18  H    0.146836
    19  H    0.147203
    20  H    0.152635
    21  H    0.152657
    22  H    0.152713
    23  H    0.153793
    24  H    0.160695
    25  C   -0.297526
    26  C   -0.302234
    27  C   -0.487135
    28  H    0.149447
    29  H    0.150743
    30  H    0.146098
    31  H    0.150367
    32  H    0.157795
    33  H    0.151743
    34  H    0.178378
 Sum of Mulliken charges =  -0.00000

 Dipole moment (field-independent basis, Debye):
    X=             -1.6060    Y=              4.7400    Z=              1.1232  Tot=              5.1292
 Quadrupole moment (field-independent basis, Debye-Ang):
   XX=           -104.3347   YY=            -92.6308   ZZ=            -89.3480
   XY=             11.1373   XZ=              2.8174   YZ=             -1.4194

 Normal termination of Gaussian 16 at Thu May  6 14:19:52 2021.
