 Gaussian 16, Revision A.03,
 Gaussian 16:  EM64L-G16RevA.03 25-Dec-2016

 -------------
 #p 6-31g* mp2
 -------------

 ------------------------------------------------------
 Input file generated by CHIRIPA (05-May-2021 14:51:12)
 ------------------------------------------------------
 Symbolic Z-matrix:
 Charge =  0 Multiplicity = 1

                         Standard orientation:
 ---------------------------------------------------------------------
 Center     Atomic      Atomic             Coordinates (Angstroms)
 Number     Number       Type             X           Y           Z
 ---------------------------------------------------------------------
      1          6           0       -3.802818    0.902200   -0.004448
      2          6           0       -3.015469    2.209330    0.092915
      3          6           0       -3.919617    3.440645    0.157514
      4          1           0       -4.445448    0.934112   -0.894927
      5          1           0       -4.473405    0.820780    0.862201
      6          1           0       -2.345562    2.287601   -0.772946
      7          1           0       -2.374496    2.174224    0.983161
      8          1           0       -4.578556    3.389367    1.030309
      9          1           0       -4.549458    3.503388   -0.735775
     10          1           0       -3.336107    4.364000    0.226741
     11          6           0       -2.912806   -0.337692   -0.069833
     12          6           0       -3.700155   -1.644821   -0.167196
     13          6           0       -2.796007   -2.876137   -0.231794
     14          1           0       -2.242219   -0.256272   -0.936481
     15          1           0       -2.270176   -0.369604    0.820646
     16          1           0       -4.341128   -1.609716   -1.057441
     17          1           0       -4.370061   -1.723092    0.698665
     18          1           0       -2.166166   -2.938880    0.661494
     19          1           0       -2.137068   -2.824859   -1.104590
     20          1           0       -3.379517   -3.799492   -0.301022
     21          6           0        4.024559   -0.016987    0.298892
     22          6           0        4.606854    1.109051   -0.556067
     23          6           0        5.940809    1.629251   -0.019642
     24          1           0        3.891924    0.343736    1.328082
     25          1           0        4.748134   -0.842481    0.347819
     26          1           0        3.881822    1.931606   -0.604507
     27          1           0        4.737940    0.745664   -1.583386
     28          1           0        6.683021    0.825083    0.012556
     29          1           0        5.822038    2.017764    0.996996
     30          1           0        6.339101    2.433657   -0.645863
     31          6           0        2.691065   -0.547521   -0.224611
     32          6           0        2.108769   -1.673559    0.630348
     33          6           0        0.774815   -2.193760    0.093922
     34          1           0        1.967490    0.277972   -0.273538
     35          1           0        2.823700   -0.908245   -1.253801
     36          1           0        1.977684   -1.310172    1.657666
     37          1           0        2.833802   -2.496114    0.678788
     38          1           0        0.893586   -2.582272   -0.922715
     39          1           0        0.032603   -1.389592    0.061724
     40          1           0        0.376524   -2.998166    0.720144
 ---------------------------------------------------------------------

 SCF Done:  E(RHF) =  -470.732152997     A.U. after   11 cycles
 E2 =    -0.1583680808D+01 EUMP2 =    -0.47231583380463D+03

 The electronic state is 1-A.
 Alpha  occ. eigenvalues --  -11.21630 -11.21576 -11.21560 -11.21506 -11.21415
 Alpha  occ. eigenvalues --  -11.21362 -11.21356 -11.21301 -11.21092 -11.21053
 Alpha  occ. eigenvalues --  -11.20907 -11.20895  -1.08442  -1.08374  -1.03549
 Alpha  occ. eigenvalues --   -1.03435  -0.96009  -0.95872  -0.87060  -0.86863
 Alpha  occ. eigenvalues --   -0.79732  -0.79409  -0.78305  -0.78130  -0.65072
 Alpha  occ. eigenvalues --   -0.65006  -0.60951  -0.60846  -0.59377  -0.59279
 Alpha  occ. eigenvalues --   -0.57597  -0.57510  -0.55276  -0.55180  -0.52850
 Alpha  occ. eigenvalues --   -0.52653  -0.52349  -0.52156  -0.49947  -0.49840
 Alpha  occ. eigenvalues --   -0.48013  -0.47729  -0.46680  -0.46553  -0.45894
 Alpha  occ. eigenvalues --   -0.45735  -0.45672  -0.45423  -0.43774  -0.43681
 Alpha virt. eigenvalues --    0.22024   0.23140   0.23560   0.24824   0.26191
 Alpha virt. eigenvalues --    0.26484   0.26740   0.27276   0.27994   0.29537
 Alpha virt. eigenvalues --    0.29744   0.30551   0.31594   0.32132   0.32202

 Mulliken charges:
               1
     1  C   -0.297531
     2  C   -0.299784
     3  C   -0.475674
     4  H    0.149821
     5  H    0.149584
     6  H    0.151804
     7  H    0.151433
     8  H    0.155272
     9  H    0.155342
    10  H    0.160224
    11  C   -0.301598
    12  C   -0.299410
    13  C   -0.477758
    14  H    0.150552
    15  H    0.150596
    16  H    0.151479
    17  H    0.151345
    18  H    0.158558
    19  H    0.157938
    20  H    0.158640
    21  C   -0.298116
    22  C   -0.299596
    23  C   -0.475661
    24  H    0.149467
    25  H    0.149455
    26  H    0.151869
    27  H    0.151806
    28  H    0.155143
    29  H    0.155116
    30  H    0.160135
    31  C   -0.298515
    32  C   -0.300755
    33  C   -0.480479
    34  H    0.149564
    35  H    0.149255
    36  H    0.150912
    37  H    0.151254
    38  H    0.153555
    39  H    0.164038
    40  H    0.160720
 Sum of Mulliken charges =  -0.00000

 Dipole moment (field-independent basis, Debye):
    X=             -0.0356    Y=             -0.0059    Z=             -0.0075  Tot=              0.0369
 Quadrupole moment (field-independent basis, Debye-Ang):
   XX=            -85.9584   YY=            -85.5580   ZZ=            -83.4764
   XY=             -0.3027   XZ=             -0.5446   YZ=              0.1570

 Normal termination of Gaussian 16 at Thu May  6 02:18:26 2021.
