 Gaussian 16, Revision A.03,
 Gaussian 16:  EM64L-G16RevA.03 25-Dec-2016

 -------------
 #p 6-31g* mp2
 -------------

 ------------------------------------------------------
 Input file generated by CHIRIPA (05-May-2021 14:51:13)
 ------------------------------------------------------
 Symbolic Z-matrix:
 Charge =  0 Multiplicity = 1

                         Standard orientation:
 ---------------------------------------------------------------------
 Center     Atomic      Atomic             Coordinates (Angstroms)
 Number     Number       Type             X           Y           Z
 ---------------------------------------------------------------------
      1          6           0       -3.235035    0.829285   -0.084274
      2          6           0       -2.399612    2.105452    0.022733
      3          6           0       -3.235189    3.374839   -0.145382
      4          1           0       -3.740953    0.810501   -1.059282
      5          1           0       -4.026142    0.852252    0.677971
      6          1           0       -1.609462    2.079448   -0.738583
      7          1           0       -1.895473    2.121107    0.997523
      8          1           0       -4.014021    3.427850    0.622219
      9          1           0       -3.726385    3.385954   -1.123750
     10          1           0       -2.618106    4.275205   -0.065327
     11          6           0       -2.413783   -0.448108    0.081674
     12          6           0       -3.249206   -1.724275   -0.025334
     13          6           0       -2.413628   -2.993662    0.142782
     14          1           0       -1.622676   -0.471075   -0.680572
     15          1           0       -1.907865   -0.429324    1.056681
     16          1           0       -3.753345   -1.739931   -1.000123
     17          1           0       -4.039356   -1.698271    0.735982
     18          1           0       -1.922433   -3.004777    1.121150
     19          1           0       -1.634797   -3.046673   -0.624820
     20          1           0       -3.030711   -3.894028    0.062727
     21          6           0        2.354628   -0.750783    0.222480
     22          6           0        2.682192   -2.102812   -0.412110
     23          6           0        1.733630   -3.213442    0.040135
     24          1           0        2.395132   -0.846784    1.316138
     25          1           0        1.320815   -0.476337   -0.029126
     26          1           0        3.715534   -2.373976   -0.160532
     27          1           0        2.641091   -2.003533   -1.504387
     28          1           0        0.699954   -2.968944   -0.225074
     29          1           0        1.780501   -3.341490    1.126417
     30          1           0        1.985894   -4.171220   -0.425573
     31          6           0        3.294190    0.369606   -0.219879
     32          6           0        2.966626    1.721635    0.414711
     33          6           0        3.915187    2.832265   -0.037535
     34          1           0        4.328002    0.095160    0.031726
     35          1           0        3.253686    0.465608   -1.313537
     36          1           0        3.007726    1.622357    1.506988
     37          1           0        1.933284    1.992799    0.163133
     38          1           0        3.868316    2.960314   -1.123816
     39          1           0        4.948863    2.587767    0.227674
     40          1           0        3.662923    3.790043    0.428174
 ---------------------------------------------------------------------

 SCF Done:  E(RHF) =  -470.733166340     A.U. after   11 cycles
 E2 =    -0.1583380413D+01 EUMP2 =    -0.47231654675255D+03

 The electronic state is 1-A.
 Alpha  occ. eigenvalues --  -11.21650 -11.21639 -11.21559 -11.21529 -11.21460
 Alpha  occ. eigenvalues --  -11.21400 -11.21349 -11.21283 -11.21105 -11.21082
 Alpha  occ. eigenvalues --  -11.21044 -11.20929  -1.08481  -1.08370  -1.03577
 Alpha  occ. eigenvalues --   -1.03463  -0.96037  -0.95900  -0.87071  -0.86900
 Alpha  occ. eigenvalues --   -0.79685  -0.79486  -0.78341  -0.78134  -0.65130
 Alpha  occ. eigenvalues --   -0.64986  -0.61019  -0.60832  -0.59402  -0.59269
 Alpha  occ. eigenvalues --   -0.57747  -0.57442  -0.55403  -0.55125  -0.52715
 Alpha  occ. eigenvalues --   -0.52650  -0.52584  -0.52157  -0.50065  -0.49742
 Alpha  occ. eigenvalues --   -0.48142  -0.47676  -0.46740  -0.46482  -0.46079
 Alpha  occ. eigenvalues --   -0.45775  -0.45692  -0.45334  -0.43827  -0.43723
 Alpha virt. eigenvalues --    0.20891   0.22987   0.23415   0.24990   0.25225
 Alpha virt. eigenvalues --    0.26473   0.26675   0.27175   0.29044   0.29948
 Alpha virt. eigenvalues --    0.30211   0.31405   0.31636   0.31838   0.32103

 Mulliken charges:
               1
     1  C   -0.298240
     2  C   -0.300207
     3  C   -0.475725
     4  H    0.149714
     5  H    0.149962
     6  H    0.151340
     7  H    0.152709
     8  H    0.155393
     9  H    0.155228
    10  H    0.160467
    11  C   -0.300712
    12  C   -0.299809
    13  C   -0.479367
    14  H    0.149955
    15  H    0.151180
    16  H    0.151852
    17  H    0.152209
    18  H    0.156989
    19  H    0.158277
    20  H    0.160747
    21  C   -0.301319
    22  C   -0.299204
    23  C   -0.482251
    24  H    0.149213
    25  H    0.152844
    26  H    0.151500
    27  H    0.150960
    28  H    0.163079
    29  H    0.154450
    30  H    0.159443
    31  C   -0.298081
    32  C   -0.300164
    33  C   -0.475627
    34  H    0.149388
    35  H    0.149166
    36  H    0.151700
    37  H    0.152772
    38  H    0.154981
    39  H    0.155088
    40  H    0.160100
 Sum of Mulliken charges =  -0.00000

 Dipole moment (field-independent basis, Debye):
    X=             -0.0723    Y=             -0.0049    Z=              0.0184  Tot=              0.0748
 Quadrupole moment (field-independent basis, Debye-Ang):
   XX=            -85.0223   YY=            -86.5808   ZZ=            -83.1847
   XY=             -0.1310   XZ=              0.4048   YZ=              0.1568

 Normal termination of Gaussian 16 at Thu May  6 00:47:11 2021.
