 Gaussian 16, Revision A.03,
 Gaussian 16:  EM64L-G16RevA.03 25-Dec-2016

 -------------
 #p 6-31g* mp2
 -------------

 ------------------------------------------------------
 Input file generated by CHIRIPA (05-May-2021 14:57:25)
 ------------------------------------------------------
 Symbolic Z-matrix:
 Charge =  0 Multiplicity = 1

                         Standard orientation:
 ---------------------------------------------------------------------
 Center     Atomic      Atomic             Coordinates (Angstroms)
 Number     Number       Type             X           Y           Z
 ---------------------------------------------------------------------
      1          6           0       -5.668211    0.522878   -0.586899
      2          6           0       -5.381825   -0.598924    0.197999
      3          6           0       -4.061016   -0.914596    0.530207
      4          6           0       -3.046601   -0.082922    0.058433
      5          6           0       -3.299882    1.041690   -0.725395
      6          6           0       -4.628159    1.338167   -1.045282
      7          1           0       -6.697149    0.760644   -0.840180
      8          1           0       -6.187526   -1.233881    0.555380
      9          1           0       -3.811023   -1.776940    1.136247
     10          1           0       -2.475460    1.655758   -1.066959
     11          1           0       -4.847606    2.210014   -1.655012
     12          7           0       -1.644366   -0.406950    0.403605
     13          8           0       -0.768614    0.341702   -0.024431
     14          8           0       -1.447598   -1.403439    1.095652
     15          6           0        3.336092    2.474208    0.619751
     16          6           0        2.530602    1.587484    1.341852
     17          6           0        2.490430    0.230852    1.006464
     18          6           0        3.272061   -0.206825   -0.061610
     19          6           0        4.084655    0.651928   -0.800207
     20          6           0        4.109184    2.004428   -0.447092
     21          1           0        3.361224    3.526467    0.887173
     22          1           0        1.929156    1.949513    2.170852
     23          1           0        1.875728   -0.477424    1.548592
     24          1           0        4.673117    0.261436   -1.621577
     25          1           0        4.735670    2.690783   -1.009656
     26          7           0        3.237814   -1.640843   -0.426052
     27          8           0        3.935795   -2.001444   -1.371264
     28          8           0        2.513636   -2.377072    0.240410
 ---------------------------------------------------------------------

 SCF Done:  E(RHF) =  -868.338348324     A.U. after   16 cycles
 E2 =    -0.2600101991D+01 EUMP2 =    -0.87093845031566D+03

 The electronic state is 1-A.
 Alpha  occ. eigenvalues --  -20.61091 -20.61042 -20.59385 -20.59320 -15.86079
 Alpha  occ. eigenvalues --  -15.84406 -11.31371 -11.29665 -11.27944 -11.27910
 Alpha  occ. eigenvalues --  -11.27661 -11.26937 -11.26911 -11.26411 -11.26182
 Alpha  occ. eigenvalues --  -11.26163 -11.25423 -11.25260  -1.60127  -1.58434
 Alpha  occ. eigenvalues --   -1.39680  -1.37985  -1.19536  -1.17899  -1.08949
 Alpha  occ. eigenvalues --   -1.07344  -1.04926  -1.03296  -0.95795  -0.94174
 Alpha  occ. eigenvalues --   -0.86328  -0.84722  -0.82626  -0.81010  -0.77685
 Alpha  occ. eigenvalues --   -0.76031  -0.72298  -0.71434  -0.70646  -0.70638
 Alpha  occ. eigenvalues --   -0.69748  -0.69078  -0.65190  -0.64930  -0.63580
 Alpha  occ. eigenvalues --   -0.63356  -0.62273  -0.60650  -0.55435  -0.53911
 Alpha  occ. eigenvalues --   -0.53261  -0.53018  -0.51660  -0.51435  -0.49060
 Alpha  occ. eigenvalues --   -0.49024  -0.47414  -0.47368  -0.45098  -0.43412
 Alpha  occ. eigenvalues --   -0.37514  -0.36526  -0.35944  -0.34815
 Alpha virt. eigenvalues --    0.04837   0.06522   0.11130   0.12796   0.16343
 Alpha virt. eigenvalues --    0.17968   0.21277   0.22685   0.27190   0.28164
 Alpha virt. eigenvalues --    0.28594   0.29627   0.30848   0.32142   0.32399

 Mulliken charges:
               1
     1  C   -0.170439
     2  C   -0.218586
     3  C   -0.170333
     4  C    0.158378
     5  C   -0.171186
     6  C   -0.218565
     7  H    0.226230
     8  H    0.224544
     9  H    0.277392
    10  H    0.274687
    11  H    0.223437
    12  N    0.488543
    13  O   -0.465337
    14  O   -0.455285
    15  C   -0.171786
    16  C   -0.218062
    17  C   -0.147583
    18  C    0.153200
    19  C   -0.172128
    20  C   -0.220974
    21  H    0.218569
    22  H    0.218861
    23  H    0.285271
    24  H    0.270489
    25  H    0.216446
    26  N    0.487827
    27  O   -0.469186
    28  O   -0.454424
 Sum of Mulliken charges =  -0.00000

 Dipole moment (field-independent basis, Debye):
    X=             -5.3294    Y=              5.9541    Z=              0.2251  Tot=              7.9940
 Quadrupole moment (field-independent basis, Debye-Ang):
   XX=            -73.8245   YY=           -105.2153   ZZ=           -102.2170
   XY=             15.1990   XZ=              4.4680   YZ=             -3.8106

 Normal termination of Gaussian 16 at Wed May  5 17:56:42 2021.
