 Gaussian 16, Revision A.03,
 Gaussian 16:  EM64L-G16RevA.03 25-Dec-2016

 -------------
 #p 6-31g* mp2
 -------------

 ------------------------------------------------------
 Input file generated by CHIRIPA (05-May-2021 14:55:21)
 ------------------------------------------------------
 Symbolic Z-matrix:
 Charge =  0 Multiplicity = 1

                         Standard orientation:
 ---------------------------------------------------------------------
 Center     Atomic      Atomic             Coordinates (Angstroms)
 Number     Number       Type             X           Y           Z
 ---------------------------------------------------------------------
      1          6           0       -6.020235   -1.502801    0.088267
      2          6           0       -6.232223   -0.130420    0.256053
      3          6           0       -5.159999    0.765223    0.204007
      4          6           0       -3.883269    0.251694   -0.018565
      5          6           0       -3.639883   -1.110232   -0.189479
      6          6           0       -4.727022   -1.987472   -0.133573
      7          1           0       -6.858958   -2.191410    0.130196
      8          1           0       -7.235465    0.248816    0.428479
      9          1           0       -5.295720    1.832449    0.330598
     10          1           0       -2.628369   -1.458414   -0.359853
     11          1           0       -4.559413   -3.052781   -0.264224
     12          7           0       -2.740259    1.190130   -0.075707
     13          8           0       -1.625110    0.712501   -0.273069
     14          8           0       -2.981159    2.385535    0.077948
     15          6           0        5.894149   -0.013495   -0.313037
     16          6           0        7.065393   -0.404763    0.588673
     17          6           0        8.423969   -0.177546   -0.074981
     18          1           0        5.949187   -0.590863   -1.246076
     19          1           0        5.993886    1.044200   -0.593623
     20          1           0        6.962732   -1.461038    0.868600
     21          1           0        7.007451    0.173464    1.519754
     22          1           0        8.552071    0.877151   -0.339182
     23          1           0        8.507098   -0.766638   -0.994036
     24          1           0        9.247096   -0.463831    0.587109
     25          6           0        4.529279   -0.234897    0.336455
     26          6           0        3.358033    0.156371   -0.565255
     27          6           0        1.999458   -0.070846    0.098400
     28          1           0        4.429541   -1.292592    0.617042
     29          1           0        4.474239    0.342471    1.269494
     30          1           0        3.415977   -0.421856   -1.496335
     31          1           0        3.460695    1.212646   -0.845181
     32          1           0        1.916329    0.518246    1.017454
     33          1           0        1.871356   -1.125544    0.362601
     34          1           0        1.176330    0.215438   -0.563690
 ---------------------------------------------------------------------

 SCF Done:  E(RHF) =  -669.535869471     A.U. after   15 cycles
 E2 =    -0.2090545031D+01 EUMP2 =    -0.67162641450181D+03

 The electronic state is 1-A.
 Alpha  occ. eigenvalues --  -20.60860 -20.60855 -15.85908 -11.31246 -11.27813
 Alpha  occ. eigenvalues --  -11.27808 -11.27556 -11.26826 -11.26816 -11.21132
 Alpha  occ. eigenvalues --  -11.20794 -11.20680 -11.20655 -11.20595 -11.19681
 Alpha  occ. eigenvalues --   -1.59929  -1.39484  -1.19417  -1.08818  -1.07737
 Alpha  occ. eigenvalues --   -1.04817  -1.02758  -0.95660  -0.95180  -0.86222
 Alpha  occ. eigenvalues --   -0.86188  -0.82491  -0.78845  -0.77559  -0.77514
 Alpha  occ. eigenvalues --   -0.72135  -0.71246  -0.70527  -0.65074  -0.64821
 Alpha  occ. eigenvalues --   -0.64379  -0.62164  -0.60169  -0.58575  -0.56776
 Alpha  occ. eigenvalues --   -0.55321  -0.54491  -0.53148  -0.52910  -0.51809
 Alpha  occ. eigenvalues --   -0.51614  -0.49162  -0.48880  -0.48869  -0.47143
 Alpha  occ. eigenvalues --   -0.45912  -0.45073  -0.45003  -0.44888  -0.42973
 Alpha  occ. eigenvalues --   -0.37399  -0.36420
 Alpha virt. eigenvalues --    0.04993   0.11235   0.16487   0.21344   0.23508
 Alpha virt. eigenvalues --    0.25110   0.27252   0.27310   0.28049   0.28143
 Alpha virt. eigenvalues --    0.28958   0.30895   0.32108   0.32261   0.32486

 Mulliken charges:
               1
     1  C   -0.170693
     2  C   -0.218605
     3  C   -0.170647
     4  C    0.157500
     5  C   -0.170748
     6  C   -0.218558
     7  H    0.225797
     8  H    0.223622
     9  H    0.275744
    10  H    0.276051
    11  H    0.223685
    12  N    0.494803
    13  O   -0.465996
    14  O   -0.459672
    15  C   -0.297574
    16  C   -0.299034
    17  C   -0.475309
    18  H    0.148063
    19  H    0.149448
    20  H    0.150513
    21  H    0.151589
    22  H    0.155047
    23  H    0.154294
    24  H    0.158695
    25  C   -0.297298
    26  C   -0.300148
    27  C   -0.479826
    28  H    0.146491
    29  H    0.149132
    30  H    0.147538
    31  H    0.152413
    32  H    0.155153
    33  H    0.144652
    34  H    0.183878
 Sum of Mulliken charges =  -0.00000

 Dipole moment (field-independent basis, Debye):
    X=             -4.3212    Y=             -3.2306    Z=              0.1777  Tot=              5.3983
 Quadrupole moment (field-independent basis, Debye-Ang):
   XX=            -64.2115   YY=            -92.8756   ZZ=            -95.5984
   XY=              9.4620   XZ=             -0.9877   YZ=              1.2617

 Normal termination of Gaussian 16 at Wed May  5 15:56:05 2021.
