 Gaussian 16, Revision A.03,
 Gaussian 16:  EM64L-G16RevA.03 25-Dec-2016

 -------------
 #p 6-31g* mp2
 -------------

 ------------------------------------------------------
 Input file generated by CHIRIPA (05-May-2021 14:57:21)
 ------------------------------------------------------
 Symbolic Z-matrix:
 Charge =  0 Multiplicity = 1

                         Standard orientation:
 ---------------------------------------------------------------------
 Center     Atomic      Atomic             Coordinates (Angstroms)
 Number     Number       Type             X           Y           Z
 ---------------------------------------------------------------------
      1          6           0        2.908077    2.671603   -0.611354
      2          6           0        1.769560    1.899906   -0.865880
      3          6           0        1.758304    0.532940   -0.572919
      4          6           0        2.908128   -0.032253   -0.023600
      5          6           0        4.057928    0.710020    0.241506
      6          6           0        4.046620    2.075248   -0.059446
      7          1           0        2.908057    3.732820   -0.842037
      8          1           0        0.883922    2.360364   -1.294447
      9          1           0        0.890549   -0.087941   -0.759804
     10          1           0        4.925703    0.222780    0.669270
     11          1           0        4.932238    2.672099    0.139288
     12          7           0        2.908155   -1.478478    0.290774
     13          8           0        3.933877   -1.952578    0.774263
     14          8           0        1.882454   -2.110546    0.047740
     15          6           0       -4.042961    1.953505    0.718967
     16          6           0       -4.270321    1.391911   -0.541762
     17          6           0       -3.646898    0.195676   -0.909069
     18          6           0       -2.798411   -0.414886    0.013197
     19          6           0       -2.551735    0.119802    1.276743
     20          6           0       -3.185904    1.316781    1.622604
     21          1           0       -4.531425    2.883057    0.995970
     22          1           0       -4.935422    1.884194   -1.245569
     23          1           0       -3.805131   -0.261012   -1.878511
     24          1           0       -1.883447   -0.394147    1.956938
     25          1           0       -3.007470    1.750625    2.602391
     26          7           0       -2.132732   -1.681679   -0.364303
     27          8           0       -1.389675   -2.199984    0.466277
     28          8           0       -2.366635   -2.132300   -1.483618
 ---------------------------------------------------------------------

 SCF Done:  E(RHF) =  -868.335292211     A.U. after   16 cycles
 E2 =    -0.2601522610D+01 EUMP2 =    -0.87093681482135D+03

 The electronic state is 1-A.
 Alpha  occ. eigenvalues --  -20.60658 -20.60523 -20.60048 -20.59929 -15.85632
 Alpha  occ. eigenvalues --  -15.85038 -11.31332 -11.30776 -11.27931 -11.27898
 Alpha  occ. eigenvalues --  -11.27706 -11.27396 -11.27373 -11.27218 -11.26996
 Alpha  occ. eigenvalues --  -11.26972 -11.26495 -11.26485  -1.59669  -1.59076
 Alpha  occ. eigenvalues --   -1.39205  -1.38608  -1.19530  -1.18989  -1.08863
 Alpha  occ. eigenvalues --   -1.08321  -1.04958  -1.04443  -0.95635  -0.95088
 Alpha  occ. eigenvalues --   -0.86339  -0.85822  -0.82449  -0.81903  -0.77455
 Alpha  occ. eigenvalues --   -0.76889  -0.71843  -0.71290  -0.70960  -0.70602
 Alpha  occ. eigenvalues --   -0.70416  -0.70090  -0.65152  -0.64941  -0.64623
 Alpha  occ. eigenvalues --   -0.64450  -0.62284  -0.61779  -0.55435  -0.54945
 Alpha  occ. eigenvalues --   -0.53302  -0.53034  -0.52758  -0.52539  -0.48618
 Alpha  occ. eigenvalues --   -0.48582  -0.48058  -0.47991  -0.44529  -0.43883
 Alpha  occ. eigenvalues --   -0.37543  -0.36999  -0.36591  -0.36060
 Alpha virt. eigenvalues --    0.05034   0.05659   0.11036   0.11597   0.16473
 Alpha virt. eigenvalues --    0.17074   0.21235   0.21602   0.27150   0.27303
 Alpha virt. eigenvalues --    0.28114   0.28419   0.30606   0.31206   0.32288

 Mulliken charges:
               1
     1  C   -0.172169
     2  C   -0.219263
     3  C   -0.171866
     4  C    0.157982
     5  C   -0.171528
     6  C   -0.218834
     7  H    0.222708
     8  H    0.220740
     9  H    0.277755
    10  H    0.275268
    11  H    0.221669
    12  N    0.485725
    13  O   -0.466063
    14  O   -0.444288
    15  C   -0.172588
    16  C   -0.219479
    17  C   -0.173481
    18  C    0.153014
    19  C   -0.173858
    20  C   -0.219040
    21  H    0.225234
    22  H    0.223255
    23  H    0.276312
    24  H    0.279733
    25  H    0.224125
    26  N    0.484067
    27  O   -0.443557
    28  O   -0.461575
 Sum of Mulliken charges =  -0.00000

 Dipole moment (field-independent basis, Debye):
    X=             -2.4364    Y=              9.2192    Z=              0.3083  Tot=              9.5407
 Quadrupole moment (field-independent basis, Debye-Ang):
   XX=            -87.8703   YY=           -110.0091   ZZ=           -101.1287
   XY=              3.4719   XZ=             -3.1056   YZ=             -0.6238

 Normal termination of Gaussian 16 at Thu May  6 12:50:58 2021.
