 Gaussian 16, Revision A.03,
 Gaussian 16:  EM64L-G16RevA.03 25-Dec-2016

 -------------
 #p 6-31g* mp2
 -------------

 ------------------------------------------------------
 Input file generated by CHIRIPA (05-May-2021 14:53:16)
 ------------------------------------------------------
 Symbolic Z-matrix:
 Charge =  0 Multiplicity = 1

                         Standard orientation:
 ---------------------------------------------------------------------
 Center     Atomic      Atomic             Coordinates (Angstroms)
 Number     Number       Type             X           Y           Z
 ---------------------------------------------------------------------
      1          6           0       -4.332361   -0.634239   -0.283976
      2          6           0       -5.256519   -1.506613    0.566246
      3          6           0       -5.328255   -2.950878    0.069510
      4          1           0       -4.681208   -0.648328   -1.325635
      5          1           0       -3.324865   -1.072809   -0.285793
      6          1           0       -6.261644   -1.065774    0.567588
      7          1           0       -4.905543   -1.490292    1.606037
      8          1           0       -4.335968   -3.413197    0.084626
      9          1           0       -5.699774   -2.986267   -0.959724
     10          1           0       -5.994344   -3.556787    0.691653
     11          6           0       -4.250207    0.812357    0.200109
     12          6           0       -3.326049    1.684732   -0.650114
     13          6           0       -3.254312    3.128997   -0.153378
     14          1           0       -5.257703    1.250927    0.201925
     15          1           0       -3.901360    0.826447    1.241767
     16          1           0       -3.677024    1.668410   -1.689905
     17          1           0       -2.320924    1.243892   -0.651456
     18          1           0       -2.882794    3.164385    0.875856
     19          1           0       -4.246599    3.591316   -0.168493
     20          1           0       -2.588224    3.734905   -0.775520
     21          6           0        0.914668    0.562488    0.184667
     22          6           0        1.449075    0.121474   -1.030421
     23          6           0        2.798470   -0.231375   -1.126213
     24          6           0        3.588252   -0.130683    0.018075
     25          6           0        3.085207    0.305197    1.242919
     26          6           0        1.732998    0.652782    1.315465
     27          1           0       -0.134667    0.834546    0.250051
     28          1           0        0.815912    0.050359   -1.910246
     29          1           0        3.238127   -0.575894   -2.054344
     30          1           0        3.741264    0.365631    2.102776
     31          1           0        1.320690    0.994954    2.260434
     32          7           0        5.018286   -0.501443   -0.071031
     33          8           0        5.693072   -0.403905    0.951607
     34          8           0        5.437284   -0.882564   -1.161822
 ---------------------------------------------------------------------

 SCF Done:  E(RHF) =  -669.535475133     A.U. after   15 cycles
 E2 =    -0.2091043119D+01 EUMP2 =    -0.67162651825241D+03

 The electronic state is 1-A.
 Alpha  occ. eigenvalues --  -20.60747 -20.60741 -15.85800 -11.31165 -11.27737
 Alpha  occ. eigenvalues --  -11.27733 -11.27458 -11.26751 -11.26739 -11.22813
 Alpha  occ. eigenvalues --  -11.22355 -11.22287 -11.22211 -11.22097 -11.21630
 Alpha  occ. eigenvalues --   -1.59822  -1.39376  -1.19338  -1.09352  -1.08733
 Alpha  occ. eigenvalues --   -1.04742  -1.04412  -0.96828  -0.95569  -0.87844
 Alpha  occ. eigenvalues --   -0.86139  -0.82404  -0.80499  -0.79143  -0.77448
 Alpha  occ. eigenvalues --   -0.72018  -0.71145  -0.70474  -0.65995  -0.64990
 Alpha  occ. eigenvalues --   -0.64745  -0.62091  -0.61824  -0.60214  -0.58439
 Alpha  occ. eigenvalues --   -0.56124  -0.55247  -0.53519  -0.53239  -0.53071
 Alpha  occ. eigenvalues --   -0.52833  -0.50776  -0.48808  -0.48774  -0.48761
 Alpha  occ. eigenvalues --   -0.47550  -0.46674  -0.46597  -0.44781  -0.44659
 Alpha  occ. eigenvalues --   -0.37317  -0.36349
 Alpha virt. eigenvalues --    0.05087   0.11306   0.16575   0.18743   0.22610
 Alpha virt. eigenvalues --    0.23606   0.25179   0.26216   0.27194   0.27467
 Alpha virt. eigenvalues --    0.29024   0.30498   0.30939   0.31065   0.32214

 Mulliken charges:
               1
     1  C   -0.298433
     2  C   -0.300151
     3  C   -0.476301
     4  H    0.151641
     5  H    0.145946
     6  H    0.153785
     7  H    0.152319
     8  H    0.155683
     9  H    0.156162
    10  H    0.162611
    11  C   -0.298568
    12  C   -0.304406
    13  C   -0.476512
    14  H    0.154040
    15  H    0.148485
    16  H    0.157074
    17  H    0.140944
    18  H    0.153412
    19  H    0.160584
    20  H    0.162433
    21  C   -0.177599
    22  C   -0.221402
    23  C   -0.170913
    24  C    0.158255
    25  C   -0.170652
    26  C   -0.220125
    27  H    0.236379
    28  H    0.223433
    29  H    0.275610
    30  H    0.275462
    31  H    0.223761
    32  N    0.488007
    33  O   -0.460487
    34  O   -0.460477
 Sum of Mulliken charges =  -0.00000

 Dipole moment (field-independent basis, Debye):
    X=             -5.2881    Y=              1.3227    Z=              0.3010  Tot=              5.4593
 Quadrupole moment (field-independent basis, Debye-Ang):
   XX=           -129.8297   YY=            -96.4328   ZZ=            -89.7397
   XY=              5.0328   XZ=              2.2091   YZ=              0.7732

 Normal termination of Gaussian 16 at Thu May  6 17:14:24 2021.
