 Gaussian 16, Revision A.03,
 Gaussian 16:  EM64L-G16RevA.03 25-Dec-2016

 -------------
 #p 6-31g* mp2
 -------------

 ------------------------------------------------------
 Input file generated by CHIRIPA (05-May-2021 14:55:20)
 ------------------------------------------------------
 Symbolic Z-matrix:
 Charge =  0 Multiplicity = 1

                         Standard orientation:
 ---------------------------------------------------------------------
 Center     Atomic      Atomic             Coordinates (Angstroms)
 Number     Number       Type             X           Y           Z
 ---------------------------------------------------------------------
      1          6           0        5.993522    0.769004    0.610794
      2          6           0        5.090855    1.745241    0.176427
      3          6           0        3.802761    1.388934   -0.233947
      4          6           0        3.449134    0.041022   -0.196930
      5          6           0        4.325861   -0.954870    0.230667
      6          6           0        5.608822   -0.575565    0.636482
      7          1           0        6.992151    1.054725    0.927812
      8          1           0        5.386875    2.790218    0.155421
      9          1           0        3.083986    2.124196   -0.574784
     10          1           0        4.001870   -1.988481    0.240474
     11          1           0        6.307753   -1.335874    0.973338
     12          7           0        2.088203   -0.348358   -0.628962
     13          8           0        1.801060   -1.542687   -0.586951
     14          8           0        1.334419    0.548148   -1.001418
     15          6           0       -4.063828   -0.306744    0.543763
     16          6           0       -3.015883   -1.017925   -0.312984
     17          6           0       -1.744883   -1.355634    0.466956
     18          1           0       -3.628463    0.614400    0.954735
     19          1           0       -4.317889   -0.942801    1.402995
     20          1           0       -2.764893   -0.381315   -1.171091
     21          1           0       -3.453854   -1.937386   -0.722118
     22          1           0       -1.974999   -2.010437    1.313644
     23          1           0       -1.282124   -0.445525    0.862121
     24          1           0       -1.009329   -1.863528   -0.164601
     25          6           0       -5.340157    0.037441   -0.221906
     26          6           0       -6.388102    0.748623    0.634843
     27          6           0       -7.659102    1.086332   -0.145098
     28          1           0       -5.086097    0.673499   -1.081137
     29          1           0       -5.775522   -0.883703   -0.632875
     30          1           0       -5.950130    1.668084    1.043976
     31          1           0       -6.639092    0.112012    1.492948
     32          1           0       -8.121861    0.176221   -0.540263
     33          1           0       -7.428985    1.741135   -0.991786
     34          1           0       -8.394657    1.594226    0.486458
 ---------------------------------------------------------------------

 SCF Done:  E(RHF) =  -669.536357558     A.U. after   15 cycles
 E2 =    -0.2091269560D+01 EUMP2 =    -0.67162762711822D+03

 The electronic state is 1-A.
 Alpha  occ. eigenvalues --  -20.60979 -20.60964 -15.85988 -11.31308 -11.27867
 Alpha  occ. eigenvalues --  -11.27863 -11.27603 -11.26872 -11.26862 -11.20907
 Alpha  occ. eigenvalues --  -11.20501 -11.20494 -11.20272 -11.20121 -11.19131
 Alpha  occ. eigenvalues --   -1.60016  -1.39575  -1.19472  -1.08877  -1.07402
 Alpha  occ. eigenvalues --   -1.04867  -1.02394  -0.95723  -0.94823  -0.86268
 Alpha  occ. eigenvalues --   -0.85846  -0.82555  -0.78517  -0.77608  -0.77167
 Alpha  occ. eigenvalues --   -0.72209  -0.71326  -0.70580  -0.65127  -0.64871
 Alpha  occ. eigenvalues --   -0.64045  -0.62214  -0.59800  -0.58271  -0.56413
 Alpha  occ. eigenvalues --   -0.55371  -0.54138  -0.53199  -0.52959  -0.51511
 Alpha  occ. eigenvalues --   -0.51273  -0.49035  -0.48947  -0.48686  -0.46796
 Alpha  occ. eigenvalues --   -0.45582  -0.44986  -0.44707  -0.44608  -0.42591
 Alpha  occ. eigenvalues --   -0.37449  -0.36467
 Alpha virt. eigenvalues --    0.04912   0.11188   0.16412   0.21324   0.23811
 Alpha virt. eigenvalues --    0.25537   0.27242   0.27609   0.28205   0.28461
 Alpha virt. eigenvalues --    0.29230   0.30902   0.32391   0.32472   0.32675

 Mulliken charges:
               1
     1  C   -0.170553
     2  C   -0.218579
     3  C   -0.170796
     4  C    0.158716
     5  C   -0.170665
     6  C   -0.218560
     7  H    0.226032
     8  H    0.223835
     9  H    0.275732
    10  H    0.275941
    11  H    0.223890
    12  N    0.489209
    13  O   -0.458965
    14  O   -0.459546
    15  C   -0.297148
    16  C   -0.299958
    17  C   -0.479697
    18  H    0.148096
    19  H    0.145770
    20  H    0.156150
    21  H    0.146462
    22  H    0.142386
    23  H    0.153285
    24  H    0.185352
    25  C   -0.297427
    26  C   -0.298722
    27  C   -0.475109
    28  H    0.149251
    29  H    0.147924
    30  H    0.150671
    31  H    0.150356
    32  H    0.154309
    33  H    0.154560
    34  H    0.157800
 Sum of Mulliken charges =  -0.00000

 Dipole moment (field-independent basis, Debye):
    X=              5.2181    Y=              1.3679    Z=              1.4111  Tot=              5.5759
 Quadrupole moment (field-independent basis, Debye-Ang):
   XX=            -64.2638   YY=            -89.4072   ZZ=            -96.3386
   XY=              4.4660   XZ=              4.4824   YZ=             -1.2457

 Normal termination of Gaussian 16 at Thu May  6 06:09:41 2021.
