 Gaussian 16, Revision A.03,
 Gaussian 16:  EM64L-G16RevA.03 25-Dec-2016

 -------------
 #p 6-31g* mp2
 -------------

 ------------------------------------------------------
 Input file generated by CHIRIPA (05-May-2021 14:57:27)
 ------------------------------------------------------
 Symbolic Z-matrix:
 Charge =  0 Multiplicity = 1

                         Standard orientation:
 ---------------------------------------------------------------------
 Center     Atomic      Atomic             Coordinates (Angstroms)
 Number     Number       Type             X           Y           Z
 ---------------------------------------------------------------------
      1          6           0       -1.553790    0.664902   -0.909025
      2          6           0       -1.970539   -0.639980   -0.625962
      3          6           0       -3.271880   -0.888624   -0.179603
      4          6           0       -4.134106    0.196037   -0.026741
      5          6           0       -3.748604    1.507421   -0.300513
      6          6           0       -2.442585    1.732555   -0.745685
      7          1           0       -0.541060    0.848923   -1.255306
      8          1           0       -1.282444   -1.471069   -0.751900
      9          1           0       -3.620734   -1.888851    0.046816
     10          1           0       -4.457242    2.315493   -0.165345
     11          1           0       -2.121681    2.746989   -0.964753
     12          7           0       -5.514253   -0.054747    0.445171
     13          8           0       -6.254701    0.918064    0.571715
     14          8           0       -5.829431   -1.219373    0.679575
     15          6           0        1.933003   -1.771642   -0.237073
     16          6           0        2.697042   -1.359185   -1.333723
     17          6           0        3.792751   -0.509198   -1.156259
     18          6           0        4.097445   -0.089042    0.137541
     19          6           0        3.355509   -0.482517    1.250196
     20          6           0        2.264091   -1.332765    1.049120
     21          1           0        1.083496   -2.432033   -0.384102
     22          1           0        2.442243   -1.698439   -2.333738
     23          1           0        4.401271   -0.174476   -1.987572
     24          1           0        3.634043   -0.127659    2.235037
     25          1           0        1.672512   -1.651470    1.902645
     26          7           0        5.255152    0.810939    0.337914
     27          8           0        5.502872    1.167022    1.487903
     28          8           0        5.892921    1.143221   -0.658820
 ---------------------------------------------------------------------

 SCF Done:  E(RHF) =  -868.337112362     A.U. after   16 cycles
 E2 =    -0.2600088510D+01 EUMP2 =    -0.87093720087195D+03

 The electronic state is 1-A.
 Alpha  occ. eigenvalues --  -20.61486 -20.61478 -20.61191 -20.61181 -15.86542
 Alpha  occ. eigenvalues --  -15.86248 -11.32090 -11.31687 -11.28662 -11.28619
 Alpha  occ. eigenvalues --  -11.28531 -11.28335 -11.28248 -11.28018 -11.27780
 Alpha  occ. eigenvalues --  -11.27710 -11.27410 -11.27238  -1.60557  -1.60264
 Alpha  occ. eigenvalues --   -1.40104  -1.39815  -1.20283  -1.19881  -1.09670
 Alpha  occ. eigenvalues --   -1.09253  -1.05689  -1.05311  -0.96468  -0.96070
 Alpha  occ. eigenvalues --   -0.87086  -0.86706  -0.83277  -0.82913  -0.78273
 Alpha  occ. eigenvalues --   -0.77958  -0.72755  -0.72464  -0.71884  -0.71590
 Alpha  occ. eigenvalues --   -0.71453  -0.70957  -0.65931  -0.65697  -0.65534
 Alpha  occ. eigenvalues --   -0.65327  -0.63008  -0.62671  -0.56292  -0.55754
 Alpha  occ. eigenvalues --   -0.54044  -0.53769  -0.53615  -0.53390  -0.49529
 Alpha  occ. eigenvalues --   -0.49500  -0.49229  -0.49213  -0.45468  -0.45204
 Alpha  occ. eigenvalues --   -0.38347  -0.37831  -0.37288  -0.36916
 Alpha virt. eigenvalues --    0.04195   0.04608   0.10298   0.10756   0.15507
 Alpha virt. eigenvalues --    0.16071   0.18713   0.21769   0.24843   0.26490
 Alpha virt. eigenvalues --    0.27746   0.28618   0.29554   0.31616   0.31777

 Mulliken charges:
               1
     1  C   -0.171507
     2  C   -0.220179
     3  C   -0.171491
     4  C    0.158720
     5  C   -0.169863
     6  C   -0.218772
     7  H    0.228976
     8  H    0.213174
     9  H    0.275061
    10  H    0.277604
    11  H    0.226450
    12  N    0.488078
    13  O   -0.458597
    14  O   -0.460513
    15  C   -0.178024
    16  C   -0.222406
    17  C   -0.171596
    18  C    0.159371
    19  C   -0.170811
    20  C   -0.217328
    21  H    0.222198
    22  H    0.224980
    23  H    0.278051
    24  H    0.279020
    25  H    0.227766
    26  N    0.487762
    27  O   -0.457571
    28  O   -0.458553
 Sum of Mulliken charges =  -0.00000

 Dipole moment (field-independent basis, Debye):
    X=              0.9353    Y=             -2.1123    Z=             -2.2772  Tot=              3.2438
 Quadrupole moment (field-independent basis, Debye-Ang):
   XX=           -178.2839   YY=            -99.8268   ZZ=           -100.7511
   XY=            -16.7193   XZ=              2.4916   YZ=             -1.1019

 Normal termination of Gaussian 16 at Thu May  6 14:51:06 2021.
