 Gaussian 16, Revision A.03,
 Gaussian 16:  EM64L-G16RevA.03 25-Dec-2016

 -------------
 #p 6-31g* mp2
 -------------

 ------------------------------------------------------
 Input file generated by CHIRIPA (05-May-2021 14:53:11)
 ------------------------------------------------------
 Symbolic Z-matrix:
 Charge =  0 Multiplicity = 1

                         Standard orientation:
 ---------------------------------------------------------------------
 Center     Atomic      Atomic             Coordinates (Angstroms)
 Number     Number       Type             X           Y           Z
 ---------------------------------------------------------------------
      1          6           0       -3.169882   -0.531175    0.030697
      2          6           0       -3.864637   -1.559442   -0.862593
      3          6           0       -3.952830   -2.941627   -0.214843
      4          1           0       -2.159979   -0.888879    0.273778
      5          1           0       -3.712814   -0.456822    0.983111
      6          1           0       -3.321358   -1.630823   -1.813577
      7          1           0       -4.872934   -1.199158   -1.103733
      8          1           0       -4.513176   -2.891865    0.724379
      9          1           0       -2.952784   -3.325982    0.010502
     10          1           0       -4.453006   -3.661127   -0.870590
     11          6           0       -3.074044    0.855503   -0.603076
     12          6           0       -2.379290    1.883770    0.290215
     13          6           0       -2.291096    3.265955   -0.357536
     14          1           0       -2.531113    0.781150   -1.555489
     15          1           0       -4.083947    1.213208   -0.846157
     16          1           0       -1.370993    1.523486    0.531354
     17          1           0       -2.922569    1.955151    1.241198
     18          1           0       -3.291142    3.650311   -0.582880
     19          1           0       -1.730751    3.216193   -1.296757
     20          1           0       -1.790921    3.985455    0.298211
     21          6           0        3.678450   -0.271898   -1.969286
     22          6           0        3.638693   -1.377328   -1.113151
     23          6           0        2.954963   -1.308223    0.104341
     24          6           0        2.319211   -0.112653    0.435584
     25          6           0        2.340729    1.005913   -0.396063
     26          6           0        3.030485    0.914103   -1.608645
     27          1           0        4.211929   -0.334399   -2.913156
     28          1           0        4.141002   -2.299679   -1.390632
     29          1           0        2.908216   -2.148832    0.785964
     30          1           0        1.830418    1.911787   -0.092097
     31          1           0        3.059687    1.774185   -2.271557
     32          7           0        1.592188   -0.027476    1.721890
     33          8           0        1.040181    1.037282    1.990617
     34          8           0        1.588120   -1.027086    2.437012
 ---------------------------------------------------------------------

 SCF Done:  E(RHF) =  -669.536187711     A.U. after   15 cycles
 E2 =    -0.2091590448D+01 EUMP2 =    -0.67162777815849D+03

 The electronic state is 1-A.
 Alpha  occ. eigenvalues --  -20.60980 -20.60975 -15.85995 -11.31312 -11.27873
 Alpha  occ. eigenvalues --  -11.27868 -11.27608 -11.26880 -11.26870 -11.21234
 Alpha  occ. eigenvalues --  -11.20910 -11.20848 -11.20797 -11.20717 -11.20643
 Alpha  occ. eigenvalues --   -1.60032  -1.39589  -1.19480  -1.08886  -1.07923
 Alpha  occ. eigenvalues --   -1.04874  -1.03043  -0.95728  -0.95531  -0.86549
 Alpha  occ. eigenvalues --   -0.86275  -0.82561  -0.79089  -0.77732  -0.77587
 Alpha  occ. eigenvalues --   -0.72218  -0.71344  -0.70586  -0.65136  -0.64877
 Alpha  occ. eigenvalues --   -0.64562  -0.62221  -0.60450  -0.58883  -0.57115
 Alpha  occ. eigenvalues --   -0.55378  -0.54844  -0.53207  -0.52963  -0.52229
 Alpha  occ. eigenvalues --   -0.51946  -0.49495  -0.48989  -0.48975  -0.47420
 Alpha  occ. eigenvalues --   -0.46170  -0.45413  -0.45233  -0.44671  -0.43298
 Alpha  occ. eigenvalues --   -0.37459  -0.36475
 Alpha virt. eigenvalues --    0.04873   0.11151   0.16343   0.21134   0.23192
 Alpha virt. eigenvalues --    0.24488   0.26849   0.27351   0.27750   0.28220
 Alpha virt. eigenvalues --    0.28739   0.30772   0.31694   0.32090   0.32339

 Mulliken charges:
               1
     1  C   -0.297035
     2  C   -0.299198
     3  C   -0.475307
     4  H    0.150661
     5  H    0.152307
     6  H    0.148619
     7  H    0.150802
     8  H    0.156578
     9  H    0.155608
    10  H    0.157779
    11  C   -0.298182
    12  C   -0.306757
    13  C   -0.475892
    14  H    0.143821
    15  H    0.147210
    16  H    0.166834
    17  H    0.154717
    18  H    0.153430
    19  H    0.146707
    20  H    0.161882
    21  C   -0.170577
    22  C   -0.218536
    23  C   -0.171011
    24  C    0.158033
    25  C   -0.171904
    26  C   -0.218627
    27  H    0.226129
    28  H    0.223934
    29  H    0.275856
    30  H    0.276942
    31  H    0.224172
    32  N    0.487766
    33  O   -0.458400
    34  O   -0.458361
 Sum of Mulliken charges =  -0.00000

 Dipole moment (field-independent basis, Debye):
    X=              2.7235    Y=             -0.3448    Z=             -4.3666  Tot=              5.1579
 Quadrupole moment (field-independent basis, Debye-Ang):
   XX=            -82.6717   YY=            -91.6633   ZZ=            -99.1149
   XY=             -2.7599   XZ=            -10.1410   YZ=             -0.1491

 Normal termination of Gaussian 16 at Wed May  5 18:27:47 2021.
