 Gaussian 16, Revision A.03,
 Gaussian 16:  EM64L-G16RevA.03 25-Dec-2016

 -------------
 #p 6-31g* mp2
 -------------

 ------------------------------------------------------
 Input file generated by CHIRIPA (05-May-2021 14:55:25)
 ------------------------------------------------------
 Symbolic Z-matrix:
 Charge =  0 Multiplicity = 1

                         Standard orientation:
 ---------------------------------------------------------------------
 Center     Atomic      Atomic             Coordinates (Angstroms)
 Number     Number       Type             X           Y           Z
 ---------------------------------------------------------------------
      1          6           0        3.872781    2.347841    0.355415
      2          6           0        2.935535    1.728303    1.188640
      3          6           0        2.474347    0.439652    0.903624
      4          6           0        2.973895   -0.203236   -0.227940
      5          6           0        3.908105    0.387466   -1.077419
      6          6           0        4.355224    1.676628   -0.772965
      7          1           0        4.225578    3.349094    0.584372
      8          1           0        2.559117    2.247184    2.065633
      9          1           0        1.749123   -0.063409    1.531634
     10          1           0        4.264939   -0.154981   -1.944506
     11          1           0        5.083139    2.155313   -1.421845
     12          7           0        2.493103   -1.567743   -0.539962
     13          8           0        2.948738   -2.112852   -1.542903
     14          8           0        1.669728   -2.066298    0.224324
     15          6           0       -3.317039    0.067850    0.700332
     16          6           0       -2.508079   -1.209851    0.926274
     17          6           0       -1.329166   -1.002651    1.877603
     18          1           0       -2.654500    0.847923    0.300991
     19          1           0       -3.685686    0.436010    1.667778
     20          1           0       -2.142230   -1.576254   -0.041465
     21          1           0       -3.172662   -1.987030    1.324944
     22          1           0       -1.679670   -0.659483    2.856370
     23          1           0       -0.643382   -0.246373    1.482198
     24          1           0       -0.764640   -1.928642    2.024946
     25          6           0       -4.498988   -0.123279   -0.248454
     26          6           0       -5.307947    1.154423   -0.474396
     27          6           0       -6.486861    0.947222   -1.425725
     28          1           0       -4.130341   -0.491439   -1.215900
     29          1           0       -5.161527   -0.903351    0.150887
     30          1           0       -4.643364    1.931602   -0.873065
     31          1           0       -5.673798    1.520825    0.493342
     32          1           0       -7.172644    0.190944   -1.030320
     33          1           0       -6.136357    0.604054   -2.404492
     34          1           0       -7.051387    1.873214   -1.573069
 ---------------------------------------------------------------------

 SCF Done:  E(RHF) =  -669.535462414     A.U. after   15 cycles
 E2 =    -0.2091755173D+01 EUMP2 =    -0.67162721758635D+03

 The electronic state is 1-A.
 Alpha  occ. eigenvalues --  -20.60819 -20.60814 -15.85863 -11.31207 -11.27781
 Alpha  occ. eigenvalues --  -11.27732 -11.27521 -11.26796 -11.26779 -11.21417
 Alpha  occ. eigenvalues --  -11.21124 -11.21088 -11.21035 -11.20903 -11.20572
 Alpha  occ. eigenvalues --   -1.59890  -1.39443  -1.19381  -1.08782  -1.08115
 Alpha  occ. eigenvalues --   -1.04781  -1.03189  -0.95702  -0.95573  -0.86691
 Alpha  occ. eigenvalues --   -0.86175  -0.82451  -0.79279  -0.77936  -0.77487
 Alpha  occ. eigenvalues --   -0.72090  -0.71210  -0.70495  -0.65037  -0.64831
 Alpha  occ. eigenvalues --   -0.64709  -0.62157  -0.60572  -0.58996  -0.57242
 Alpha  occ. eigenvalues --   -0.55318  -0.54942  -0.53115  -0.52900  -0.52300
 Alpha  occ. eigenvalues --   -0.52066  -0.49632  -0.48842  -0.48814  -0.47579
 Alpha  occ. eigenvalues --   -0.46298  -0.45482  -0.45385  -0.44835  -0.43430
 Alpha  occ. eigenvalues --   -0.37365  -0.36379
 Alpha virt. eigenvalues --    0.04999   0.11204   0.16508   0.21178   0.23191
 Alpha virt. eigenvalues --    0.24598   0.26270   0.27095   0.27757   0.27859
 Alpha virt. eigenvalues --    0.29262   0.30789   0.31492   0.31998   0.32331

 Mulliken charges:
               1
     1  C   -0.170554
     2  C   -0.220453
     3  C   -0.175304
     4  C    0.156553
     5  C   -0.170733
     6  C   -0.218630
     7  H    0.225687
     8  H    0.224103
     9  H    0.284839
    10  H    0.275522
    11  H    0.223489
    12  N    0.489681
    13  O   -0.460221
    14  O   -0.462307
    15  C   -0.298194
    16  C   -0.300424
    17  C   -0.476430
    18  H    0.146626
    19  H    0.146795
    20  H    0.160484
    21  H    0.151503
    22  H    0.146971
    23  H    0.143875
    24  H    0.177925
    25  C   -0.298273
    26  C   -0.299188
    27  C   -0.475559
    28  H    0.151101
    29  H    0.149885
    30  H    0.150474
    31  H    0.150731
    32  H    0.155353
    33  H    0.155662
    34  H    0.159011
 Sum of Mulliken charges =  -0.00000

 Dipole moment (field-independent basis, Debye):
    X=              1.7811    Y=              4.6590    Z=              1.0538  Tot=              5.0980
 Quadrupole moment (field-independent basis, Debye-Ang):
   XX=            -84.2611   YY=            -97.0976   ZZ=            -92.2806
   XY=             14.6110   XZ=             -0.7758   YZ=             -1.4960

 Normal termination of Gaussian 16 at Thu May  6 09:31:42 2021.
