 Gaussian 16, Revision A.03,
 Gaussian 16:  EM64L-G16RevA.03 25-Dec-2016

 -------------
 #p 6-31g* mp2
 -------------

 ------------------------------------------------------
 Input file generated by CHIRIPA (05-May-2021 14:57:23)
 ------------------------------------------------------
 Symbolic Z-matrix:
 Charge =  0 Multiplicity = 1

                         Standard orientation:
 ---------------------------------------------------------------------
 Center     Atomic      Atomic             Coordinates (Angstroms)
 Number     Number       Type             X           Y           Z
 ---------------------------------------------------------------------
      1          6           0       -6.023963    0.394069   -0.805327
      2          6           0       -5.267882    1.383967   -0.168958
      3          6           0       -4.015595    1.081627    0.374103
      4          6           0       -3.547910   -0.226834    0.262346
      5          6           0       -4.277535   -1.235054   -0.365691
      6          6           0       -5.527253   -0.909982   -0.901493
      7          1           0       -6.995772    0.637764   -1.224370
      8          1           0       -5.651119    2.397562   -0.092800
      9          1           0       -3.409371    1.828596    0.872047
     10          1           0       -3.868998   -2.236487   -0.426070
     11          1           0       -6.112245   -1.680781   -1.395151
     12          7           0       -2.223530   -0.558940    0.833418
     13          8           0       -1.833878   -1.719268    0.721841
     14          8           0       -1.600209    0.347371    1.381788
     15          6           0        6.096554   -0.792701   -0.101459
     16          6           0        4.988585   -1.643343   -0.174500
     17          6           0        3.692789   -1.119843   -0.212035
     18          6           0        3.540892    0.265372   -0.174681
     19          6           0        4.624801    1.138951   -0.101920
     20          6           0        5.911452    0.593287   -0.065465
     21          1           0        7.099607   -1.207977   -0.072720
     22          1           0        5.129330   -2.720119   -0.202591
     23          1           0        2.817401   -1.755385   -0.268592
     24          1           0        4.452803    2.208122   -0.075373
     25          1           0        6.770066    1.256317   -0.008741
     26          7           0        2.173932    0.831310   -0.213847
     27          8           0        2.066871    2.055242   -0.179710
     28          8           0        1.235452    0.040243   -0.277940
 ---------------------------------------------------------------------

 SCF Done:  E(RHF) =  -868.336032927     A.U. after   16 cycles
 E2 =    -0.2600387321D+01 EUMP2 =    -0.87093642024898D+03

 The electronic state is 1-A.
 Alpha  occ. eigenvalues --  -20.59705 -20.59585 -20.59516 -20.59407 -15.84702
 Alpha  occ. eigenvalues --  -15.84528 -11.30348 -11.30245 -11.26985 -11.26910
 Alpha  occ. eigenvalues --  -11.26885 -11.26827 -11.26780 -11.26691 -11.26065
 Alpha  occ. eigenvalues --  -11.26025 -11.25984 -11.25948  -1.58713  -1.58503
 Alpha  occ. eigenvalues --   -1.38260  -1.38061  -1.18555  -1.18453  -1.07905
 Alpha  occ. eigenvalues --   -1.07784  -1.04000  -1.03914  -0.94696  -0.94555
 Alpha  occ. eigenvalues --   -0.85386  -0.85297  -0.81521  -0.81400  -0.76512
 Alpha  occ. eigenvalues --   -0.76380  -0.70976  -0.70753  -0.70055  -0.69771
 Alpha  occ. eigenvalues --   -0.69662  -0.69573  -0.64204  -0.64107  -0.64012
 Alpha  occ. eigenvalues --   -0.63929  -0.61339  -0.61260  -0.54510  -0.54419
 Alpha  occ. eigenvalues --   -0.52318  -0.52219  -0.52098  -0.52018  -0.47850
 Alpha  occ. eigenvalues --   -0.47679  -0.47495  -0.47356  -0.43635  -0.43310
 Alpha  occ. eigenvalues --   -0.36564  -0.36454  -0.35617  -0.35532
 Alpha virt. eigenvalues --    0.05990   0.06224   0.12033   0.12118   0.17437
 Alpha virt. eigenvalues --    0.17629   0.22114   0.22174   0.28009   0.28055
 Alpha virt. eigenvalues --    0.29049   0.29110   0.31637   0.31689   0.33363

 Mulliken charges:
               1
     1  C   -0.172137
     2  C   -0.218751
     3  C   -0.169929
     4  C    0.161064
     5  C   -0.171577
     6  C   -0.218704
     7  H    0.222171
     8  H    0.221163
     9  H    0.277859
    10  H    0.273125
    11  H    0.219857
    12  N    0.491252
    13  O   -0.466511
    14  O   -0.448749
    15  C   -0.171859
    16  C   -0.218961
    17  C   -0.171091
    18  C    0.158991
    19  C   -0.171672
    20  C   -0.218818
    21  H    0.222620
    22  H    0.221709
    23  H    0.280816
    24  H    0.273703
    25  H    0.220426
    26  N    0.487875
    27  O   -0.466617
    28  O   -0.447254
 Sum of Mulliken charges =  -0.00000

 Dipole moment (field-independent basis, Debye):
    X=              0.1575    Y=             -0.8115    Z=             -1.7773  Tot=              1.9601
 Quadrupole moment (field-independent basis, Debye-Ang):
   XX=            -41.1406   YY=            -98.1711   ZZ=           -107.2354
   XY=             -6.8583   XZ=              5.9340   YZ=              3.1794

 Normal termination of Gaussian 16 at Wed May  5 21:02:17 2021.
