 Gaussian 16, Revision A.03,
 Gaussian 16:  EM64L-G16RevA.03 25-Dec-2016

 -------------
 #p 6-31g* mp2
 -------------

 ------------------------------------------------------
 Input file generated by CHIRIPA (05-May-2021 14:53:17)
 ------------------------------------------------------
 Symbolic Z-matrix:
 Charge =  0 Multiplicity = 1

                         Standard orientation:
 ---------------------------------------------------------------------
 Center     Atomic      Atomic             Coordinates (Angstroms)
 Number     Number       Type             X           Y           Z
 ---------------------------------------------------------------------
      1          6           0        4.047985   -0.776442    0.277250
      2          6           0        2.544918   -1.055154    0.244190
      3          6           0        2.197180   -2.475824    0.689802
      4          1           0        4.563109   -1.501101   -0.368088
      5          1           0        4.422581   -0.944029    1.296557
      6          1           0        2.173014   -0.885752   -0.774439
      7          1           0        2.033293   -0.329626    0.889532
      8          1           0        2.540784   -2.653271    1.714033
      9          1           0        2.681299   -3.212557    0.040607
     10          1           0        1.117679   -2.653476    0.658533
     11          6           0        4.411406    0.639745   -0.165546
     12          6           0        5.914473    0.918457   -0.132486
     13          6           0        6.262211    2.339127   -0.578098
     14          1           0        4.036810    0.807332   -1.184853
     15          1           0        3.896282    1.364404    0.479792
     16          1           0        6.426098    0.192930   -0.777828
     17          1           0        6.286377    0.749056    0.886143
     18          1           0        5.778092    3.075860    0.071097
     19          1           0        5.918607    2.516575   -1.602329
     20          1           0        7.341712    2.516779   -0.546829
     21          6           0       -4.715124    2.104481    0.367435
     22          6           0       -4.820182    1.414030   -0.844490
     23          6           0       -4.043467    0.276353   -1.083137
     24          6           0       -3.168071   -0.144894   -0.083375
     25          6           0       -3.040762    0.521558    1.134379
     26          6           0       -3.827315    1.656830    1.351267
     27          1           0       -5.322316    2.987322    0.544370
     28          1           0       -5.508820    1.759391   -1.610355
     29          1           0       -4.104824   -0.277107   -2.012295
     30          1           0       -2.345376    0.153157    1.878782
     31          1           0       -3.743632    2.191058    2.293414
     32          7           0       -2.340590   -1.348029   -0.324502
     33          8           0       -1.576894   -1.698776    0.572370
     34          8           0       -2.471376   -1.917518   -1.405805
 ---------------------------------------------------------------------

 SCF Done:  E(RHF) =  -669.536365850     A.U. after   15 cycles
 E2 =    -0.2090877260D+01 EUMP2 =    -0.67162724310939D+03

 The electronic state is 1-A.
 Alpha  occ. eigenvalues --  -20.60980 -20.60964 -15.86002 -11.31303 -11.27864
 Alpha  occ. eigenvalues --  -11.27860 -11.27599 -11.26868 -11.26858 -11.21178
 Alpha  occ. eigenvalues --  -11.20836 -11.20758 -11.20617 -11.20535 -11.19561
 Alpha  occ. eigenvalues --   -1.60029  -1.39586  -1.19469  -1.08878  -1.07737
 Alpha  occ. eigenvalues --   -1.04863  -1.02736  -0.95725  -0.95168  -0.86266
 Alpha  occ. eigenvalues --   -0.86191  -0.82557  -0.78848  -0.77612  -0.77517
 Alpha  occ. eigenvalues --   -0.72229  -0.71339  -0.70579  -0.65126  -0.64867
 Alpha  occ. eigenvalues --   -0.64383  -0.62211  -0.60153  -0.58581  -0.56738
 Alpha  occ. eigenvalues --   -0.55369  -0.54491  -0.53195  -0.52956  -0.51811
 Alpha  occ. eigenvalues --   -0.51602  -0.49160  -0.48979  -0.48959  -0.47122
 Alpha  occ. eigenvalues --   -0.45920  -0.45058  -0.45000  -0.44971  -0.42958
 Alpha  occ. eigenvalues --   -0.37447  -0.36463
 Alpha virt. eigenvalues --    0.04906   0.11192   0.16397   0.21315   0.23485
 Alpha virt. eigenvalues --    0.25170   0.27197   0.27310   0.28012   0.28281
 Alpha virt. eigenvalues --    0.28927   0.30881   0.32075   0.32294   0.32512

 Mulliken charges:
               1
     1  C   -0.297436
     2  C   -0.296253
     3  C   -0.487720
     4  H    0.148730
     5  H    0.147081
     6  H    0.151809
     7  H    0.147405
     8  H    0.147116
     9  H    0.149796
    10  H    0.191090
    11  C   -0.297234
    12  C   -0.298982
    13  C   -0.475187
    14  H    0.148690
    15  H    0.146710
    16  H    0.151854
    17  H    0.150975
    18  H    0.153544
    19  H    0.154560
    20  H    0.158909
    21  C   -0.170515
    22  C   -0.218598
    23  C   -0.170511
    24  C    0.157888
    25  C   -0.170629
    26  C   -0.218547
    27  H    0.226043
    28  H    0.223850
    29  H    0.275869
    30  H    0.275856
    31  H    0.223863
    32  N    0.490688
    33  O   -0.461937
    34  O   -0.458777
 Sum of Mulliken charges =  -0.00000

 Dipole moment (field-independent basis, Debye):
    X=             -3.2572    Y=              4.1770    Z=              0.8201  Tot=              5.3600
 Quadrupole moment (field-independent basis, Debye-Ang):
   XX=            -77.2274   YY=            -97.5305   ZZ=            -90.1307
   XY=            -13.5662   XZ=             -0.3573   YZ=              0.7984

 Normal termination of Gaussian 16 at Thu May  6 20:31:50 2021.
