 Gaussian 16, Revision A.03,
 Gaussian 16:  EM64L-G16RevA.03 25-Dec-2016

 -------------
 #p 6-31g* mp2
 -------------

 ------------------------------------------------------
 Input file generated by CHIRIPA (05-May-2021 14:51:09)
 ------------------------------------------------------
 Symbolic Z-matrix:
 Charge =  0 Multiplicity = 1

                         Standard orientation:
 ---------------------------------------------------------------------
 Center     Atomic      Atomic             Coordinates (Angstroms)
 Number     Number       Type             X           Y           Z
 ---------------------------------------------------------------------
      1          6           0       -2.996691    0.053874   -0.069601
      2          6           0       -2.800049   -1.075466    0.942283
      3          6           0       -3.680262   -2.291020    0.649970
      4          1           0       -4.052898    0.356148   -0.071474
      5          1           0       -2.778038   -0.324378   -1.077823
      6          1           0       -3.017670   -0.694826    1.948449
      7          1           0       -1.744151   -1.374957    0.941885
      8          1           0       -3.458412   -2.697690   -0.342000
      9          1           0       -4.739167   -2.013695    0.670284
     10          1           0       -3.523663   -3.086265    1.385444
     11          6           0       -2.123575    1.276011    0.209285
     12          6           0       -2.320218    2.405350   -0.802599
     13          6           0       -1.440005    3.620904   -0.510286
     14          1           0       -2.342229    1.654262    1.217507
     15          1           0       -1.067369    0.973736    0.211157
     16          1           0       -3.376116    2.704841   -0.802201
     17          1           0       -2.102597    2.024710   -1.808765
     18          1           0       -0.381100    3.343579   -0.530600
     19          1           0       -1.661855    4.027574    0.481684
     20          1           0       -1.596603    4.416149   -1.245760
     21          6           0        2.539963   -1.426822   -0.120475
     22          6           0        1.222096   -1.962597   -0.680973
     23          6           0        1.197031   -3.488407   -0.776203
     24          1           0        3.367775   -1.769597   -0.756225
     25          1           0        2.710149   -1.860096    0.874867
     26          1           0        1.053765   -1.527370   -1.674380
     27          1           0        0.397307   -1.618348   -0.043924
     28          1           0        1.339952   -3.938441    0.211544
     29          1           0        2.000139   -3.846946   -1.428176
     30          1           0        0.245895   -3.849923   -1.179324
     31          6           0        2.580304    0.096938   -0.019209
     32          6           0        3.898171    0.632713    0.541289
     33          6           0        3.923235    2.158523    0.636520
     34          1           0        2.410118    0.530211   -1.014550
     35          1           0        1.752492    0.439712    0.616541
     36          1           0        4.722960    0.288464   -0.095760
     37          1           0        4.066503    0.197486    1.534696
     38          1           0        3.120127    2.517061    1.288493
     39          1           0        3.780315    2.608556   -0.351227
     40          1           0        4.874372    2.520039    1.039640
 ---------------------------------------------------------------------

 SCF Done:  E(RHF) =  -470.733367279     A.U. after   11 cycles
 E2 =    -0.1583823781D+01 EUMP2 =    -0.47231719106054D+03

 The electronic state is 1-A.
 Alpha  occ. eigenvalues --  -11.21665 -11.21646 -11.21592 -11.21572 -11.21472
 Alpha  occ. eigenvalues --  -11.21412 -11.21380 -11.21320 -11.21127 -11.21098
 Alpha  occ. eigenvalues --  -11.21070 -11.21034  -1.08501  -1.08404  -1.03590
 Alpha  occ. eigenvalues --   -1.03505  -0.96031  -0.95956  -0.87048  -0.86972
 Alpha  occ. eigenvalues --   -0.79686  -0.79547  -0.78390  -0.78154  -0.65246
 Alpha  occ. eigenvalues --   -0.64934  -0.61100  -0.60809  -0.59407  -0.59312
 Alpha  occ. eigenvalues --   -0.57652  -0.57558  -0.55335  -0.55222  -0.52724
 Alpha  occ. eigenvalues --   -0.52653  -0.52462  -0.52377  -0.50021  -0.49860
 Alpha  occ. eigenvalues --   -0.48077  -0.47826  -0.46895  -0.46438  -0.46263
 Alpha  occ. eigenvalues --   -0.45794  -0.45727  -0.45173  -0.43837  -0.43762
 Alpha virt. eigenvalues --    0.20050   0.22625   0.23603   0.24597   0.25234
 Alpha virt. eigenvalues --    0.26620   0.27097   0.27458   0.28392   0.29632
 Alpha virt. eigenvalues --    0.30914   0.31346   0.31671   0.31863   0.32305

 Mulliken charges:
               1
     1  C   -0.297547
     2  C   -0.307085
     3  C   -0.475216
     4  H    0.149655
     5  H    0.149931
     6  H    0.151831
     7  H    0.158101
     8  H    0.155095
     9  H    0.155268
    10  H    0.160153
    11  C   -0.303636
    12  C   -0.299258
    13  C   -0.476333
    14  H    0.148998
    15  H    0.154399
    16  H    0.151784
    17  H    0.151959
    18  H    0.156199
    19  H    0.154855
    20  H    0.160069
    21  C   -0.297472
    22  C   -0.309818
    23  C   -0.475341
    24  H    0.150058
    25  H    0.149734
    26  H    0.151702
    27  H    0.160550
    28  H    0.155378
    29  H    0.155569
    30  H    0.160394
    31  C   -0.301998
    32  C   -0.299619
    33  C   -0.476107
    34  H    0.149333
    35  H    0.152542
    36  H    0.152227
    37  H    0.152208
    38  H    0.155701
    39  H    0.155169
    40  H    0.160566
 Sum of Mulliken charges =  -0.00000

 Dipole moment (field-independent basis, Debye):
    X=              0.0327    Y=             -0.0125    Z=              0.0016  Tot=              0.0351
 Quadrupole moment (field-independent basis, Debye-Ang):
   XX=            -84.4167   YY=            -86.7233   ZZ=            -83.5564
   XY=             -0.9936   XZ=             -0.8349   YZ=             -0.0303

 Normal termination of Gaussian 16 at Wed May  5 15:08:10 2021.
