 Gaussian 16, Revision A.03,
 Gaussian 16:  EM64L-G16RevA.03 25-Dec-2016

 -------------
 #p 6-31g* mp2
 -------------

 ------------------------------------------------------
 Input file generated by CHIRIPA (05-May-2021 14:51:11)
 ------------------------------------------------------
 Symbolic Z-matrix:
 Charge =  0 Multiplicity = 1

                         Standard orientation:
 ---------------------------------------------------------------------
 Center     Atomic      Atomic             Coordinates (Angstroms)
 Number     Number       Type             X           Y           Z
 ---------------------------------------------------------------------
      1          6           0       -4.000358   -0.684175   -0.239807
      2          6           0       -5.156342    0.313021   -0.325159
      3          6           0       -6.265732   -0.147551   -1.271162
      4          1           0       -3.585356   -0.841616   -1.244760
      5          1           0       -4.388039   -1.656584    0.094139
      6          1           0       -4.766374    1.283630   -0.657515
      7          1           0       -5.568516    0.468253    0.680143
      8          1           0       -6.682202   -1.104233   -0.939631
      9          1           0       -5.875503   -0.284223   -2.284889
     10          1           0       -7.081978    0.580112   -1.317082
     11          6           0       -2.883495   -0.237775    0.702039
     12          6           0       -1.727511   -1.234972    0.787391
     13          6           0       -0.618121   -0.774400    1.733394
     14          1           0       -2.495815    0.734633    0.368093
     15          1           0       -3.298497   -0.080334    1.706992
     16          1           0       -1.315337   -1.390203   -0.217911
     17          1           0       -2.117479   -2.205580    1.119747
     18          1           0       -1.008351   -0.637727    2.747121
     19          1           0       -0.201651    0.182283    1.401863
     20          1           0        0.198125   -1.502063    1.779314
     21          6           0        3.747915   -0.123517   -0.616048
     22          6           0        5.054312   -0.633354   -0.006641
     23          6           0        5.654280   -1.802749   -0.787888
     24          1           0        3.023651   -0.948531   -0.657737
     25          1           0        3.931491    0.184042   -1.654846
     26          1           0        4.868627   -0.938567    1.031136
     27          1           0        5.775487    0.193018    0.033779
     28          1           0        5.867771   -1.507237   -1.820214
     29          1           0        4.955758   -2.645251   -0.817190
     30          1           0        6.587589   -2.151454   -0.334901
     31          6           0        3.135938    1.045468    0.153815
     32          6           0        1.829541    1.555304   -0.455591
     33          6           0        1.229574    2.724700    0.325656
     34          1           0        2.952363    0.737909    1.192614
     35          1           0        3.860203    1.870482    0.195505
     36          1           0        1.108367    0.728933   -0.496011
     37          1           0        2.015227    1.860517   -1.493369
     38          1           0        1.928096    3.567203    0.354957
     39          1           0        1.016083    2.429188    1.357982
     40          1           0        0.296265    3.073406   -0.127332
 ---------------------------------------------------------------------

 SCF Done:  E(RHF) =  -470.732883350     A.U. after   11 cycles
 E2 =    -0.1583500943D+01 EUMP2 =    -0.47231638429320D+03

 The electronic state is 1-A.
 Alpha  occ. eigenvalues --  -11.21641 -11.21609 -11.21596 -11.21593 -11.21420
 Alpha  occ. eigenvalues --  -11.21395 -11.21360 -11.21335 -11.21115 -11.21076
 Alpha  occ. eigenvalues --  -11.21070 -11.21066  -1.08465  -1.08415  -1.03603
 Alpha  occ. eigenvalues --   -1.03495  -0.96037  -0.95958  -0.87020  -0.87007
 Alpha  occ. eigenvalues --   -0.79624  -0.79594  -0.78260  -0.78240  -0.65254
 Alpha  occ. eigenvalues --   -0.64937  -0.61305  -0.60640  -0.59376  -0.59348
 Alpha  occ. eigenvalues --   -0.57611  -0.57600  -0.55491  -0.55066  -0.52694
 Alpha  occ. eigenvalues --   -0.52688  -0.52460  -0.52362  -0.49941  -0.49931
 Alpha  occ. eigenvalues --   -0.48008  -0.47822  -0.46686  -0.46583  -0.45845
 Alpha  occ. eigenvalues --   -0.45753  -0.45708  -0.45665  -0.43804  -0.43788
 Alpha virt. eigenvalues --    0.20292   0.23073   0.23707   0.24635   0.26380
 Alpha virt. eigenvalues --    0.26459   0.26887   0.27847   0.28245   0.29320
 Alpha virt. eigenvalues --    0.30751   0.30926   0.31543   0.31738   0.32241

 Mulliken charges:
               1
     1  C   -0.298373
     2  C   -0.299669
     3  C   -0.475727
     4  H    0.149721
     5  H    0.149549
     6  H    0.151978
     7  H    0.151988
     8  H    0.155183
     9  H    0.155212
    10  H    0.160301
    11  C   -0.298587
    12  C   -0.300431
    13  C   -0.484711
    14  H    0.149976
    15  H    0.149817
    16  H    0.151891
    17  H    0.152247
    18  H    0.155361
    19  H    0.165578
    20  H    0.159281
    21  C   -0.298517
    22  C   -0.299707
    23  C   -0.475699
    24  H    0.149896
    25  H    0.149334
    26  H    0.152088
    27  H    0.151914
    28  H    0.155127
    29  H    0.155131
    30  H    0.160255
    31  C   -0.298389
    32  C   -0.304767
    33  C   -0.478815
    34  H    0.150797
    35  H    0.149637
    36  H    0.155698
    37  H    0.152486
    38  H    0.156267
    39  H    0.156838
    40  H    0.159839
 Sum of Mulliken charges =  -0.00000

 Dipole moment (field-independent basis, Debye):
    X=              0.0001    Y=              0.0141    Z=              0.0072  Tot=              0.0158
 Quadrupole moment (field-independent basis, Debye-Ang):
   XX=            -85.3581   YY=            -84.9153   ZZ=            -84.4941
   XY=              0.8903   XZ=             -0.9725   YZ=             -1.2377

 Normal termination of Gaussian 16 at Wed May  5 16:45:04 2021.
