 Gaussian 16, Revision A.03,
 Gaussian 16:  EM64L-G16RevA.03 25-Dec-2016

 -------------
 #p 6-31g* mp2
 -------------

 ------------------------------------------------------
 Input file generated by CHIRIPA (05-May-2021 14:53:17)
 ------------------------------------------------------
 Symbolic Z-matrix:
 Charge =  0 Multiplicity = 1

                         Standard orientation:
 ---------------------------------------------------------------------
 Center     Atomic      Atomic             Coordinates (Angstroms)
 Number     Number       Type             X           Y           Z
 ---------------------------------------------------------------------
      1          6           0        3.767435    0.819667   -0.303072
      2          6           0        3.383688    1.734412    0.860528
      3          6           0        2.259293    2.706607    0.502247
      4          1           0        4.072516    1.435560   -1.160129
      5          1           0        2.881278    0.254675   -0.623861
      6          1           0        4.270628    2.296494    1.179929
      7          1           0        3.079668    1.116266    1.714977
      8          1           0        1.358446    2.160650    0.203907
      9          1           0        2.556173    3.347584   -0.334181
     10          1           0        2.000882    3.350947    1.348362
     11          6           0        4.890190   -0.157928    0.039647
     12          6           0        5.273937   -1.072673   -1.123953
     13          6           0        6.398332   -2.044869   -0.765673
     14          1           0        5.776347    0.407064    0.360435
     15          1           0        4.585109   -0.773821    0.896703
     16          1           0        5.577957   -0.454528   -1.978402
     17          1           0        4.386998   -1.634756   -1.443355
     18          1           0        6.101452   -2.685846    0.070755
     19          1           0        7.299179   -1.498912   -0.467332
     20          1           0        6.656743   -2.689209   -1.611788
     21          6           0       -1.440964   -0.878112    1.591128
     22          6           0       -2.524474   -1.751968    1.453644
     23          6           0       -3.605310   -1.419009    0.631769
     24          6           0       -3.569526   -0.198589   -0.040976
     25          6           0       -2.504463    0.693243    0.075494
     26          6           0       -1.434428    0.339558    0.902827
     27          1           0       -0.605540   -1.144813    2.231700
     28          1           0       -2.532257   -2.698296    1.986983
     29          1           0       -4.456890   -2.076824    0.507237
     30          1           0       -2.525232    1.629548   -0.468859
     31          1           0       -0.594298    1.020167    1.007702
     32          7           0       -4.708041    0.164871   -0.913947
     33          8           0       -4.652431    1.246007   -1.495918
     34          8           0       -5.634462   -0.638267   -0.999683
 ---------------------------------------------------------------------

 SCF Done:  E(RHF) =  -669.535506097     A.U. after   15 cycles
 E2 =    -0.2090851190D+01 EUMP2 =    -0.67162635728709D+03

 The electronic state is 1-A.
 Alpha  occ. eigenvalues --  -20.60749 -20.60744 -15.85802 -11.31173 -11.27747
 Alpha  occ. eigenvalues --  -11.27736 -11.27492 -11.26764 -11.26729 -11.22473
 Alpha  occ. eigenvalues --  -11.22102 -11.22097 -11.22086 -11.21971 -11.21497
 Alpha  occ. eigenvalues --   -1.59824  -1.39378  -1.19347  -1.09113  -1.08742
 Alpha  occ. eigenvalues --   -1.04752  -1.04227  -0.96682  -0.95576  -0.87701
 Alpha  occ. eigenvalues --   -0.86150  -0.82409  -0.80292  -0.78894  -0.77454
 Alpha  occ. eigenvalues --   -0.72021  -0.71148  -0.70459  -0.65770  -0.64999
 Alpha  occ. eigenvalues --   -0.64768  -0.62164  -0.61576  -0.60051  -0.58271
 Alpha  occ. eigenvalues --   -0.56005  -0.55246  -0.53379  -0.53147  -0.53076
 Alpha  occ. eigenvalues --   -0.52799  -0.50613  -0.48784  -0.48775  -0.48592
 Alpha  occ. eigenvalues --   -0.47325  -0.46440  -0.46354  -0.44782  -0.44464
 Alpha  occ. eigenvalues --   -0.37332  -0.36353
 Alpha virt. eigenvalues --    0.05080   0.11269   0.16544   0.19617   0.22594
 Alpha virt. eigenvalues --    0.23669   0.25566   0.26280   0.27043   0.28322
 Alpha virt. eigenvalues --    0.28558   0.30255   0.30966   0.31401   0.32047

 Mulliken charges:
               1
     1  C   -0.299034
     2  C   -0.299779
     3  C   -0.481164
     4  H    0.152854
     5  H    0.148487
     6  H    0.156375
     7  H    0.147326
     8  H    0.148108
     9  H    0.162189
    10  H    0.162265
    11  C   -0.298317
    12  C   -0.300204
    13  C   -0.475960
    14  H    0.151212
    15  H    0.147662
    16  H    0.153688
    17  H    0.152252
    18  H    0.154558
    19  H    0.156064
    20  H    0.162042
    21  C   -0.172431
    22  C   -0.218492
    23  C   -0.171064
    24  C    0.158688
    25  C   -0.172851
    26  C   -0.226251
    27  H    0.225601
    28  H    0.223266
    29  H    0.275575
    30  H    0.275935
    31  H    0.234166
    32  N    0.488100
    33  O   -0.460281
    34  O   -0.460583
 Sum of Mulliken charges =  -0.00000

 Dipole moment (field-independent basis, Debye):
    X=              4.2044    Y=             -1.2471    Z=              3.0292  Tot=              5.3300
 Quadrupole moment (field-independent basis, Debye-Ang):
   XX=           -122.3765   YY=            -90.5603   ZZ=            -95.4386
   XY=              7.3519   XZ=            -12.2592   YZ=             -1.9210

 Normal termination of Gaussian 16 at Thu May  6 22:04:11 2021.
