 Gaussian 16, Revision A.03,
 Gaussian 16:  EM64L-G16RevA.03 25-Dec-2016

 -------------
 #p 6-31g* mp2
 -------------

 ------------------------------------------------------
 Input file generated by CHIRIPA (05-May-2021 14:53:15)
 ------------------------------------------------------
 Symbolic Z-matrix:
 Charge =  0 Multiplicity = 1

                         Standard orientation:
 ---------------------------------------------------------------------
 Center     Atomic      Atomic             Coordinates (Angstroms)
 Number     Number       Type             X           Y           Z
 ---------------------------------------------------------------------
      1          6           0       -3.633128   -0.341829   -0.107903
      2          6           0       -4.468673   -1.300937    0.740603
      3          6           0       -4.509907   -2.716787    0.164877
      4          1           0       -4.041978   -0.312950   -1.127193
      5          1           0       -2.610248   -0.734215   -0.192418
      6          1           0       -5.489310   -0.906155    0.824644
      7          1           0       -4.057902   -1.327390    1.758043
      8          1           0       -3.500215   -3.134491    0.096705
      9          1           0       -4.939756   -2.710862   -0.841998
     10          1           0       -5.112519   -3.385793    0.787091
     11          6           0       -3.582347    1.077522    0.454763
     12          6           0       -2.746803    2.036630   -0.393744
     13          6           0       -2.705568    3.452480    0.181983
     14          1           0       -4.605228    1.469908    0.539278
     15          1           0       -3.173497    1.048643    1.474053
     16          1           0       -3.157573    2.063083   -1.411183
     17          1           0       -1.726165    1.641848   -0.477785
     18          1           0       -2.275719    3.446555    1.188857
     19          1           0       -3.715260    3.870184    0.250155
     20          1           0       -2.102956    4.121486   -0.440232
     21          6           0        5.059570    0.546937    0.669272
     22          6           0        4.124344    1.446236    0.146646
     23          6           0        2.879520    0.995157   -0.302228
     24          6           0        2.601891   -0.368039   -0.213293
     25          6           0        3.512688   -1.288792    0.302410
     26          6           0        4.751301   -0.815304    0.745351
     27          1           0        6.024167    0.906050    1.015663
     28          1           0        4.361020    2.504721    0.086347
     29          1           0        2.136976    1.669515   -0.711239
     30          1           0        3.248000   -2.338135    0.349720
     31          1           0        5.475668   -1.516000    1.150766
     32          7           0        1.287339   -0.857437   -0.685356
     33          8           0        1.067028   -2.063319   -0.596199
     34          8           0        0.502197   -0.025879   -1.135577
 ---------------------------------------------------------------------

 SCF Done:  E(RHF) =  -669.536525849     A.U. after   15 cycles
 E2 =    -0.2091359758D+01 EUMP2 =    -0.67162788560695D+03

 The electronic state is 1-A.
 Alpha  occ. eigenvalues --  -20.61071 -20.61065 -15.86088 -11.31363 -11.27920
 Alpha  occ. eigenvalues --  -11.27917 -11.27650 -11.26917 -11.26907 -11.20534
 Alpha  occ. eigenvalues --  -11.20371 -11.20302 -11.20271 -11.20021 -11.20004
 Alpha  occ. eigenvalues --   -1.60121  -1.39678  -1.19527  -1.08940  -1.07266
 Alpha  occ. eigenvalues --   -1.04916  -1.02471  -0.95789  -0.94948  -0.86319
 Alpha  occ. eigenvalues --   -0.85965  -0.82626  -0.78515  -0.77684  -0.77038
 Alpha  occ. eigenvalues --   -0.72307  -0.71429  -0.70635  -0.65185  -0.64918
 Alpha  occ. eigenvalues --   -0.63892  -0.62263  -0.59871  -0.58319  -0.56548
 Alpha  occ. eigenvalues --   -0.55423  -0.54243  -0.53251  -0.53007  -0.51683
 Alpha  occ. eigenvalues --   -0.51366  -0.49085  -0.49074  -0.48867  -0.46841
 Alpha  occ. eigenvalues --   -0.45577  -0.45118  -0.44630  -0.44333  -0.42699
 Alpha  occ. eigenvalues --   -0.37503  -0.36515
 Alpha virt. eigenvalues --    0.04805   0.11141   0.16284   0.21219   0.23995
 Alpha virt. eigenvalues --    0.25232   0.27140   0.27599   0.28052   0.28895
 Alpha virt. eigenvalues --    0.29096   0.30851   0.32029   0.32476   0.32671

 Mulliken charges:
               1
     1  C   -0.303725
     2  C   -0.298439
     3  C   -0.476201
     4  H    0.147312
     5  H    0.169439
     6  H    0.147084
     7  H    0.148555
     8  H    0.161824
     9  H    0.153625
    10  H    0.155079
    11  C   -0.296565
    12  C   -0.309134
    13  C   -0.474840
    14  H    0.143916
    15  H    0.144849
    16  H    0.149668
    17  H    0.174627
    18  H    0.150569
    19  H    0.152216
    20  H    0.154969
    21  C   -0.170434
    22  C   -0.218545
    23  C   -0.170601
    24  C    0.157597
    25  C   -0.170660
    26  C   -0.218585
    27  H    0.226301
    28  H    0.224243
    29  H    0.276008
    30  H    0.275943
    31  H    0.224066
    32  N    0.492063
    33  O   -0.458734
    34  O   -0.463489
 Sum of Mulliken charges =  -0.00000

 Dipole moment (field-independent basis, Debye):
    X=              5.0213    Y=              1.5651    Z=              1.5526  Tot=              5.4839
 Quadrupole moment (field-independent basis, Debye-Ang):
   XX=            -71.4470   YY=            -93.5288   ZZ=            -95.9348
   XY=              1.4730   XZ=              4.7150   YZ=             -2.7986

 Normal termination of Gaussian 16 at Thu May  6 02:43:53 2021.
