 Gaussian 16, Revision A.03,
 Gaussian 16:  EM64L-G16RevA.03 25-Dec-2016

 -------------
 #p 6-31g* mp2
 -------------

 ------------------------------------------------------
 Input file generated by CHIRIPA (05-May-2021 14:51:08)
 ------------------------------------------------------
 Symbolic Z-matrix:
 Charge =  0 Multiplicity = 1

                         Standard orientation:
 ---------------------------------------------------------------------
 Center     Atomic      Atomic             Coordinates (Angstroms)
 Number     Number       Type             X           Y           Z
 ---------------------------------------------------------------------
      1          6           0        1.936806    0.575104   -0.501766
      2          6           0        1.914194    1.730567   -1.502955
      3          6           0        0.644453    2.576250   -1.401108
      4          1           0        1.056511   -0.061317   -0.666066
      5          1           0        1.844870    0.979103    0.515941
      6          1           0        2.007537    1.324609   -2.518386
      7          1           0        2.794746    2.364204   -1.336378
      8          1           0        0.548775    3.008510   -0.399810
      9          1           0       -0.242907    1.963008   -1.588535
     10          1           0        0.649209    3.396498   -2.125698
     11          6           0        3.199891   -0.279483   -0.591348
     12          6           0        3.222503   -1.434946    0.409840
     13          6           0        4.492244   -2.280629    0.307994
     14          1           0        3.291828   -0.683481   -1.609056
     15          1           0        4.080186    0.356938   -0.427049
     16          1           0        2.341951   -2.068583    0.243263
     17          1           0        3.129160   -1.028988    1.425272
     18          1           0        5.379604   -1.667387    0.495420
     19          1           0        4.587922   -2.712889   -0.693304
     20          1           0        4.487488   -3.100877    1.032583
     21          6           0       -2.240731    0.484994    0.821614
     22          6           0       -1.287057    0.216898    1.986353
     23          6           0       -0.639446    1.492596    2.525787
     24          1           0       -1.691170    0.988473    0.014498
     25          1           0       -3.022655    1.183493    1.150385
     26          1           0       -0.507959   -0.481966    1.655884
     27          1           0       -1.838907   -0.286173    2.790716
     28          1           0       -1.403220    2.191431    2.881988
     29          1           0       -0.064710    1.994526    1.740709
     30          1           0        0.038391    1.277838    3.357817
     31          6           0       -2.895966   -0.780616    0.271500
     32          6           0       -3.849640   -0.512520   -0.893239
     33          6           0       -4.497252   -1.788217   -1.432672
     34          1           0       -2.114042   -1.479114   -0.057271
     35          1           0       -3.445526   -1.284094    1.078617
     36          1           0       -3.297789   -0.009448   -1.697600
     37          1           0       -4.628739    0.186345   -0.562769
     38          1           0       -5.071988   -2.290147   -0.647595
     39          1           0       -3.733477   -2.487052   -1.788873
     40          1           0       -5.175088   -1.573459   -2.264703
 ---------------------------------------------------------------------

 SCF Done:  E(RHF) =  -470.731935101     A.U. after   11 cycles
 E2 =    -0.1585470481D+01 EUMP2 =    -0.47231740558245D+03

 The electronic state is 1-A.
 Alpha  occ. eigenvalues --  -11.21687 -11.21659 -11.21594 -11.21485 -11.21466
 Alpha  occ. eigenvalues --  -11.21406 -11.21349 -11.21236 -11.21165 -11.21111
 Alpha  occ. eigenvalues --  -11.21068 -11.20971  -1.08529  -1.08352  -1.03627
 Alpha  occ. eigenvalues --   -1.03460  -0.96063  -0.95931  -0.87080  -0.86951
 Alpha  occ. eigenvalues --   -0.79718  -0.79513  -0.78357  -0.78163  -0.65164
 Alpha  occ. eigenvalues --   -0.65007  -0.61069  -0.60874  -0.59443  -0.59261
 Alpha  occ. eigenvalues --   -0.57686  -0.57545  -0.55395  -0.55206  -0.52744
 Alpha  occ. eigenvalues --   -0.52638  -0.52513  -0.52357  -0.50059  -0.49879
 Alpha  occ. eigenvalues --   -0.48202  -0.47773  -0.46733  -0.46517  -0.46095
 Alpha  occ. eigenvalues --   -0.45693  -0.45601  -0.45297  -0.43854  -0.43725
 Alpha virt. eigenvalues --    0.20194   0.23059   0.23066   0.24112   0.25069
 Alpha virt. eigenvalues --    0.26176   0.26343   0.28202   0.29048   0.29528
 Alpha virt. eigenvalues --    0.30812   0.31436   0.31512   0.31969   0.32453

 Mulliken charges:
               1
     1  C   -0.305207
     2  C   -0.299787
     3  C   -0.482922
     4  H    0.150940
     5  H    0.155845
     6  H    0.152037
     7  H    0.152331
     8  H    0.158712
     9  H    0.158302
    10  H    0.161465
    11  C   -0.297959
    12  C   -0.300258
    13  C   -0.475720
    14  H    0.149532
    15  H    0.149955
    16  H    0.151632
    17  H    0.152484
    18  H    0.155387
    19  H    0.155273
    20  H    0.160533
    21  C   -0.307034
    22  C   -0.300483
    23  C   -0.482592
    24  H    0.158992
    25  H    0.149052
    26  H    0.154608
    27  H    0.151268
    28  H    0.154752
    29  H    0.161801
    30  H    0.158849
    31  C   -0.298178
    32  C   -0.299472
    33  C   -0.475598
    34  H    0.148327
    35  H    0.149701
    36  H    0.150788
    37  H    0.152267
    38  H    0.155331
    39  H    0.154844
    40  H    0.160204
 Sum of Mulliken charges =  -0.00000

 Dipole moment (field-independent basis, Debye):
    X=              0.0576    Y=              0.0290    Z=             -0.0272  Tot=              0.0700
 Quadrupole moment (field-independent basis, Debye-Ang):
   XX=            -84.9970   YY=            -85.5511   ZZ=            -84.2575
   XY=              0.3471   XZ=             -0.4634   YZ=              0.0559

 Normal termination of Gaussian 16 at Thu May  6 06:51:50 2021.
