 Gaussian 16, Revision A.03,
 Gaussian 16:  EM64L-G16RevA.03 25-Dec-2016

 -------------
 #p 6-31g* mp2
 -------------

 ------------------------------------------------------
 Input file generated by CHIRIPA (05-May-2021 14:53:17)
 ------------------------------------------------------
 Symbolic Z-matrix:
 Charge =  0 Multiplicity = 1

                         Standard orientation:
 ---------------------------------------------------------------------
 Center     Atomic      Atomic             Coordinates (Angstroms)
 Number     Number       Type             X           Y           Z
 ---------------------------------------------------------------------
      1          6           0        5.148948   -0.280600   -0.070094
      2          6           0        6.033053    0.957920   -0.219795
      3          6           0        7.522922    0.618067   -0.270649
      4          1           0        5.435027   -0.819220    0.843686
      5          1           0        5.341734   -0.963711   -0.908896
      6          1           0        5.837651    1.639118    0.618300
      7          1           0        5.744707    1.493757   -1.133223
      8          1           0        7.738692   -0.042609   -1.116552
      9          1           0        7.832164    0.103578    0.644923
     10          1           0        8.136543    1.517970   -0.377895
     11          6           0        3.656859    0.042915   -0.017766
     12          6           0        2.772754   -1.195605    0.131936
     13          6           0        1.282886   -0.855752    0.182790
     14          1           0        3.464073    0.726026    0.821036
     15          1           0        3.370780    0.581535   -0.931545
     16          1           0        3.061100   -1.731442    1.045364
     17          1           0        2.968156   -1.876803   -0.706159
     18          1           0        0.973643   -0.341263   -0.732782
     19          1           0        1.067115   -0.195076    1.028693
     20          1           0        0.669264   -1.755655    0.290036
     21          6           0       -3.115472   -2.409256    0.018794
     22          6           0       -4.147337   -1.832487   -0.728946
     23          6           0       -4.336357   -0.447274   -0.727796
     24          6           0       -3.471120    0.334740    0.035821
     25          6           0       -2.433908   -0.210123    0.791204
     26          6           0       -2.263553   -1.597665    0.775149
     27          1           0       -2.975886   -3.486228    0.012111
     28          1           0       -4.810470   -2.460321   -1.317270
     29          1           0       -5.127126    0.025524   -1.297503
     30          1           0       -1.788894    0.441651    1.367888
     31          1           0       -1.461348   -2.042836    1.356815
     32          7           0       -3.661347    1.802435    0.044928
     33          8           0       -2.885538    2.469507    0.725937
     34          8           0       -4.582654    2.257953   -0.629115
 ---------------------------------------------------------------------

 SCF Done:  E(RHF) =  -669.534797061     A.U. after   15 cycles
 E2 =    -0.2091845496D+01 EUMP2 =    -0.67162664255685D+03

 The electronic state is 1-A.
 Alpha  occ. eigenvalues --  -20.60719 -20.60714 -15.85772 -11.31124 -11.27692
 Alpha  occ. eigenvalues --  -11.27671 -11.27432 -11.26717 -11.26668 -11.22046
 Alpha  occ. eigenvalues --  -11.21727 -11.21703 -11.21655 -11.21570 -11.21176
 Alpha  occ. eigenvalues --   -1.59795  -1.39348  -1.19298  -1.08713  -1.08690
 Alpha  occ. eigenvalues --   -1.04703  -1.03842  -0.96313  -0.95532  -0.87347
 Alpha  occ. eigenvalues --   -0.86098  -0.82367  -0.79919  -0.78490  -0.77405
 Alpha  occ. eigenvalues --   -0.71991  -0.71117  -0.70408  -0.65331  -0.64949
 Alpha  occ. eigenvalues --   -0.64742  -0.62093  -0.61230  -0.59684  -0.57910
 Alpha  occ. eigenvalues --   -0.55591  -0.55205  -0.53368  -0.52986  -0.52716
 Alpha  occ. eigenvalues --   -0.52485  -0.50243  -0.48750  -0.48746  -0.48220
 Alpha  occ. eigenvalues --   -0.46930  -0.46039  -0.45946  -0.44757  -0.44094
 Alpha  occ. eigenvalues --   -0.37279  -0.36246
 Alpha virt. eigenvalues --    0.05106   0.11290   0.16550   0.20638   0.22721
 Alpha virt. eigenvalues --    0.24023   0.25845   0.26562   0.26897   0.27846
 Alpha virt. eigenvalues --    0.29183   0.29709   0.31305   0.31560   0.32245

 Mulliken charges:
               1
     1  C   -0.298521
     2  C   -0.300044
     3  C   -0.475880
     4  H    0.149253
     5  H    0.149410
     6  H    0.153023
     7  H    0.153134
     8  H    0.155047
     9  H    0.154977
    10  H    0.161297
    11  C   -0.299270
    12  C   -0.300396
    13  C   -0.477503
    14  H    0.151259
    15  H    0.152114
    16  H    0.150756
    17  H    0.152751
    18  H    0.162411
    19  H    0.152071
    20  H    0.152691
    21  C   -0.172667
    22  C   -0.218480
    23  C   -0.171228
    24  C    0.157699
    25  C   -0.169577
    26  C   -0.215461
    27  H    0.225049
    28  H    0.223073
    29  H    0.275277
    30  H    0.276226
    31  H    0.224610
    32  N    0.488126
    33  O   -0.460503
    34  O   -0.460725
 Sum of Mulliken charges =  -0.00000

 Dipole moment (field-independent basis, Debye):
    X=              0.7718    Y=             -5.1280    Z=             -0.0760  Tot=              5.1863
 Quadrupole moment (field-independent basis, Debye-Ang):
   XX=            -97.7416   YY=            -98.9583   ZZ=            -92.3503
   XY=             19.0367   XZ=              2.9774   YZ=              0.2694

 Normal termination of Gaussian 16 at Wed May  5 22:00:49 2021.
