 Gaussian 16, Revision A.03,
 Gaussian 16:  EM64L-G16RevA.03 25-Dec-2016

 -------------
 #p 6-31g* mp2
 -------------

 ------------------------------------------------------
 Input file generated by CHIRIPA (05-May-2021 14:53:13)
 ------------------------------------------------------
 Symbolic Z-matrix:
 Charge =  0 Multiplicity = 1

                         Standard orientation:
 ---------------------------------------------------------------------
 Center     Atomic      Atomic             Coordinates (Angstroms)
 Number     Number       Type             X           Y           Z
 ---------------------------------------------------------------------
      1          6           0       -3.503937   -0.266947   -0.117242
      2          6           0       -3.109554   -1.584361   -0.785725
      3          6           0       -1.594712   -1.770713   -0.876930
      4          1           0       -3.063501    0.568158   -0.678990
      5          1           0       -3.067721   -0.230256    0.890609
      6          1           0       -3.547533   -1.619162   -1.791498
      7          1           0       -3.551139   -2.416418   -0.222431
      8          1           0       -1.144748   -1.762244    0.121099
      9          1           0       -1.141122   -0.960458   -1.456883
     10          1           0       -1.335105   -2.718844   -1.358087
     11          6           0       -5.015136   -0.066204   -0.018716
     12          6           0       -5.409518    1.251210    0.649767
     13          6           0       -6.924361    1.437562    0.740972
     14          1           0       -5.451352   -0.102896   -1.026567
     15          1           0       -5.455572   -0.901309    0.543032
     16          1           0       -4.967934    2.083267    0.086473
     17          1           0       -4.971539    1.286011    1.655540
     18          1           0       -7.377951    0.627307    1.320925
     19          1           0       -7.374325    1.429093   -0.257057
     20          1           0       -7.183968    2.385693    1.222129
     21          6           0        2.788679   -2.279782    0.570413
     22          6           0        2.062468   -1.594772   -0.409334
     23          6           0        2.352489   -0.259310   -0.704250
     24          6           0        3.379880    0.363119    0.003098
     25          6           0        4.121391   -0.292443    0.984775
     26          6           0        3.814014   -1.627580    1.263118
     27          1           0        2.556642   -3.317074    0.793075
     28          1           0        1.265641   -2.098748   -0.948888
     29          1           0        1.806139    0.294763   -1.457856
     30          1           0        4.910034    0.236624    1.505877
     31          1           0        4.379660   -2.157077    2.024514
     32          7           0        3.696098    1.776742   -0.300346
     33          8           0        4.606022    2.302577    0.336971
     34          8           0        3.028040    2.332135   -1.169754
 ---------------------------------------------------------------------

 SCF Done:  E(RHF) =  -669.535336565     A.U. after   15 cycles
 E2 =    -0.2091439939D+01 EUMP2 =    -0.67162677650398D+03

 The electronic state is 1-A.
 Alpha  occ. eigenvalues --  -20.60707 -20.60702 -15.85758 -11.31104 -11.27665
 Alpha  occ. eigenvalues --  -11.27644 -11.27389 -11.26690 -11.26586 -11.22239
 Alpha  occ. eigenvalues --  -11.22061 -11.21803 -11.21786 -11.21664 -11.21215
 Alpha  occ. eigenvalues --   -1.59783  -1.39337  -1.19266  -1.08837  -1.08665
 Alpha  occ. eigenvalues --   -1.04665  -1.03991  -0.96481  -0.95507  -0.87533
 Alpha  occ. eigenvalues --   -0.86050  -0.82339  -0.80083  -0.78603  -0.77376
 Alpha  occ. eigenvalues --   -0.71978  -0.71105  -0.70380  -0.65461  -0.64915
 Alpha  occ. eigenvalues --   -0.64666  -0.62024  -0.61385  -0.59871  -0.58050
 Alpha  occ. eigenvalues --   -0.55759  -0.55176  -0.53372  -0.53075  -0.52858
 Alpha  occ. eigenvalues --   -0.52517  -0.50414  -0.48735  -0.48734  -0.48366
 Alpha  occ. eigenvalues --   -0.47073  -0.46155  -0.46048  -0.44747  -0.44231
 Alpha  occ. eigenvalues --   -0.37249  -0.36243
 Alpha virt. eigenvalues --    0.05133   0.11341   0.16602   0.20745   0.22527
 Alpha virt. eigenvalues --    0.23878   0.25635   0.26307   0.27013   0.27923
 Alpha virt. eigenvalues --    0.28874   0.29683   0.30968   0.31462   0.32149

 Mulliken charges:
               1
     1  C   -0.299485
     2  C   -0.299960
     3  C   -0.483610
     4  H    0.152327
     5  H    0.150674
     6  H    0.154436
     7  H    0.153344
     8  H    0.158964
     9  H    0.153879
    10  H    0.155478
    11  C   -0.298854
    12  C   -0.300216
    13  C   -0.476000
    14  H    0.150284
    15  H    0.149524
    16  H    0.153948
    17  H    0.152545
    18  H    0.154894
    19  H    0.155547
    20  H    0.161647
    21  C   -0.173545
    22  C   -0.220915
    23  C   -0.173997
    24  C    0.158698
    25  C   -0.171514
    26  C   -0.218329
    27  H    0.225260
    28  H    0.235478
    29  H    0.274805
    30  H    0.275151
    31  H    0.222880
    32  N    0.488177
    33  O   -0.460733
    34  O   -0.460781
 Sum of Mulliken charges =  -0.00000

 Dipole moment (field-independent basis, Debye):
    X=             -1.3018    Y=             -4.9557    Z=              1.0912  Tot=              5.2388
 Quadrupole moment (field-independent basis, Debye-Ang):
   XX=           -100.8258   YY=            -99.0036   ZZ=            -92.0513
   XY=            -17.2612   XZ=              6.6757   YZ=             -0.2290

 Normal termination of Gaussian 16 at Thu May  6 12:05:02 2021.
