 Gaussian 16, Revision A.03,
 Gaussian 16:  EM64L-G16RevA.03 25-Dec-2016

 -------------
 #p 6-31g* mp2
 -------------

 ------------------------------------------------------
 Input file generated by CHIRIPA (05-May-2021 14:57:21)
 ------------------------------------------------------
 Symbolic Z-matrix:
 Charge =  0 Multiplicity = 1

                         Standard orientation:
 ---------------------------------------------------------------------
 Center     Atomic      Atomic             Coordinates (Angstroms)
 Number     Number       Type             X           Y           Z
 ---------------------------------------------------------------------
      1          6           0        5.034105    2.129058   -0.607175
      2          6           0        3.725760    1.929162   -1.059720
      3          6           0        3.028005    0.765426   -0.722962
      4          6           0        3.671970   -0.181817    0.071599
      5          6           0        4.974604   -0.011623    0.537935
      6          6           0        5.653260    1.159736    0.188805
      7          1           0        5.568719    3.036037   -0.873583
      8          1           0        3.242412    2.680237   -1.678029
      9          1           0        2.014333    0.585114   -1.059672
     10          1           0        5.430033   -0.778377    1.152827
     11          1           0        6.669254    1.312299    0.541687
     12          7           0        2.943398   -1.417847    0.434659
     13          8           0        3.533019   -2.237136    1.135908
     14          8           0        1.796519   -1.543955    0.011101
     15          6           0       -5.654877    1.547806    0.645372
     16          6           0       -4.420208    1.614098    1.299373
     17          6           0       -3.380929    0.749321    0.943552
     18          6           0       -3.611956   -0.173649   -0.075292
     19          6           0       -4.830851   -0.264198   -0.745655
     20          6           0       -5.855905    0.610522   -0.373259
     21          1           0       -6.456689    2.223447    0.928220
     22          1           0       -4.261245    2.340999    2.090821
     23          1           0       -2.415174    0.779022    1.433301
     24          1           0       -4.959356   -0.999402   -1.530753
     25          1           0       -6.813725    0.556774   -0.882901
     26          7           0       -2.519249   -1.094412   -0.460757
     27          8           0       -2.748076   -1.898606   -1.361616
     28          8           0       -1.454646   -0.994477    0.145272
 ---------------------------------------------------------------------

 SCF Done:  E(RHF) =  -868.335118003     A.U. after   16 cycles
 E2 =    -0.2600302131D+01 EUMP2 =    -0.87093542013381D+03

 The electronic state is 1-A.
 Alpha  occ. eigenvalues --  -20.60099 -20.60040 -20.59726 -20.59593 -15.85130
 Alpha  occ. eigenvalues --  -15.84705 -11.30807 -11.30452 -11.27413 -11.27409
 Alpha  occ. eigenvalues --  -11.27211 -11.27095 -11.27029 -11.26911 -11.26499
 Alpha  occ. eigenvalues --  -11.26487 -11.26189 -11.26169  -1.59149  -1.58746
 Alpha  occ. eigenvalues --   -1.38694  -1.38278  -1.19010  -1.18672  -1.08347
 Alpha  occ. eigenvalues --   -1.08004  -1.04457  -1.04127  -0.95127  -0.94764
 Alpha  occ. eigenvalues --   -0.85840  -0.85507  -0.81959  -0.81577  -0.76959
 Alpha  occ. eigenvalues --   -0.76563  -0.71384  -0.70824  -0.70504  -0.70121
 Alpha  occ. eigenvalues --   -0.70084  -0.69773  -0.64651  -0.64462  -0.64303
 Alpha  occ. eigenvalues --   -0.64138  -0.61800  -0.61461  -0.54947  -0.54631
 Alpha  occ. eigenvalues --   -0.52774  -0.52552  -0.52445  -0.52222  -0.48122
 Alpha  occ. eigenvalues --   -0.48078  -0.47693  -0.47651  -0.44034  -0.43592
 Alpha  occ. eigenvalues --   -0.37011  -0.36686  -0.36078  -0.35752
 Alpha virt. eigenvalues --    0.05576   0.05960   0.11571   0.11898   0.17012
 Alpha virt. eigenvalues --    0.17375   0.21679   0.21988   0.27570   0.27867
 Alpha virt. eigenvalues --    0.28586   0.28945   0.31202   0.31514   0.32825

 Mulliken charges:
               1
     1  C   -0.172128
     2  C   -0.219235
     3  C   -0.172443
     4  C    0.158129
     5  C   -0.171857
     6  C   -0.218866
     7  H    0.222439
     8  H    0.220570
     9  H    0.281633
    10  H    0.274425
    11  H    0.220765
    12  N    0.486334
    13  O   -0.467533
    14  O   -0.442580
    15  C   -0.171871
    16  C   -0.218640
    17  C   -0.172415
    18  C    0.158501
    19  C   -0.171578
    20  C   -0.218537
    21  H    0.223911
    22  H    0.221720
    23  H    0.275890
    24  H    0.275481
    25  H    0.222168
    26  N    0.486572
    27  O   -0.461909
    28  O   -0.448946
 Sum of Mulliken charges =  -0.00000

 Dipole moment (field-independent basis, Debye):
    X=             -1.4140    Y=              7.4076    Z=              0.0591  Tot=              7.5416
 Quadrupole moment (field-independent basis, Debye-Ang):
   XX=            -56.3008   YY=           -107.7439   ZZ=           -102.7441
   XY=              4.3916   XZ=             -4.5771   YZ=              0.8685

 Normal termination of Gaussian 16 at Wed May  5 20:54:14 2021.
