 Gaussian 16, Revision A.03,
 Gaussian 16:  EM64L-G16RevA.03 25-Dec-2016

 -------------
 #p 6-31g* mp2
 -------------

 ------------------------------------------------------
 Input file generated by CHIRIPA (05-May-2021 14:57:26)
 ------------------------------------------------------
 Symbolic Z-matrix:
 Charge =  0 Multiplicity = 1

                         Standard orientation:
 ---------------------------------------------------------------------
 Center     Atomic      Atomic             Coordinates (Angstroms)
 Number     Number       Type             X           Y           Z
 ---------------------------------------------------------------------
      1          6           0        4.913442    1.300829   -0.896561
      2          6           0        4.155269    1.675334    0.217639
      3          6           0        3.221783    0.793397    0.770214
      4          6           0        3.071565   -0.460836    0.180618
      5          6           0        3.811997   -0.863206   -0.929854
      6          6           0        4.739692    0.034986   -1.465748
      7          1           0        5.636347    1.992252   -1.319335
      8          1           0        4.288088    2.657761    0.661758
      9          1           0        2.621637    1.057526    1.632466
     10          1           0        3.657286   -1.849318   -1.350646
     11          1           0        5.327116   -0.258565   -2.331084
     12          7           0        2.086390   -1.403107    0.756775
     13          8           0        1.972883   -2.502364    0.218827
     14          8           0        1.446372   -1.024560    1.735404
     15          6           0       -2.203682    2.573676    0.314411
     16          6           0       -3.523959    2.474274   -0.136706
     17          6           0       -4.105056    1.222783   -0.361751
     18          6           0       -3.333534    0.086264   -0.124338
     19          6           0       -2.015664    0.152546    0.325234
     20          6           0       -1.455068    1.414538    0.543538
     21          1           0       -1.760234    3.549942    0.486613
     22          1           0       -4.107715    3.372777   -0.315493
     23          1           0       -5.125014    1.116929   -0.710891
     24          1           0       -1.458754   -0.761016    0.494562
     25          1           0       -0.429497    1.488706    0.893892
     26          7           0       -3.937865   -1.244192   -0.359015
     27          8           0       -3.237039   -2.230364   -0.142343
     28          8           0       -5.100921   -1.275639   -0.755181
 ---------------------------------------------------------------------

 SCF Done:  E(RHF) =  -868.338713833     A.U. after   16 cycles
 E2 =    -0.2599919275D+01 EUMP2 =    -0.87093863310846D+03

 The electronic state is 1-A.
 Alpha  occ. eigenvalues --  -20.61637 -20.61557 -20.60044 -20.60003 -15.86608
 Alpha  occ. eigenvalues --  -15.85078 -11.31889 -11.30471 -11.28495 -11.28376
 Alpha  occ. eigenvalues --  -11.28125 -11.27452 -11.27374 -11.27133 -11.26920
 Alpha  occ. eigenvalues --  -11.26910 -11.26183 -11.26058  -1.60651  -1.59106
 Alpha  occ. eigenvalues --   -1.40207  -1.38653  -1.20039  -1.18678  -1.09445
 Alpha  occ. eigenvalues --   -1.08094  -1.05427  -1.04067  -0.96295  -0.94904
 Alpha  occ. eigenvalues --   -0.86828  -0.85484  -0.83128  -0.81719  -0.78202
 Alpha  occ. eigenvalues --   -0.76738  -0.72808  -0.71973  -0.71294  -0.71135
 Alpha  occ. eigenvalues --   -0.70433  -0.69804  -0.65689  -0.65422  -0.64329
 Alpha  occ. eigenvalues --   -0.64089  -0.62777  -0.61379  -0.55910  -0.54646
 Alpha  occ. eigenvalues --   -0.53758  -0.53513  -0.52433  -0.52159  -0.49589
 Alpha  occ. eigenvalues --   -0.49553  -0.48074  -0.48036  -0.45613  -0.44051
 Alpha  occ. eigenvalues --   -0.37999  -0.37025  -0.36721  -0.35678
 Alpha virt. eigenvalues --    0.04271   0.05771   0.10555   0.11959   0.15798
 Alpha virt. eigenvalues --    0.17225   0.20376   0.22024   0.25708   0.27126
 Alpha virt. eigenvalues --    0.28532   0.28911   0.30422   0.31085   0.32681

 Mulliken charges:
               1
     1  C   -0.170185
     2  C   -0.218058
     3  C   -0.176027
     4  C    0.159031
     5  C   -0.169754
     6  C   -0.217879
     7  H    0.227885
     8  H    0.223830
     9  H    0.271868
    10  H    0.279091
    11  H    0.226656
    12  N    0.486969
    13  O   -0.449356
    14  O   -0.468394
    15  C   -0.171532
    16  C   -0.219352
    17  C   -0.171554
    18  C    0.157777
    19  C   -0.175242
    20  C   -0.221534
    21  H    0.220035
    22  H    0.219969
    23  H    0.273491
    24  H    0.291840
    25  H    0.222420
    26  N    0.487297
    27  O   -0.454564
    28  O   -0.464727
 Sum of Mulliken charges =  -0.00000

 Dipole moment (field-independent basis, Debye):
    X=              6.0193    Y=              7.6800    Z=             -1.2911  Tot=              9.8428
 Quadrupole moment (field-independent basis, Debye-Ang):
   XX=            -94.3517   YY=           -104.6836   ZZ=           -104.1810
   XY=             -9.6172   XZ=             -8.9853   YZ=              3.0213

 Normal termination of Gaussian 16 at Thu May  6 00:23:35 2021.
