 Gaussian 16, Revision A.03,
 Gaussian 16:  EM64L-G16RevA.03 25-Dec-2016

 -------------
 #p 6-31g* mp2
 -------------

 ------------------------------------------------------
 Input file generated by CHIRIPA (05-May-2021 14:57:24)
 ------------------------------------------------------
 Symbolic Z-matrix:
 Charge =  0 Multiplicity = 1

                         Standard orientation:
 ---------------------------------------------------------------------
 Center     Atomic      Atomic             Coordinates (Angstroms)
 Number     Number       Type             X           Y           Z
 ---------------------------------------------------------------------
      1          6           0       -2.815510    2.329187    0.859801
      2          6           0       -2.131431    1.113213    0.959621
      3          6           0       -2.717501   -0.070783    0.502212
      4          6           0       -3.994759   -0.001962   -0.052012
      5          6           0       -4.701784    1.194101   -0.165323
      6          6           0       -4.096245    2.365686    0.298636
      7          1           0       -2.352674    3.244123    1.217671
      8          1           0       -1.136681    1.081866    1.394978
      9          1           0       -2.210376   -1.025775    0.567263
     10          1           0       -5.692201    1.193718   -0.604062
     11          1           0       -4.629864    3.308599    0.219833
     12          7           0       -4.625511   -1.248836   -0.539718
     13          8           0       -5.751789   -1.161500   -1.023976
     14          8           0       -3.981672   -2.289863   -0.428489
     15          6           0        1.848903   -1.513788    0.664315
     16          6           0        3.126437   -2.033344    0.897746
     17          6           0        4.264869   -1.316104    0.518159
     18          6           0        4.088207   -0.076868   -0.095334
     19          6           0        2.828716    0.467537   -0.341494
     20          6           0        1.704374   -0.267204    0.046528
     21          1           0        0.970015   -2.077755    0.962463
     22          1           0        3.241700   -3.001202    1.377340
     23          1           0        5.265670   -1.694716    0.686886
     24          1           0        2.745649    1.435042   -0.821548
     25          1           0        0.713460    0.138764   -0.136015
     26          7           0        5.285956    0.691706   -0.501651
     27          8           0        5.103440    1.781198   -1.040475
     28          8           0        6.384587    0.190068   -0.273605
 ---------------------------------------------------------------------

 SCF Done:  E(RHF) =  -868.337275656     A.U. after   16 cycles
 E2 =    -0.2600009217D+01 EUMP2 =    -0.87093728487268D+03

 The electronic state is 1-A.
 Alpha  occ. eigenvalues --  -20.61486 -20.61467 -20.61128 -20.61118 -15.86540
 Alpha  occ. eigenvalues --  -15.86183 -11.32014 -11.31626 -11.28710 -11.28550
 Alpha  occ. eigenvalues --  -11.28319 -11.28250 -11.28185 -11.28005 -11.27691
 Alpha  occ. eigenvalues --  -11.27544 -11.27301 -11.27196  -1.60552  -1.60199
 Alpha  occ. eigenvalues --   -1.40104  -1.39751  -1.20199  -1.19817  -1.09555
 Alpha  occ. eigenvalues --   -1.09203  -1.05640  -1.05234  -0.96377  -0.96021
 Alpha  occ. eigenvalues --   -0.87017  -0.86637  -0.83226  -0.82849  -0.78277
 Alpha  occ. eigenvalues --   -0.77871  -0.72754  -0.72400  -0.71876  -0.71524
 Alpha  occ. eigenvalues --   -0.71287  -0.70932  -0.65861  -0.65711  -0.65475
 Alpha  occ. eigenvalues --   -0.65204  -0.63035  -0.62510  -0.56077  -0.55753
 Alpha  occ. eigenvalues --   -0.53951  -0.53777  -0.53539  -0.53255  -0.49521
 Alpha  occ. eigenvalues --   -0.49503  -0.49164  -0.49149  -0.45486  -0.45139
 Alpha  occ. eigenvalues --   -0.38146  -0.37807  -0.37241  -0.36837
 Alpha virt. eigenvalues --    0.04268   0.04665   0.10370   0.10735   0.15561
 Alpha virt. eigenvalues --    0.16111   0.18522   0.21994   0.25030   0.26278
 Alpha virt. eigenvalues --    0.27664   0.29269   0.29967   0.31113   0.32482

 Mulliken charges:
               1
     1  C   -0.170440
     2  C   -0.224533
     3  C   -0.172394
     4  C    0.159630
     5  C   -0.169081
     6  C   -0.218061
     7  H    0.229532
     8  H    0.222257
     9  H    0.269478
    10  H    0.278661
    11  H    0.227278
    12  N    0.488255
    13  O   -0.456944
    14  O   -0.461718
    15  C   -0.171815
    16  C   -0.218096
    17  C   -0.169956
    18  C    0.159031
    19  C   -0.171105
    20  C   -0.226118
    21  H    0.225634
    22  H    0.226427
    23  H    0.277501
    24  H    0.275773
    25  H    0.221816
    26  N    0.488048
    27  O   -0.460312
    28  O   -0.458749
 Sum of Mulliken charges =  -0.00000

 Dipole moment (field-independent basis, Debye):
    X=             -2.1147    Y=              1.7464    Z=              3.1269  Tot=              4.1593
 Quadrupole moment (field-independent basis, Debye-Ang):
   XX=           -150.7574   YY=           -100.6483   ZZ=           -105.8089
   XY=            -34.0759   XZ=              1.8560   YZ=             -2.3728

 Normal termination of Gaussian 16 at Thu May  6 18:03:04 2021.
