 Gaussian 16, Revision A.03,
 Gaussian 16:  EM64L-G16RevA.03 25-Dec-2016

 -------------
 #p 6-31g* mp2
 -------------

 ------------------------------------------------------
 Input file generated by CHIRIPA (05-May-2021 14:57:24)
 ------------------------------------------------------
 Symbolic Z-matrix:
 Charge =  0 Multiplicity = 1

                         Standard orientation:
 ---------------------------------------------------------------------
 Center     Atomic      Atomic             Coordinates (Angstroms)
 Number     Number       Type             X           Y           Z
 ---------------------------------------------------------------------
      1          6           0        2.020176   -0.068545   -0.056159
      2          6           0        2.791689   -1.208198   -0.306119
      3          6           0        4.187642   -1.132328   -0.316531
      4          6           0        4.781694    0.104833   -0.071943
      5          6           0        4.040398    1.258156    0.180278
      6          6           0        2.645890    1.158831    0.185816
      7          1           0        0.936328   -0.136594   -0.049964
      8          1           0        2.308467   -2.162717   -0.494364
      9          1           0        4.809081   -1.998852   -0.507237
     10          1           0        4.550712    2.195735    0.364515
     11          1           0        2.049255    2.045552    0.380232
     12          7           0        6.258762    0.197569   -0.080385
     13          8           0        6.757964    1.299272    0.137980
     14          8           0        6.889316   -0.833204   -0.305208
     15          6           0       -6.586636    1.280730   -0.470183
     16          6           0       -5.394765    1.916651   -0.107458
     17          6           0       -4.253609    1.167469    0.194263
     18          6           0       -4.340226   -0.222023    0.122828
     19          6           0       -5.513108   -0.884847   -0.235362
     20          6           0       -6.641906   -0.115528   -0.532867
     21          1           0       -7.468313    1.870535   -0.702930
     22          1           0       -5.348924    3.000852   -0.057946
     23          1           0       -3.318013    1.633974    0.477899
     24          1           0       -5.528058   -1.967228   -0.275965
     25          1           0       -7.566177   -0.612097   -0.814269
     26          7           0       -3.138676   -1.025808    0.440014
     27          8           0       -3.240944   -2.248605    0.369689
     28          8           0       -2.117385   -0.417799    0.752945
 ---------------------------------------------------------------------

 SCF Done:  E(RHF) =  -868.340259259     A.U. after   16 cycles
 E2 =    -0.2598019507D+01 EUMP2 =    -0.87093827876636D+03

 The electronic state is 1-A.
 Alpha  occ. eigenvalues --  -20.61888 -20.61834 -20.60128 -20.60121 -15.86891
 Alpha  occ. eigenvalues --  -15.85177 -11.31986 -11.30358 -11.28543 -11.28500
 Alpha  occ. eigenvalues --  -11.28198 -11.27475 -11.27451 -11.26955 -11.26914
 Alpha  occ. eigenvalues --  -11.26413 -11.25863 -11.25782  -1.60920  -1.59208
 Alpha  occ. eigenvalues --   -1.40483  -1.38767  -1.20129  -1.18504  -1.09570
 Alpha  occ. eigenvalues --   -1.07888  -1.05492  -1.03896  -0.96452  -0.94758
 Alpha  occ. eigenvalues --   -0.86902  -0.85276  -0.83299  -0.81615  -0.78378
 Alpha  occ. eigenvalues --   -0.76727  -0.73129  -0.72219  -0.71397  -0.71231
 Alpha  occ. eigenvalues --   -0.70531  -0.69481  -0.65785  -0.65489  -0.64136
 Alpha  occ. eigenvalues --   -0.63880  -0.62845  -0.61261  -0.55993  -0.54221
 Alpha  occ. eigenvalues --   -0.53831  -0.53579  -0.52223  -0.51971  -0.49890
 Alpha  occ. eigenvalues --   -0.49843  -0.48164  -0.48137  -0.45943  -0.44215
 Alpha  occ. eigenvalues --   -0.38086  -0.37082  -0.36410  -0.35525
 Alpha virt. eigenvalues --    0.04122   0.05824   0.10577   0.12148   0.15659
 Alpha virt. eigenvalues --    0.17383   0.20729   0.22483   0.26670   0.27542
 Alpha virt. eigenvalues --    0.28177   0.29429   0.30383   0.31664   0.32282

 Mulliken charges:
               1
     1  C   -0.177572
     2  C   -0.220871
     3  C   -0.171780
     4  C    0.156958
     5  C   -0.171874
     6  C   -0.220590
     7  H    0.248207
     8  H    0.226634
     9  H    0.273223
    10  H    0.272035
    11  H    0.219942
    12  N    0.488321
    13  O   -0.463272
    14  O   -0.462349
    15  C   -0.169723
    16  C   -0.218267
    17  C   -0.170430
    18  C    0.157754
    19  C   -0.170193
    20  C   -0.218400
    21  H    0.228326
    22  H    0.225253
    23  H    0.272687
    24  H    0.276823
    25  H    0.226008
    26  N    0.491361
    27  O   -0.456054
    28  O   -0.472160
 Sum of Mulliken charges =  -0.00000

 Dipole moment (field-independent basis, Debye):
    X=            -10.0746    Y=              2.4178    Z=             -1.1163  Tot=             10.4207
 Quadrupole moment (field-independent basis, Debye-Ang):
   XX=           -117.5399   YY=            -97.8923   ZZ=           -106.4874
   XY=            -11.7736   XZ=              5.6023   YZ=              2.5985

 Normal termination of Gaussian 16 at Thu May  6 21:14:08 2021.
