 Gaussian 16, Revision A.03,
 Gaussian 16:  EM64L-G16RevA.03 25-Dec-2016

 -------------
 #p 6-31g* mp2
 -------------

 ------------------------------------------------------
 Input file generated by CHIRIPA (05-May-2021 14:53:18)
 ------------------------------------------------------
 Symbolic Z-matrix:
 Charge =  0 Multiplicity = 1

                         Standard orientation:
 ---------------------------------------------------------------------
 Center     Atomic      Atomic             Coordinates (Angstroms)
 Number     Number       Type             X           Y           Z
 ---------------------------------------------------------------------
      1          6           0       -3.308111    1.068664   -0.567414
      2          6           0       -2.322267    2.016797    0.116064
      3          6           0       -2.130027    3.324418   -0.652678
      4          1           0       -2.951877    0.849470   -1.583286
      5          1           0       -4.276652    1.575619   -0.678410
      6          1           0       -1.356271    1.507717    0.226986
      7          1           0       -2.680791    2.233608    1.130495
      8          1           0       -3.081603    3.856735   -0.751388
      9          1           0       -1.749558    3.126719   -1.660031
     10          1           0       -1.421401    3.987296   -0.146416
     11          6           0       -3.510832   -0.242919    0.189145
     12          6           0       -4.496676   -1.191052   -0.494332
     13          6           0       -4.688916   -2.498673    0.274410
     14          1           0       -2.542291   -0.749874    0.300141
     15          1           0       -3.867066   -0.023725    1.205017
     16          1           0       -4.138153   -1.407862   -1.508763
     17          1           0       -5.462673   -0.681971   -0.605254
     18          1           0       -5.069385   -2.300974    1.281762
     19          1           0       -3.737340   -3.030990    0.373119
     20          1           0       -5.397542   -3.161551   -0.231853
     21          6           0        5.047472   -0.074156   -0.640664
     22          6           0        4.166756   -0.915447   -1.328481
     23          6           0        2.843742   -1.060735   -0.900610
     24          6           0        2.433190   -0.346571    0.223983
     25          6           0        3.286791    0.499321    0.930470
     26          6           0        4.605458    0.629302    0.484632
     27          1           0        6.073532    0.032763   -0.980023
     28          1           0        4.507270   -1.462990   -2.202717
     29          1           0        2.140852   -1.705245   -1.414389
     30          1           0        2.918270    1.032187    1.798608
     31          1           0        5.287225    1.283371    1.020760
     32          7           0        1.034876   -0.492279    0.686462
     33          8           0        0.697730    0.147835    1.680053
     34          8           0        0.302501   -1.243841    0.046604
 ---------------------------------------------------------------------

 SCF Done:  E(RHF) =  -669.536779452     A.U. after   15 cycles
 E2 =    -0.2092579861D+01 EUMP2 =    -0.67162935931275D+03

 The electronic state is 1-A.
 Alpha  occ. eigenvalues --  -20.61207 -20.61200 -15.86187 -11.31434 -11.27982
 Alpha  occ. eigenvalues --  -11.27976 -11.27703 -11.26965 -11.26956 -11.20294
 Alpha  occ. eigenvalues --  -11.20139 -11.20073 -11.19985 -11.19893 -11.19588
 Alpha  occ. eigenvalues --   -1.60239  -1.39796  -1.19589  -1.09010  -1.06976
 Alpha  occ. eigenvalues --   -1.04970  -1.02243  -0.95863  -0.94711  -0.86374
 Alpha  occ. eigenvalues --   -0.85736  -0.82702  -0.78282  -0.77767  -0.76745
 Alpha  occ. eigenvalues --   -0.72400  -0.71550  -0.70696  -0.65244  -0.64973
 Alpha  occ. eigenvalues --   -0.63599  -0.62316  -0.59651  -0.58085  -0.56317
 Alpha  occ. eigenvalues --   -0.55479  -0.54011  -0.53307  -0.53059  -0.51471
 Alpha  occ. eigenvalues --   -0.51143  -0.49235  -0.49187  -0.48637  -0.46620
 Alpha  occ. eigenvalues --   -0.45444  -0.45039  -0.44338  -0.44028  -0.42438
 Alpha  occ. eigenvalues --   -0.37559  -0.36565
 Alpha virt. eigenvalues --    0.04713   0.11092   0.16225   0.21225   0.24296
 Alpha virt. eigenvalues --    0.25471   0.27163   0.27923   0.28225   0.28995
 Alpha virt. eigenvalues --    0.29381   0.30883   0.32304   0.32564   0.32884

 Mulliken charges:
               1
     1  C   -0.295836
     2  C   -0.303190
     3  C   -0.475242
     4  H    0.144957
     5  H    0.142164
     6  H    0.166646
     7  H    0.150570
     8  H    0.151507
     9  H    0.150044
    10  H    0.155569
    11  C   -0.310903
    12  C   -0.297624
    13  C   -0.475469
    14  H    0.181033
    15  H    0.144911
    16  H    0.148523
    17  H    0.145689
    18  H    0.152941
    19  H    0.159681
    20  H    0.154054
    21  C   -0.170155
    22  C   -0.218604
    23  C   -0.170623
    24  C    0.158835
    25  C   -0.170326
    26  C   -0.218629
    27  H    0.226583
    28  H    0.224340
    29  H    0.275951
    30  H    0.276361
    31  H    0.224407
    32  N    0.487214
    33  O   -0.455914
    34  O   -0.459461
 Sum of Mulliken charges =  -0.00000

 Dipole moment (field-independent basis, Debye):
    X=              5.4326    Y=              0.3443    Z=             -1.4808  Tot=              5.6413
 Quadrupole moment (field-independent basis, Debye-Ang):
   XX=            -72.1255   YY=            -95.2610   ZZ=            -93.0554
   XY=             -0.1147   XZ=             -2.8913   YZ=              4.3891

 Normal termination of Gaussian 16 at Wed May  5 15:46:59 2021.
