 Gaussian 16, Revision A.03,
 Gaussian 16:  EM64L-G16RevA.03 25-Dec-2016

 -------------
 #p 6-31g* mp2
 -------------

 ------------------------------------------------------
 Input file generated by CHIRIPA (05-May-2021 14:53:11)
 ------------------------------------------------------
 Symbolic Z-matrix:
 Charge =  0 Multiplicity = 1

                         Standard orientation:
 ---------------------------------------------------------------------
 Center     Atomic      Atomic             Coordinates (Angstroms)
 Number     Number       Type             X           Y           Z
 ---------------------------------------------------------------------
      1          6           0        4.197629    0.506391    0.011981
      2          6           0        3.242076    0.772925    1.175537
      3          6           0        2.009094    1.574043    0.756302
      4          1           0        4.511928    1.465008   -0.423008
      5          1           0        3.659432   -0.034234   -0.778882
      6          1           0        3.782285    1.311670    1.964552
      7          1           0        2.930165   -0.186432    1.607928
      8          1           0        1.445404    1.038417   -0.014385
      9          1           0        2.302365    2.545032    0.344264
     10          1           0        1.339620    1.753189    1.603397
     11          6           0        5.435066   -0.293478    0.415323
     12          6           0        6.390618   -0.560012   -0.748234
     13          6           0        7.623600   -1.361131   -0.328998
     14          1           0        5.973263    0.247146    1.206186
     15          1           0        5.120766   -1.252095    0.850312
     16          1           0        6.702529    0.399345   -1.180624
     17          1           0        5.850409   -1.098757   -1.537248
     18          1           0        7.330329   -2.332119    0.083039
     19          1           0        8.187291   -0.825505    0.441689
     20          1           0        8.293075   -1.540276   -1.176094
     21          6           0       -1.598159    1.064471   -0.769658
     22          6           0       -1.622487   -0.318187   -0.559452
     23          6           0       -2.816157   -0.964622   -0.225056
     24          6           0       -3.972038   -0.194119   -0.108645
     25          6           0       -3.980016    1.184985   -0.311870
     26          6           0       -2.774926    1.810329   -0.645415
     27          1           0       -0.666452    1.558446   -1.029095
     28          1           0       -0.710126   -0.899962   -0.655260
     29          1           0       -2.863417   -2.033683   -0.056845
     30          1           0       -4.905642    1.738236   -0.209178
     31          1           0       -2.759012    2.884261   -0.808089
     32          7           0       -5.241767   -0.867308    0.244915
     33          8           0       -6.246474   -0.165958    0.341405
     34          8           0       -5.208232   -2.083555    0.418850
 ---------------------------------------------------------------------

 SCF Done:  E(RHF) =  -669.535240148     A.U. after   15 cycles
 E2 =    -0.2091132221D+01 EUMP2 =    -0.67162637236974D+03

 The electronic state is 1-A.
 Alpha  occ. eigenvalues --  -20.60721 -20.60716 -15.85775 -11.31126 -11.27706
 Alpha  occ. eigenvalues --  -11.27699 -11.27391 -11.26707 -11.26690 -11.22482
 Alpha  occ. eigenvalues --  -11.22235 -11.22170 -11.22130 -11.21986 -11.21502
 Alpha  occ. eigenvalues --   -1.59797  -1.39351  -1.19300  -1.09152  -1.08692
 Alpha  occ. eigenvalues --   -1.04705  -1.04270  -0.96744  -0.95528  -0.87766
 Alpha  occ. eigenvalues --   -0.86101  -0.82367  -0.80346  -0.78935  -0.77418
 Alpha  occ. eigenvalues --   -0.71993  -0.71121  -0.70417  -0.65787  -0.64952
 Alpha  occ. eigenvalues --   -0.64718  -0.62068  -0.61659  -0.60103  -0.58335
 Alpha  occ. eigenvalues --   -0.56103  -0.55181  -0.53424  -0.53149  -0.53003
 Alpha  occ. eigenvalues --   -0.52796  -0.50678  -0.48754  -0.48749  -0.48646
 Alpha  occ. eigenvalues --   -0.47366  -0.46483  -0.46389  -0.44760  -0.44505
 Alpha  occ. eigenvalues --   -0.37255  -0.36313
 Alpha virt. eigenvalues --    0.05115   0.11315   0.16589   0.20076   0.22337
 Alpha virt. eigenvalues --    0.23742   0.25557   0.26176   0.26988   0.27452
 Alpha virt. eigenvalues --    0.28824   0.30339   0.30883   0.31223   0.31838

 Mulliken charges:
               1
     1  C   -0.298403
     2  C   -0.300247
     3  C   -0.478701
     4  H    0.150734
     5  H    0.146273
     6  H    0.156158
     7  H    0.153546
     8  H    0.143418
     9  H    0.156685
    10  H    0.166353
    11  C   -0.298811
    12  C   -0.300039
    13  C   -0.476094
    14  H    0.151347
    15  H    0.150505
    16  H    0.152510
    17  H    0.151637
    18  H    0.155909
    19  H    0.156127
    20  H    0.161647
    21  C   -0.171315
    22  C   -0.219471
    23  C   -0.171109
    24  C    0.158097
    25  C   -0.170867
    26  C   -0.219655
    27  H    0.230602
    28  H    0.222364
    29  H    0.275251
    30  H    0.275345
    31  H    0.223415
    32  N    0.488118
    33  O   -0.460608
    34  O   -0.460718
 Sum of Mulliken charges =  -0.00000

 Dipole moment (field-independent basis, Debye):
    X=              4.6918    Y=              2.4057    Z=             -1.1716  Tot=              5.4012
 Quadrupole moment (field-independent basis, Debye-Ang):
   XX=           -129.6242   YY=            -91.4359   ZZ=            -95.2616
   XY=            -11.8163   XZ=              4.7419   YZ=              0.1242

 Normal termination of Gaussian 16 at Thu May  6 05:40:06 2021.
