 Gaussian 16, Revision A.03,
 Gaussian 16:  EM64L-G16RevA.03 25-Dec-2016

 -------------
 #p 6-31g* mp2
 -------------

 ------------------------------------------------------
 Input file generated by CHIRIPA (05-May-2021 14:51:08)
 ------------------------------------------------------
 Symbolic Z-matrix:
 Charge =  0 Multiplicity = 1

                         Standard orientation:
 ---------------------------------------------------------------------
 Center     Atomic      Atomic             Coordinates (Angstroms)
 Number     Number       Type             X           Y           Z
 ---------------------------------------------------------------------
      1          6           0        2.473153   -0.970272   -0.250823
      2          6           0        1.324990   -1.113999    0.748702
      3          6           0        0.096436   -1.794247    0.143962
      4          1           0        2.124580   -0.395555   -1.119812
      5          1           0        2.750893   -1.965323   -0.625160
      6          1           0        1.050423   -0.119104    1.122082
      7          1           0        1.676393   -1.688276    1.615499
      8          1           0        0.348306   -2.798392   -0.212206
      9          1           0       -0.281220   -1.220304   -0.708426
     10          1           0       -0.712184   -1.886729    0.875700
     11          6           0        3.708440   -0.292050    0.338930
     12          6           0        4.856603   -0.148322   -0.660594
     13          6           0        6.085157    0.531926   -0.055855
     14          1           0        3.430700    0.703002    0.713267
     15          1           0        4.057013   -0.866766    1.207920
     16          1           0        4.505201    0.425955   -1.527392
     17          1           0        5.131171   -1.143217   -1.033975
     18          1           0        6.462814   -0.042017    0.796534
     19          1           0        5.833287    1.536071    0.300313
     20          1           0        6.893778    0.624408   -0.787593
     21          6           0       -2.643031    1.115297    0.341369
     22          6           0       -2.221666    2.335107   -0.478692
     23          6           0       -1.326182    3.294342    0.306020
     24          1           0       -3.168229    1.452785    1.245367
     25          1           0       -1.744186    0.583146    0.682381
     26          1           0       -3.121058    2.864024   -0.819218
     27          1           0       -1.697579    1.994669   -1.380939
     28          1           0       -0.412304    2.787823    0.632927
     29          1           0       -1.843871    3.662117    1.197839
     30          1           0       -1.036808    4.159166   -0.299126
     31          6           0       -3.538562    0.147024   -0.429476
     32          6           0       -3.959927   -1.072786    0.390584
     33          6           0       -4.855412   -2.032020   -0.394127
     34          1           0       -4.437407    0.679176   -0.770488
     35          1           0       -3.013365   -0.190464   -1.333474
     36          1           0       -4.484015   -0.732348    1.292831
     37          1           0       -3.060536   -1.601703    0.731112
     38          1           0       -4.337722   -2.399795   -1.285946
     39          1           0       -5.769288   -1.525501   -0.721033
     40          1           0       -5.144785   -2.896845    0.211018
 ---------------------------------------------------------------------

 SCF Done:  E(RHF) =  -470.732625169     A.U. after   11 cycles
 E2 =    -0.1584187826D+01 EUMP2 =    -0.47231681299538D+03

 The electronic state is 1-A.
 Alpha  occ. eigenvalues --  -11.21711 -11.21637 -11.21598 -11.21512 -11.21471
 Alpha  occ. eigenvalues --  -11.21406 -11.21340 -11.21275 -11.21172 -11.21098
 Alpha  occ. eigenvalues --  -11.21095 -11.21011  -1.08508  -1.08378  -1.03605
 Alpha  occ. eigenvalues --   -1.03496  -0.96071  -0.95933  -0.87080  -0.86961
 Alpha  occ. eigenvalues --   -0.79685  -0.79550  -0.78307  -0.78204  -0.65285
 Alpha  occ. eigenvalues --   -0.64919  -0.61025  -0.60885  -0.59449  -0.59285
 Alpha  occ. eigenvalues --   -0.57676  -0.57551  -0.55495  -0.55079  -0.52823
 Alpha  occ. eigenvalues --   -0.52612  -0.52478  -0.52368  -0.49994  -0.49880
 Alpha  occ. eigenvalues --   -0.48037  -0.47848  -0.46706  -0.46586  -0.45869
 Alpha  occ. eigenvalues --   -0.45791  -0.45711  -0.45596  -0.43799  -0.43727
 Alpha virt. eigenvalues --    0.19795   0.22801   0.23737   0.24337   0.25901
 Alpha virt. eigenvalues --    0.26137   0.26806   0.27523   0.28319   0.29295
 Alpha virt. eigenvalues --    0.30197   0.31486   0.31816   0.31952   0.32316

 Mulliken charges:
               1
     1  C   -0.298598
     2  C   -0.302680
     3  C   -0.482833
     4  H    0.149677
     5  H    0.149906
     6  H    0.153453
     7  H    0.152811
     8  H    0.156426
     9  H    0.156766
    10  H    0.164969
    11  C   -0.298340
    12  C   -0.299704
    13  C   -0.475772
    14  H    0.149642
    15  H    0.149854
    16  H    0.152065
    17  H    0.151984
    18  H    0.155234
    19  H    0.155383
    20  H    0.160388
    21  C   -0.306012
    22  C   -0.299367
    23  C   -0.476237
    24  H    0.149148
    25  H    0.158925
    26  H    0.152108
    27  H    0.150903
    28  H    0.154549
    29  H    0.155520
    30  H    0.160213
    31  C   -0.297818
    32  C   -0.305696
    33  C   -0.475322
    34  H    0.149338
    35  H    0.149613
    36  H    0.151258
    37  H    0.158186
    38  H    0.155399
    39  H    0.154820
    40  H    0.159838
 Sum of Mulliken charges =  -0.00000

 Dipole moment (field-independent basis, Debye):
    X=              0.0457    Y=             -0.0329    Z=              0.0110  Tot=              0.0574
 Quadrupole moment (field-independent basis, Debye-Ang):
   XX=            -85.4314   YY=            -84.5463   ZZ=            -84.8838
   XY=             -1.7341   XZ=             -0.7337   YZ=             -0.5968

 Normal termination of Gaussian 16 at Thu May  6 16:31:48 2021.
