 Gaussian 16, Revision A.03,
 Gaussian 16:  EM64L-G16RevA.03 25-Dec-2016

 -------------
 #p 6-31g* mp2
 -------------

 ------------------------------------------------------
 Input file generated by CHIRIPA (05-May-2021 14:55:20)
 ------------------------------------------------------
 Symbolic Z-matrix:
 Charge =  0 Multiplicity = 1

                         Standard orientation:
 ---------------------------------------------------------------------
 Center     Atomic      Atomic             Coordinates (Angstroms)
 Number     Number       Type             X           Y           Z
 ---------------------------------------------------------------------
      1          6           0       -1.511990    1.353127   -0.495134
      2          6           0       -1.407566    0.061839    0.032303
      3          6           0       -2.549564   -0.721809    0.222788
      4          6           0       -3.785625   -0.180195   -0.126633
      5          6           0       -3.922257    1.102867   -0.654245
      6          6           0       -2.766790    1.868612   -0.836124
      7          1           0       -0.619627    1.954930   -0.639764
      8          1           0       -0.434378   -0.341085    0.298016
      9          1           0       -2.497479   -1.724553    0.629248
     10          1           0       -4.906146    1.477209   -0.909683
     11          1           0       -2.850901    2.871121   -1.245934
     12          7           0       -5.001737   -1.000331    0.070469
     13          8           0       -6.079086   -0.500109   -0.245340
     14          8           0       -4.854550   -2.127846    0.537034
     15          6           0        4.123288    0.660333    0.260690
     16          6           0        2.888572    0.393127    1.122121
     17          6           0        1.966462    1.608273    1.226654
     18          1           0        4.679357    1.509263    0.681462
     19          1           0        3.801351    0.965054   -0.744743
     20          1           0        3.212750    0.087665    2.125225
     21          1           0        2.335481   -0.455388    0.699358
     22          1           0        1.614781    1.911426    0.235181
     23          1           0        2.497035    2.457564    1.669148
     24          1           0        1.090259    1.395165    1.846906
     25          6           0        5.054813   -0.545066    0.146652
     26          6           0        6.289529   -0.277860   -0.714778
     27          6           0        7.211639   -1.493006   -0.819313
     28          1           0        5.376750   -0.849785    1.152085
     29          1           0        4.498744   -1.393996   -0.274120
     30          1           0        6.842620    0.570655   -0.292017
     31          1           0        5.965351    0.027603   -1.717883
     32          1           0        6.681066   -2.342296   -1.261806
     33          1           0        7.563320   -1.796158    0.172162
     34          1           0        8.087842   -1.279897   -1.439564
 ---------------------------------------------------------------------

 SCF Done:  E(RHF) =  -669.535132223     A.U. after   15 cycles
 E2 =    -0.2091821502D+01 EUMP2 =    -0.67162695372492D+03

 The electronic state is 1-A.
 Alpha  occ. eigenvalues --  -20.60710 -20.60705 -15.85763 -11.31111 -11.27685
 Alpha  occ. eigenvalues --  -11.27679 -11.27373 -11.26682 -11.26654 -11.22764
 Alpha  occ. eigenvalues --  -11.22407 -11.22288 -11.22182 -11.22074 -11.21537
 Alpha  occ. eigenvalues --   -1.59786  -1.39340  -1.19281  -1.09286  -1.08674
 Alpha  occ. eigenvalues --   -1.04689  -1.04406  -0.96867  -0.95511  -0.87886
 Alpha  occ. eigenvalues --   -0.86075  -0.82352  -0.80492  -0.79041  -0.77403
 Alpha  occ. eigenvalues --   -0.71982  -0.71110  -0.70407  -0.65945  -0.64931
 Alpha  occ. eigenvalues --   -0.64702  -0.62128  -0.61715  -0.60232  -0.58452
 Alpha  occ. eigenvalues --   -0.56213  -0.55155  -0.53571  -0.53274  -0.52986
 Alpha  occ. eigenvalues --   -0.52744  -0.50790  -0.48797  -0.48737  -0.48734
 Alpha  occ. eigenvalues --   -0.47520  -0.46592  -0.46483  -0.44750  -0.44633
 Alpha  occ. eigenvalues --   -0.37245  -0.36290
 Alpha virt. eigenvalues --    0.05133   0.11300   0.16628   0.19122   0.22537
 Alpha virt. eigenvalues --    0.23779   0.24948   0.25566   0.26643   0.27786
 Alpha virt. eigenvalues --    0.28931   0.29625   0.30853   0.31548   0.31859

 Mulliken charges:
               1
     1  C   -0.173697
     2  C   -0.225209
     3  C   -0.172018
     4  C    0.158414
     5  C   -0.170945
     6  C   -0.219379
     7  H    0.230789
     8  H    0.230058
     9  H    0.275508
    10  H    0.275248
    11  H    0.223340
    12  N    0.488060
    13  O   -0.460680
    14  O   -0.460694
    15  C   -0.298505
    16  C   -0.303065
    17  C   -0.483926
    18  H    0.152543
    19  H    0.148886
    20  H    0.158123
    21  H    0.147697
    22  H    0.147087
    23  H    0.163107
    24  H    0.163900
    25  C   -0.299065
    26  C   -0.300272
    27  C   -0.476208
    28  H    0.151474
    29  H    0.150068
    30  H    0.152936
    31  H    0.152252
    32  H    0.155975
    33  H    0.156211
    34  H    0.161987
 Sum of Mulliken charges =  -0.00000

 Dipole moment (field-independent basis, Debye):
    X=              4.5672    Y=              2.9073    Z=             -0.6301  Tot=              5.4505
 Quadrupole moment (field-independent basis, Debye-Ang):
   XX=           -125.4422   YY=            -93.7969   ZZ=            -93.8924
   XY=            -13.4437   XZ=              4.0096   YZ=             -1.5853

 Normal termination of Gaussian 16 at Thu May  6 07:44:39 2021.
