 Gaussian 16, Revision A.03,
 Gaussian 16:  EM64L-G16RevA.03 25-Dec-2016

 -------------
 #p 6-31g* mp2
 -------------

 ------------------------------------------------------
 Input file generated by CHIRIPA (05-May-2021 14:55:23)
 ------------------------------------------------------
 Symbolic Z-matrix:
 Charge =  0 Multiplicity = 1

                         Standard orientation:
 ---------------------------------------------------------------------
 Center     Atomic      Atomic             Coordinates (Angstroms)
 Number     Number       Type             X           Y           Z
 ---------------------------------------------------------------------
      1          6           0        5.885386   -0.003207    0.648387
      2          6           0        5.246200    1.074096    0.025988
      3          6           0        3.930889    0.951190   -0.431613
      4          6           0        3.281666   -0.268916   -0.249571
      5          6           0        3.891488   -1.360537    0.366685
      6          6           0        5.207186   -1.214949    0.816452
      7          1           0        6.907302    0.101079    1.000820
      8          1           0        5.770450    2.016336   -0.105884
      9          1           0        3.412216    1.769075   -0.916857
     10          1           0        3.343078   -2.287317    0.483918
     11          1           0        5.701087   -2.053287    1.299459
     12          7           0        1.889000   -0.411038   -0.729866
     13          8           0        1.338825   -1.496499   -0.557478
     14          8           0        1.373974    0.565721   -1.269615
     15          6           0       -3.933480    0.746829   -0.067773
     16          6           0       -2.825884    1.048960    0.942145
     17          6           0       -1.711065    1.915346    0.355334
     18          1           0       -3.497106    0.243303   -0.941263
     19          1           0       -4.356508    1.693422   -0.431648
     20          1           0       -2.406010    0.102056    1.305042
     21          1           0       -3.264975    1.551655    1.813417
     22          1           0       -2.110000    2.874591    0.009936
     23          1           0       -1.246155    1.416757   -0.501327
     24          1           0       -0.929848    2.119110    1.094279
     25          6           0       -5.055177   -0.118368    0.504029
     26          6           0       -6.162772   -0.420498   -0.505890
     27          6           0       -7.277592   -1.286884    0.080922
     28          1           0       -4.632149   -1.064960    0.867903
     29          1           0       -5.491550    0.385159    1.377519
     30          1           0       -5.723681   -0.923192   -1.377161
     31          1           0       -6.582646    0.526405   -0.868787
     32          1           0       -7.742503   -0.788295    0.937582
     33          1           0       -6.878658   -2.246130    0.426319
     34          1           0       -8.058809   -1.490649   -0.658023
 ---------------------------------------------------------------------

 SCF Done:  E(RHF) =  -669.536256726     A.U. after   15 cycles
 E2 =    -0.2090883669D+01 EUMP2 =    -0.67162714039498D+03

 The electronic state is 1-A.
 Alpha  occ. eigenvalues --  -20.60965 -20.60934 -15.85975 -11.31291 -11.27852
 Alpha  occ. eigenvalues --  -11.27846 -11.27590 -11.26858 -11.26848 -11.20872
 Alpha  occ. eigenvalues --  -11.20527 -11.20468 -11.20418 -11.20308 -11.19546
 Alpha  occ. eigenvalues --   -1.60007  -1.39563  -1.19457  -1.08864  -1.07469
 Alpha  occ. eigenvalues --   -1.04852  -1.02533  -0.95709  -0.94971  -0.86253
 Alpha  occ. eigenvalues --   -0.85988  -0.82541  -0.78625  -0.77594  -0.77262
 Alpha  occ. eigenvalues --   -0.72200  -0.71318  -0.70566  -0.65113  -0.64856
 Alpha  occ. eigenvalues --   -0.64095  -0.62199  -0.59916  -0.58396  -0.56592
 Alpha  occ. eigenvalues --   -0.55360  -0.54243  -0.53184  -0.52944  -0.51688
 Alpha  occ. eigenvalues --   -0.51401  -0.49170  -0.48954  -0.48687  -0.46923
 Alpha  occ. eigenvalues --   -0.45672  -0.44987  -0.44791  -0.44635  -0.42803
 Alpha  occ. eigenvalues --   -0.37436  -0.36453
 Alpha virt. eigenvalues --    0.04921   0.11202   0.16412   0.21338   0.23808
 Alpha virt. eigenvalues --    0.25353   0.27256   0.27617   0.28204   0.28445
 Alpha virt. eigenvalues --    0.29077   0.30913   0.32359   0.32527   0.32692

 Mulliken charges:
               1
     1  C   -0.170569
     2  C   -0.218591
     3  C   -0.170726
     4  C    0.158183
     5  C   -0.170729
     6  C   -0.218601
     7  H    0.225980
     8  H    0.223879
     9  H    0.276194
    10  H    0.275745
    11  H    0.223778
    12  N    0.488984
    13  O   -0.460049
    14  O   -0.459284
    15  C   -0.298669
    16  C   -0.298768
    17  C   -0.483150
    18  H    0.155523
    19  H    0.146081
    20  H    0.153862
    21  H    0.144808
    22  H    0.146810
    23  H    0.183570
    24  H    0.151404
    25  C   -0.297786
    26  C   -0.299223
    27  C   -0.475222
    28  H    0.149995
    29  H    0.146589
    30  H    0.153057
    31  H    0.150304
    32  H    0.153531
    33  H    0.154814
    34  H    0.158277
 Sum of Mulliken charges =  -0.00000

 Dipole moment (field-independent basis, Debye):
    X=              5.2239    Y=              0.4087    Z=              1.5587  Tot=              5.4668
 Quadrupole moment (field-independent basis, Debye-Ang):
   XX=            -64.7421   YY=            -90.6589   ZZ=            -96.0051
   XY=             -0.2512   XZ=              4.8988   YZ=             -2.2036

 Normal termination of Gaussian 16 at Thu May  6 04:41:34 2021.
