 Gaussian 16, Revision A.03,
 Gaussian 16:  EM64L-G16RevA.03 25-Dec-2016

 -------------
 #p 6-31g* mp2
 -------------

 ------------------------------------------------------
 Input file generated by CHIRIPA (05-May-2021 14:55:21)
 ------------------------------------------------------
 Symbolic Z-matrix:
 Charge =  0 Multiplicity = 1

                         Standard orientation:
 ---------------------------------------------------------------------
 Center     Atomic      Atomic             Coordinates (Angstroms)
 Number     Number       Type             X           Y           Z
 ---------------------------------------------------------------------
      1          6           0       -1.818733    1.456994    2.055456
      2          6           0       -3.048275    1.544563    1.394336
      3          6           0       -3.350917    0.677583    0.340154
      4          6           0       -2.396492   -0.269265   -0.028414
      5          6           0       -1.162688   -0.381370    0.610687
      6          6           0       -0.881516    0.496001    1.662215
      7          1           0       -1.591972    2.134521    2.873339
      8          1           0       -3.778040    2.289902    1.697584
      9          1           0       -4.295039    0.723443   -0.188948
     10          1           0       -0.455350   -1.134703    0.285757
     11          1           0        0.074174    0.425695    2.173837
     12          7           0       -2.705522   -1.192599   -1.143024
     13          8           0       -1.847679   -2.018040   -1.448620
     14          8           0       -3.799730   -1.073382   -1.689954
     15          6           0        3.429491   -0.479214   -0.126632
     16          6           0        2.854187   -1.492581    0.863369
     17          6           0        3.719981   -2.745735    0.996791
     18          1           0        3.538493   -0.957667   -1.109558
     19          1           0        4.440509   -0.194817    0.196408
     20          1           0        1.844017   -1.773937    0.539315
     21          1           0        2.746363   -1.011604    1.844007
     22          1           0        4.725313   -2.484369    1.342616
     23          1           0        3.817841   -3.251033    0.030511
     24          1           0        3.290213   -3.456619    1.709396
     25          6           0        2.575145    0.778961   -0.270905
     26          6           0        3.150448    1.792327   -1.260905
     27          6           0        2.284655    3.045482   -1.394328
     28          1           0        1.564126    0.494564   -0.593944
     29          1           0        2.466142    1.257413    0.712022
     30          1           0        3.258273    1.311350   -2.241543
     31          1           0        4.160618    2.073684   -0.936851
     32          1           0        2.186794    3.550780   -0.428048
     33          1           0        1.279322    2.784117   -1.740153
     34          1           0        2.714423    3.756365   -2.106932
 ---------------------------------------------------------------------

 SCF Done:  E(RHF) =  -669.535123894     A.U. after   15 cycles
 E2 =    -0.2093271043D+01 EUMP2 =    -0.67162839493644D+03

 The electronic state is 1-A.
 Alpha  occ. eigenvalues --  -20.60762 -20.60756 -15.85811 -11.31142 -11.27704
 Alpha  occ. eigenvalues --  -11.27669 -11.27432 -11.26727 -11.26675 -11.22342
 Alpha  occ. eigenvalues --  -11.21948 -11.21888 -11.21832 -11.21493 -11.21354
 Alpha  occ. eigenvalues --   -1.59836  -1.39391  -1.19311  -1.08937  -1.08711
 Alpha  occ. eigenvalues --   -1.04704  -1.03982  -0.96397  -0.95555  -0.87417
 Alpha  occ. eigenvalues --   -0.86107  -0.82391  -0.80087  -0.78814  -0.77401
 Alpha  occ. eigenvalues --   -0.72031  -0.71159  -0.70432  -0.65607  -0.64955
 Alpha  occ. eigenvalues --   -0.64667  -0.62080  -0.61359  -0.59773  -0.58030
 Alpha  occ. eigenvalues --   -0.55669  -0.55217  -0.53117  -0.53074  -0.52845
 Alpha  occ. eigenvalues --   -0.52735  -0.50337  -0.48792  -0.48786  -0.48383
 Alpha  occ. eigenvalues --   -0.47114  -0.46279  -0.46186  -0.44802  -0.44240
 Alpha  occ. eigenvalues --   -0.37293  -0.36259
 Alpha virt. eigenvalues --    0.05060   0.11284   0.16525   0.19623   0.22939
 Alpha virt. eigenvalues --    0.23752   0.24310   0.25149   0.27573   0.28468
 Alpha virt. eigenvalues --    0.29560   0.30550   0.31444   0.31618   0.31875

 Mulliken charges:
               1
     1  C   -0.171560
     2  C   -0.218486
     3  C   -0.170794
     4  C    0.159088
     5  C   -0.180531
     6  C   -0.219904
     7  H    0.225362
     8  H    0.223258
     9  H    0.275335
    10  H    0.284693
    11  H    0.227427
    12  N    0.487482
    13  O   -0.461065
    14  O   -0.460321
    15  C   -0.297893
    16  C   -0.307432
    17  C   -0.475178
    18  H    0.155822
    19  H    0.151084
    20  H    0.151538
    21  H    0.145835
    22  H    0.156524
    23  H    0.160741
    24  H    0.161793
    25  C   -0.303241
    26  C   -0.300045
    27  C   -0.476028
    28  H    0.153861
    29  H    0.142288
    30  H    0.156094
    31  H    0.152134
    32  H    0.151911
    33  H    0.158265
    34  H    0.161943
 Sum of Mulliken charges =  -0.00000

 Dipole moment (field-independent basis, Debye):
    X=              1.2253    Y=              3.2166    Z=              3.8248  Tot=              5.1455
 Quadrupole moment (field-independent basis, Debye-Ang):
   XX=            -95.6563   YY=            -96.7002   ZZ=            -95.0374
   XY=            -10.0315   XZ=             -8.9793   YZ=             -0.8784

 Normal termination of Gaussian 16 at Thu May  6 20:43:07 2021.
