 Gaussian 16, Revision A.03,
 Gaussian 16:  EM64L-G16RevA.03 25-Dec-2016

 -------------
 #p 6-31g* mp2
 -------------

 ------------------------------------------------------
 Input file generated by CHIRIPA (05-May-2021 14:55:21)
 ------------------------------------------------------
 Symbolic Z-matrix:
 Charge =  0 Multiplicity = 1

                         Standard orientation:
 ---------------------------------------------------------------------
 Center     Atomic      Atomic             Coordinates (Angstroms)
 Number     Number       Type             X           Y           Z
 ---------------------------------------------------------------------
      1          6           0        1.928413    2.555718   -0.450498
      2          6           0        0.823922    1.821464   -0.894897
      3          6           0        0.867656    0.424545   -0.930320
      4          6           0        2.037176   -0.208455   -0.512199
      5          6           0        3.154102    0.495178   -0.064242
      6          6           0        3.087934    1.891403   -0.037317
      7          1           0        1.885726    3.640609   -0.426281
      8          1           0       -0.077895    2.334709   -1.216376
      9          1           0        0.027151   -0.168529   -1.269779
     10          1           0        4.039181   -0.044589    0.249930
     11          1           0        3.947222    2.459053    0.308290
     12          7           0        2.095350   -1.686943   -0.545201
     13          8           0        3.137431   -2.220860   -0.171521
     14          8           0        1.097764   -2.283869   -0.944123
     15          6           0       -2.120559   -0.429497    1.107197
     16          6           0       -1.379359    0.465961    2.100558
     17          6           0       -0.433364   -0.317620    3.010992
     18          1           0       -2.688363   -1.189453    1.661281
     19          1           0       -1.386828   -0.972101    0.495139
     20          1           0       -2.114280    1.007755    2.709628
     21          1           0       -0.813406    1.223992    1.544052
     22          1           0        0.321554   -0.845429    2.419286
     23          1           0       -0.986711   -1.062895    3.591485
     24          1           0        0.086103    0.341947    3.713121
     25          6           0       -3.070066    0.339339    0.190107
     26          6           0       -3.811266   -0.556118   -0.803254
     27          6           0       -4.757261    0.227461   -1.713688
     28          1           0       -3.803797    0.881943    0.802165
     29          1           0       -2.502261    1.099296   -0.363977
     30          1           0       -4.377219   -1.314151   -0.246747
     31          1           0       -3.076345   -1.097913   -1.412323
     32          1           0       -4.203913    0.972737   -2.294181
     33          1           0       -5.512179    0.755272   -1.121982
     34          1           0       -5.276728   -0.432105   -2.415817
 ---------------------------------------------------------------------

 SCF Done:  E(RHF) =  -669.534615520     A.U. after   15 cycles
 E2 =    -0.2095743354D+01 EUMP2 =    -0.67163035887347D+03

 The electronic state is 1-A.
 Alpha  occ. eigenvalues --  -20.60939 -20.60932 -15.85972 -11.31309 -11.27874
 Alpha  occ. eigenvalues --  -11.27868 -11.27617 -11.26876 -11.26866 -11.21813
 Alpha  occ. eigenvalues --  -11.21730 -11.21562 -11.21362 -11.21323 -11.20982
 Alpha  occ. eigenvalues --   -1.60000  -1.39555  -1.19494  -1.08887  -1.08603
 Alpha  occ. eigenvalues --   -1.04893  -1.03633  -0.96106  -0.95722  -0.87111
 Alpha  occ. eigenvalues --   -0.86290  -0.82558  -0.79708  -0.78393  -0.77617
 Alpha  occ. eigenvalues --   -0.72190  -0.71325  -0.70612  -0.65390  -0.65122
 Alpha  occ. eigenvalues --   -0.64846  -0.62192  -0.61074  -0.59463  -0.57700
 Alpha  occ. eigenvalues --   -0.55516  -0.55277  -0.53193  -0.52989  -0.52764
 Alpha  occ. eigenvalues --   -0.52496  -0.50049  -0.48957  -0.48945  -0.48011
 Alpha  occ. eigenvalues --   -0.46768  -0.45939  -0.45878  -0.44886  -0.43906
 Alpha  occ. eigenvalues --   -0.37446  -0.36402
 Alpha virt. eigenvalues --    0.04886   0.11054   0.16299   0.19353   0.23107
 Alpha virt. eigenvalues --    0.24026   0.25252   0.25729   0.27318   0.28312
 Alpha virt. eigenvalues --    0.30548   0.30731   0.31103   0.31703   0.31797

 Mulliken charges:
               1
     1  C   -0.170691
     2  C   -0.221651
     3  C   -0.169595
     4  C    0.158798
     5  C   -0.170535
     6  C   -0.218301
     7  H    0.226554
     8  H    0.226025
     9  H    0.279194
    10  H    0.276176
    11  H    0.224087
    12  N    0.488555
    13  O   -0.458761
    14  O   -0.461457
    15  C   -0.308019
    16  C   -0.304132
    17  C   -0.474317
    18  H    0.154075
    19  H    0.159428
    20  H    0.149745
    21  H    0.152088
    22  H    0.156081
    23  H    0.157239
    24  H    0.157866
    25  C   -0.299582
    26  C   -0.301708
    27  C   -0.475021
    28  H    0.151659
    29  H    0.135954
    30  H    0.156470
    31  H    0.154895
    32  H    0.150213
    33  H    0.155613
    34  H    0.163053
 Sum of Mulliken charges =  -0.00000

 Dipole moment (field-independent basis, Debye):
    X=             -0.1270    Y=              5.0909    Z=              0.1109  Tot=              5.0936
 Quadrupole moment (field-independent basis, Debye-Ang):
   XX=            -90.8618   YY=            -97.6077   ZZ=            -95.1783
   XY=             11.7773   XZ=              1.1727   YZ=             -2.5137

 Normal termination of Gaussian 16 at Thu May  6 10:54:34 2021.
