 Gaussian 16, Revision A.03,
 Gaussian 16:  EM64L-G16RevA.03 25-Dec-2016

 -------------
 #p 6-31g* mp2
 -------------

 ------------------------------------------------------
 Input file generated by CHIRIPA (05-May-2021 14:57:22)
 ------------------------------------------------------
 Symbolic Z-matrix:
 Charge =  0 Multiplicity = 1

                         Standard orientation:
 ---------------------------------------------------------------------
 Center     Atomic      Atomic             Coordinates (Angstroms)
 Number     Number       Type             X           Y           Z
 ---------------------------------------------------------------------
      1          6           0        3.984468   -2.203400    0.497786
      2          6           0        3.354614   -1.423919    1.473599
      3          6           0        2.969079   -0.109754    1.192740
      4          6           0        3.230006    0.395274   -0.080112
      5          6           0        3.855758   -0.356303   -1.073519
      6          6           0        4.232593   -1.668048   -0.770423
      7          1           0        4.280582   -3.223335    0.724601
      8          1           0        3.160649   -1.837057    2.459368
      9          1           0        2.479889    0.515789    1.929495
     10          1           0        4.035746    0.083170   -2.047113
     11          1           0        4.721581   -2.271088   -1.530212
     12          7           0        2.826462    1.785241   -0.389216
     13          8           0        3.067623    2.206840   -1.518256
     14          8           0        2.276644    2.426779    0.503402
     15          6           0       -0.799424   -0.299538    0.364848
     16          6           0       -1.427549   -1.141726   -0.558569
     17          6           0       -2.810509   -1.076552   -0.752791
     18          6           0       -3.537924   -0.153300   -0.003283
     19          6           0       -2.941120    0.699239    0.924236
     20          6           0       -1.556879    0.616641    1.102004
     21          1           0        0.275390   -0.356934    0.509333
     22          1           0       -0.841821   -1.854209   -1.132447
     23          1           0       -3.322383   -1.716683   -1.461055
     24          1           0       -3.551566    1.399301    1.481628
     25          1           0       -1.071752    1.271940    1.819834
     26          7           0       -5.002680   -0.075080   -0.200189
     27          8           0       -5.621107    0.746897    0.472521
     28          8           0       -5.504593   -0.837231   -1.023503
 ---------------------------------------------------------------------

 SCF Done:  E(RHF) =  -868.337439438     A.U. after   16 cycles
 E2 =    -0.2601544301D+01 EUMP2 =    -0.87093898373838D+03

 The electronic state is 1-A.
 Alpha  occ. eigenvalues --  -20.61878 -20.61845 -20.60519 -20.60511 -15.86915
 Alpha  occ. eigenvalues --  -15.85570 -11.32422 -11.30891 -11.28990 -11.28898
 Alpha  occ. eigenvalues --  -11.28629 -11.27995 -11.27922 -11.27475 -11.27419
 Alpha  occ. eigenvalues --  -11.27107 -11.26496 -11.26392  -1.60931  -1.59594
 Alpha  occ. eigenvalues --   -1.40483  -1.39149  -1.20590  -1.19051  -1.09925
 Alpha  occ. eigenvalues --   -1.08455  -1.05986  -1.04448  -0.96746  -0.95303
 Alpha  occ. eigenvalues --   -0.87360  -0.85846  -0.83558  -0.82140  -0.78613
 Alpha  occ. eigenvalues --   -0.77189  -0.73116  -0.72299  -0.71789  -0.71633
 Alpha  occ. eigenvalues --   -0.70915  -0.70167  -0.66197  -0.65925  -0.64702
 Alpha  occ. eigenvalues --   -0.64454  -0.63300  -0.61799  -0.56408  -0.55326
 Alpha  occ. eigenvalues --   -0.54041  -0.53951  -0.52780  -0.52536  -0.49892
 Alpha  occ. eigenvalues --   -0.49868  -0.48547  -0.48543  -0.45848  -0.44564
 Alpha  occ. eigenvalues --   -0.38535  -0.37593  -0.37017  -0.36050
 Alpha virt. eigenvalues --    0.03869   0.05345   0.09942   0.11604   0.15394
 Alpha virt. eigenvalues --    0.16848   0.20169   0.21840   0.25897   0.26853
 Alpha virt. eigenvalues --    0.27965   0.28646   0.30262   0.31220   0.31570

 Mulliken charges:
               1
     1  C   -0.171901
     2  C   -0.215875
     3  C   -0.192118
     4  C    0.161681
     5  C   -0.171629
     6  C   -0.217925
     7  H    0.230316
     8  H    0.228193
     9  H    0.275083
    10  H    0.279632
    11  H    0.228213
    12  N    0.489321
    13  O   -0.453934
    14  O   -0.462779
    15  C   -0.176188
    16  C   -0.222115
    17  C   -0.171030
    18  C    0.158260
    19  C   -0.170756
    20  C   -0.219501
    21  H    0.231090
    22  H    0.220509
    23  H    0.273922
    24  H    0.275747
    25  H    0.227871
    26  N    0.488033
    27  O   -0.460376
    28  O   -0.461747
 Sum of Mulliken charges =  -0.00000

 Dipole moment (field-independent basis, Debye):
    X=              6.9601    Y=             -5.1531    Z=              1.7186  Tot=              8.8290
 Quadrupole moment (field-independent basis, Debye-Ang):
   XX=           -131.8663   YY=           -106.5764   ZZ=            -98.6679
   XY=            -16.2508   XZ=             -1.5691   YZ=              4.0380

 Normal termination of Gaussian 16 at Thu May  6 11:16:01 2021.
