 Gaussian 16, Revision A.03,
 Gaussian 16:  EM64L-G16RevA.03 25-Dec-2016

 -------------
 #p 6-31g* mp2
 -------------

 ------------------------------------------------------
 Input file generated by CHIRIPA (05-May-2021 14:53:15)
 ------------------------------------------------------
 Symbolic Z-matrix:
 Charge =  0 Multiplicity = 1

                         Standard orientation:
 ---------------------------------------------------------------------
 Center     Atomic      Atomic             Coordinates (Angstroms)
 Number     Number       Type             X           Y           Z
 ---------------------------------------------------------------------
      1          6           0       -4.849204   -0.266600   -0.077891
      2          6           0       -5.430993    1.064854   -0.554059
      3          6           0       -6.910985    0.964502   -0.924662
      4          1           0       -4.980906   -1.020001   -0.866553
      5          1           0       -5.422479   -0.619639    0.790506
      6          1           0       -4.855920    1.415961   -1.420449
      7          1           0       -5.297719    1.815221    0.235753
      8          1           0       -7.502531    0.637907   -0.063263
      9          1           0       -7.058221    0.236378   -1.728875
     10          1           0       -7.306486    1.927532   -1.262321
     11          6           0       -3.370474   -0.182367    0.296261
     12          6           0       -2.788685   -1.513821    0.772429
     13          6           0       -1.308693   -1.413470    1.143032
     14          1           0       -2.797199    0.170672   -0.572137
     15          1           0       -3.238772    0.571033    1.084923
     16          1           0       -2.921959   -2.264188   -0.017383
     17          1           0       -3.363758   -1.864928    1.638818
     18          1           0       -1.161457   -0.685345    1.947244
     19          1           0       -0.717147   -1.086874    0.281632
     20          1           0       -0.913192   -2.376499    1.480691
     21          6           0        3.228777   -2.294649   -0.599661
     22          6           0        4.296419   -1.487299   -1.005679
     23          6           0        4.297092   -0.117485   -0.726117
     24          6           0        3.209075    0.414171   -0.035574
     25          6           0        2.130584   -0.364040    0.382200
     26          6           0        2.151167   -1.731435    0.091764
     27          1           0        3.236510   -3.357814   -0.821055
     28          1           0        5.134634   -1.921971   -1.542802
     29          1           0        5.110589    0.530631   -1.028752
     30          1           0        1.309013    0.098001    0.916015
     31          1           0        1.320657   -2.356013    0.408308
     32          7           0        3.198537    1.863052    0.266142
     33          8           0        2.228169    2.307179    0.875876
     34          8           0        4.160843    2.527123   -0.112820
 ---------------------------------------------------------------------

 SCF Done:  E(RHF) =  -669.534095868     A.U. after   15 cycles
 E2 =    -0.2092619614D+01 EUMP2 =    -0.67162671548271D+03

 The electronic state is 1-A.
 Alpha  occ. eigenvalues --  -20.60685 -20.60680 -15.85735 -11.31063 -11.27648
 Alpha  occ. eigenvalues --  -11.27556 -11.27366 -11.26664 -11.26536 -11.22246
 Alpha  occ. eigenvalues --  -11.22090 -11.21742 -11.21721 -11.21613 -11.21163
 Alpha  occ. eigenvalues --   -1.59760  -1.39315  -1.19237  -1.08801  -1.08639
 Alpha  occ. eigenvalues --   -1.04657  -1.03965  -0.96476  -0.95479  -0.87533
 Alpha  occ. eigenvalues --   -0.86031  -0.82327  -0.80080  -0.78556  -0.77337
 Alpha  occ. eigenvalues --   -0.71956  -0.71083  -0.70355  -0.65442  -0.64888
 Alpha  occ. eigenvalues --   -0.64667  -0.62115  -0.61286  -0.59865  -0.58028
 Alpha  occ. eigenvalues --   -0.55757  -0.55142  -0.53294  -0.53057  -0.52849
 Alpha  occ. eigenvalues --   -0.52517  -0.50369  -0.48717  -0.48709  -0.48339
 Alpha  occ. eigenvalues --   -0.47041  -0.46106  -0.45993  -0.44727  -0.44199
 Alpha  occ. eigenvalues --   -0.37227  -0.36212
 Alpha virt. eigenvalues --    0.05127   0.11405   0.16537   0.20896   0.22645
 Alpha virt. eigenvalues --    0.23992   0.25930   0.26403   0.26857   0.28071
 Alpha virt. eigenvalues --    0.29590   0.29778   0.31103   0.31565   0.32357

 Mulliken charges:
               1
     1  C   -0.298881
     2  C   -0.300272
     3  C   -0.476001
     4  H    0.149214
     5  H    0.149962
     6  H    0.153357
     7  H    0.154080
     8  H    0.155215
     9  H    0.154770
    10  H    0.161689
    11  C   -0.300328
    12  C   -0.298695
    13  C   -0.489953
    14  H    0.151970
    15  H    0.153719
    16  H    0.152358
    17  H    0.154971
    18  H    0.162452
    19  H    0.156388
    20  H    0.155985
    21  C   -0.172049
    22  C   -0.218743
    23  C   -0.171273
    24  C    0.158556
    25  C   -0.176864
    26  C   -0.223125
    27  H    0.225093
    28  H    0.222801
    29  H    0.275039
    30  H    0.280901
    31  H    0.231161
    32  N    0.488281
    33  O   -0.460868
    34  O   -0.460910
 Sum of Mulliken charges =  -0.00000

 Dipole moment (field-independent basis, Debye):
    X=             -0.1905    Y=             -5.0543    Z=             -1.0420  Tot=              5.1641
 Quadrupole moment (field-independent basis, Debye-Ang):
   XX=            -91.4414   YY=            -99.6783   ZZ=            -93.4884
   XY=            -16.1186   XZ=             -6.4041   YZ=             -0.2097

 Normal termination of Gaussian 16 at Thu May  6 18:50:21 2021.
