 Gaussian 16, Revision A.03,
 Gaussian 16:  EM64L-G16RevA.03 25-Dec-2016

 -------------
 #p 6-31g* mp2
 -------------

 ------------------------------------------------------
 Input file generated by CHIRIPA (05-May-2021 14:57:24)
 ------------------------------------------------------
 Symbolic Z-matrix:
 Charge =  0 Multiplicity = 1

                         Standard orientation:
 ---------------------------------------------------------------------
 Center     Atomic      Atomic             Coordinates (Angstroms)
 Number     Number       Type             X           Y           Z
 ---------------------------------------------------------------------
      1          6           0       -2.179513    2.249861    0.578371
      2          6           0       -2.720806    1.459799    1.597844
      3          6           0       -3.315852    0.229611    1.302704
      4          6           0       -3.352465   -0.181563   -0.028793
      5          6           0       -2.821890    0.582992   -1.066692
      6          6           0       -2.231691    1.809712   -0.748304
      7          1           0       -1.719149    3.204153    0.816672
      8          1           0       -2.681705    1.799094    2.629054
      9          1           0       -3.742604   -0.401973    2.072381
     10          1           0       -2.875849    0.218105   -2.085203
     11          1           0       -1.812123    2.421194   -1.542091
     12          7           0       -3.979848   -1.482072   -0.353550
     13          8           0       -3.999456   -1.821809   -1.534580
     14          8           0       -4.440104   -2.137049    0.579085
     15          6           0        1.703587    1.933680   -0.357108
     16          6           0        3.084218    2.094061   -0.514141
     17          6           0        3.949975    1.011473   -0.332446
     18          6           0        3.398475   -0.222886    0.007403
     19          6           0        2.027403   -0.414424    0.170989
     20          6           0        1.180508    0.682155   -0.015646
     21          1           0        1.038373    2.780094   -0.500171
     22          1           0        3.493254    3.064849   -0.779291
     23          1           0        5.022769    1.107623   -0.447724
     24          1           0        1.649226   -1.394400    0.435654
     25          1           0        0.108708    0.554665    0.106968
     26          7           0        4.305029   -1.376380    0.202369
     27          8           0        3.794191   -2.453512    0.501480
     28          8           0        5.509259   -1.181514    0.052382
 ---------------------------------------------------------------------

 SCF Done:  E(RHF) =  -868.335980182     A.U. after   16 cycles
 E2 =    -0.2602902082D+01 EUMP2 =    -0.87093888226466D+03

 The electronic state is 1-A.
 Alpha  occ. eigenvalues --  -20.61591 -20.61585 -20.60905 -20.60895 -15.86654
 Alpha  occ. eigenvalues --  -15.85953 -11.32333 -11.31407 -11.28908 -11.28876
 Alpha  occ. eigenvalues --  -11.28719 -11.28007 -11.27973 -11.27938 -11.27894
 Alpha  occ. eigenvalues --  -11.27817 -11.27084 -11.26824  -1.60661  -1.59975
 Alpha  occ. eigenvalues --   -1.40204  -1.39526  -1.20558  -1.19575  -1.09899
 Alpha  occ. eigenvalues --   -1.08981  -1.05960  -1.04966  -0.96657  -0.95806
 Alpha  occ. eigenvalues --   -0.87339  -0.86376  -0.83454  -0.82619  -0.78447
 Alpha  occ. eigenvalues --   -0.77636  -0.72859  -0.72173  -0.71995  -0.71627
 Alpha  occ. eigenvalues --   -0.71299  -0.70760  -0.66161  -0.65920  -0.65226
 Alpha  occ. eigenvalues --   -0.65026  -0.63250  -0.62352  -0.56457  -0.55599
 Alpha  occ. eigenvalues --   -0.54477  -0.54001  -0.53325  -0.52782  -0.49644
 Alpha  occ. eigenvalues --   -0.49598  -0.48932  -0.48922  -0.45538  -0.44911
 Alpha  occ. eigenvalues --   -0.38562  -0.37766  -0.37458  -0.36526
 Alpha virt. eigenvalues --    0.04031   0.04863   0.09921   0.11087   0.15482
 Alpha virt. eigenvalues --    0.16320   0.19041   0.21930   0.25228   0.26699
 Alpha virt. eigenvalues --    0.27402   0.29458   0.29922   0.30646   0.32487

 Mulliken charges:
               1
     1  C   -0.179438
     2  C   -0.216893
     3  C   -0.171440
     4  C    0.158544
     5  C   -0.171447
     6  C   -0.229770
     7  H    0.226455
     8  H    0.229219
     9  H    0.280813
    10  H    0.280780
    11  H    0.225164
    12  N    0.487965
    13  O   -0.456583
    14  O   -0.456239
    15  C   -0.176884
    16  C   -0.217453
    17  C   -0.172010
    18  C    0.159892
    19  C   -0.173159
    20  C   -0.224173
    21  H    0.212302
    22  H    0.222194
    23  H    0.276022
    24  H    0.278069
    25  H    0.238899
    26  N    0.487749
    27  O   -0.458321
    28  O   -0.460259
 Sum of Mulliken charges =  -0.00000

 Dipole moment (field-independent basis, Debye):
    X=             -1.3248    Y=              8.4063    Z=              0.5320  Tot=              8.5266
 Quadrupole moment (field-independent basis, Debye-Ang):
   XX=           -137.9377   YY=           -107.8144   ZZ=           -100.5229
   XY=              1.5497   XZ=             -8.4784   YZ=             -1.5190

 Normal termination of Gaussian 16 at Wed May  5 21:05:04 2021.
