 Gaussian 16, Revision A.03,
 Gaussian 16:  EM64L-G16RevA.03 25-Dec-2016

 -------------
 #p 6-31g* mp2
 -------------

 ------------------------------------------------------
 Input file generated by CHIRIPA (05-May-2021 14:57:24)
 ------------------------------------------------------
 Symbolic Z-matrix:
 Charge =  0 Multiplicity = 1

                         Standard orientation:
 ---------------------------------------------------------------------
 Center     Atomic      Atomic             Coordinates (Angstroms)
 Number     Number       Type             X           Y           Z
 ---------------------------------------------------------------------
      1          6           0        5.425584   -1.819232   -0.180377
      2          6           0        4.205320   -1.989310    0.481854
      3          6           0        3.344660   -0.904505    0.674236
      4          6           0        3.737676    0.341934    0.189243
      5          6           0        4.946890    0.543327   -0.474483
      6          6           0        5.791829   -0.555684   -0.655594
      7          1           0        6.088059   -2.667452   -0.325447
      8          1           0        3.918289   -2.969445    0.851980
      9          1           0        2.394180   -1.007990    1.183447
     10          1           0        5.205615    1.532524   -0.832212
     11          1           0        6.738895   -0.420645   -1.170255
     12          7           0        2.834856    1.497888    0.386943
     13          8           0        3.204238    2.585745   -0.049818
     14          8           0        1.774939    1.294180    0.974919
     15          6           0       -1.408119   -0.204833   -0.626594
     16          6           0       -2.086740    1.017607   -0.586170
     17          6           0       -3.459869    1.059170   -0.326676
     18          6           0       -4.126070   -0.146255   -0.111228
     19          6           0       -3.477989   -1.380005   -0.144988
     20          6           0       -2.104682   -1.397635   -0.406262
     21          1           0       -0.341371   -0.227825   -0.828866
     22          1           0       -1.548352    1.945526   -0.756905
     23          1           0       -4.009981    1.991599   -0.289631
     24          1           0       -4.041775   -2.288427    0.029180
     25          1           0       -1.580250   -2.348460   -0.437054
     26          7           0       -5.579834   -0.114923    0.164429
     27          8           0       -6.143883   -1.190896    0.350889
     28          8           0       -6.127719    0.985016    0.188810
 ---------------------------------------------------------------------

 SCF Done:  E(RHF) =  -868.339152387     A.U. after   16 cycles
 E2 =    -0.2598872957D+01 EUMP2 =    -0.87093802534451D+03

 The electronic state is 1-A.
 Alpha  occ. eigenvalues --  -20.61884 -20.61839 -20.60269 -20.60257 -15.86885
 Alpha  occ. eigenvalues --  -15.85315 -11.32097 -11.30554 -11.28665 -11.28605
 Alpha  occ. eigenvalues --  -11.28314 -11.27616 -11.27575 -11.27169 -11.27056
 Alpha  occ. eigenvalues --  -11.26764 -11.26172 -11.25949  -1.60933  -1.59344
 Alpha  occ. eigenvalues --   -1.40489  -1.38901  -1.20245  -1.18707  -1.09664
 Alpha  occ. eigenvalues --   -1.08109  -1.05619  -1.04094  -0.96525  -0.94970
 Alpha  occ. eigenvalues --   -0.87022  -0.85487  -0.83357  -0.81812  -0.78435
 Alpha  occ. eigenvalues --   -0.76889  -0.73101  -0.72259  -0.71536  -0.71333
 Alpha  occ. eigenvalues --   -0.70666  -0.69776  -0.65891  -0.65607  -0.64353
 Alpha  occ. eigenvalues --   -0.64084  -0.62966  -0.61447  -0.56102  -0.54557
 Alpha  occ. eigenvalues --   -0.53961  -0.53698  -0.52425  -0.52177  -0.49875
 Alpha  occ. eigenvalues --   -0.49849  -0.48298  -0.48282  -0.45914  -0.44336
 Alpha  occ. eigenvalues --   -0.38206  -0.37219  -0.36646  -0.35699
 Alpha virt. eigenvalues --    0.04051   0.05648   0.10404   0.11961   0.15578
 Alpha virt. eigenvalues --    0.17178   0.20518   0.22057   0.26423   0.27264
 Alpha virt. eigenvalues --    0.28010   0.28675   0.30459   0.31269   0.32494

 Mulliken charges:
               1
     1  C   -0.170016
     2  C   -0.218200
     3  C   -0.175436
     4  C    0.157247
     5  C   -0.170517
     6  C   -0.218133
     7  H    0.228678
     8  H    0.225246
     9  H    0.274153
    10  H    0.277379
    11  H    0.226534
    12  N    0.487074
    13  O   -0.456012
    14  O   -0.465345
    15  C   -0.166075
    16  C   -0.216471
    17  C   -0.172135
    18  C    0.157809
    19  C   -0.171890
    20  C   -0.220424
    21  H    0.226276
    22  H    0.232670
    23  H    0.274972
    24  H    0.272349
    25  H    0.216223
    26  N    0.488208
    27  O   -0.463158
    28  O   -0.461006
 Sum of Mulliken charges =  -0.00000

 Dipole moment (field-independent basis, Debye):
    X=              8.7706    Y=             -4.0240    Z=             -1.6911  Tot=              9.7967
 Quadrupole moment (field-independent basis, Debye-Ang):
   XX=           -121.6990   YY=           -101.0533   ZZ=           -105.3000
   XY=            -12.9278   XZ=             -0.5554   YZ=             -3.0012

 Normal termination of Gaussian 16 at Fri May  7 11:05:44 2021.
