 Gaussian 16, Revision A.03,
 Gaussian 16:  EM64L-G16RevA.03 25-Dec-2016

 -------------
 #p 6-31g* mp2
 -------------

 ------------------------------------------------------
 Input file generated by CHIRIPA (05-May-2021 14:55:23)
 ------------------------------------------------------
 Symbolic Z-matrix:
 Charge =  0 Multiplicity = 1

                         Standard orientation:
 ---------------------------------------------------------------------
 Center     Atomic      Atomic             Coordinates (Angstroms)
 Number     Number       Type             X           Y           Z
 ---------------------------------------------------------------------
      1          6           0       -3.572106   -1.991131    0.612427
      2          6           0       -3.191888   -1.664190   -0.693354
      3          6           0       -2.764812   -0.370092   -1.005547
      4          6           0       -2.730093    0.576548    0.017173
      5          6           0       -3.102535    0.281571    1.327733
      6          6           0       -3.526297   -1.018922    1.617032
      7          1           0       -3.902582   -2.998901    0.846053
      8          1           0       -3.226454   -2.417186   -1.475561
      9          1           0       -2.464831   -0.089841   -2.007989
     10          1           0       -3.057434    1.053632    2.086221
     11          1           0       -3.820990   -1.269983    2.632004
     12          7           0       -2.279721    1.949936   -0.301213
     13          8           0       -2.258120    2.765828    0.617749
     14          8           0       -1.956848    2.184500   -1.463697
     15          6           0        2.880482   -0.380381   -0.364969
     16          6           0        2.087424   -1.687134   -0.327019
     17          6           0        0.670883   -1.535282   -0.882130
     18          1           0        2.340580    0.385559    0.208430
     19          1           0        2.928656   -0.018803   -1.401471
     20          1           0        2.041942   -2.046861    0.708908
     21          1           0        2.629372   -2.450105   -0.900415
     22          1           0        0.699264   -1.199468   -1.923775
     23          1           0        0.108496   -0.793932   -0.305309
     24          1           0        0.121784   -2.481331   -0.845511
     25          6           0        4.298577   -0.516123    0.186673
     26          6           0        5.091635    0.790630    0.148722
     27          6           0        6.508175    0.638778    0.703833
     28          1           0        4.250404   -0.877701    1.223174
     29          1           0        4.838479   -1.282063   -0.386727
     30          1           0        4.549687    1.553601    0.722118
     31          1           0        5.137118    1.150357   -0.887205
     32          1           0        7.070563   -0.102571    0.127011
     33          1           0        6.479795    0.302964    1.745478
     34          1           0        7.057275    1.584827    0.667214
 ---------------------------------------------------------------------

 SCF Done:  E(RHF) =  -669.534940064     A.U. after   15 cycles
 E2 =    -0.2092451906D+01 EUMP2 =    -0.67162739196962D+03

 The electronic state is 1-A.
 Alpha  occ. eigenvalues --  -20.60772 -20.60763 -15.85824 -11.31167 -11.27772
 Alpha  occ. eigenvalues --  -11.27737 -11.27506 -11.26767 -11.26742 -11.21560
 Alpha  occ. eigenvalues --  -11.21375 -11.21233 -11.21170 -11.21084 -11.20889
 Alpha  occ. eigenvalues --   -1.59848  -1.39400  -1.19366  -1.08758  -1.08283
 Alpha  occ. eigenvalues --   -1.04765  -1.03415  -0.95879  -0.95588  -0.86901
 Alpha  occ. eigenvalues --   -0.86160  -0.82422  -0.79487  -0.78081  -0.77467
 Alpha  occ. eigenvalues --   -0.72041  -0.71178  -0.70471  -0.65014  -0.64915
 Alpha  occ. eigenvalues --   -0.64763  -0.62109  -0.60823  -0.59250  -0.57485
 Alpha  occ. eigenvalues --   -0.55268  -0.55214  -0.53292  -0.52857  -0.52486
 Alpha  occ. eigenvalues --   -0.52196  -0.49781  -0.48800  -0.48796  -0.47796
 Alpha  occ. eigenvalues --   -0.46500  -0.45628  -0.45544  -0.44801  -0.43673
 Alpha  occ. eigenvalues --   -0.37330  -0.36295
 Alpha virt. eigenvalues --    0.05051   0.11261   0.16510   0.21313   0.22986
 Alpha virt. eigenvalues --    0.24325   0.26675   0.26985   0.27573   0.28086
 Alpha virt. eigenvalues --    0.28492   0.30542   0.31305   0.31817   0.32090

 Mulliken charges:
               1
     1  C   -0.171122
     2  C   -0.215536
     3  C   -0.167249
     4  C    0.157678
     5  C   -0.172264
     6  C   -0.218426
     7  H    0.225557
     8  H    0.223553
     9  H    0.276015
    10  H    0.275534
    11  H    0.223299
    12  N    0.487874
    13  O   -0.461055
    14  O   -0.459972
    15  C   -0.298989
    16  C   -0.300141
    17  C   -0.476275
    18  H    0.153045
    19  H    0.151725
    20  H    0.150281
    21  H    0.150276
    22  H    0.154462
    23  H    0.158740
    24  H    0.153598
    25  C   -0.298217
    26  C   -0.299989
    27  C   -0.475684
    28  H    0.148232
    29  H    0.148391
    30  H    0.154262
    31  H    0.153028
    32  H    0.154237
    33  H    0.154369
    34  H    0.160766
 Sum of Mulliken charges =  -0.00000

 Dipole moment (field-independent basis, Debye):
    X=             -1.6350    Y=             -4.7826    Z=              1.1021  Tot=              5.1731
 Quadrupole moment (field-independent basis, Debye-Ang):
   XX=            -87.8329   YY=           -100.7840   ZZ=            -89.4866
   XY=             12.4360   XZ=             -4.6012   YZ=              2.1753

 Normal termination of Gaussian 16 at Wed May  5 19:02:58 2021.
