 Gaussian 16, Revision A.03,
 Gaussian 16:  EM64L-G16RevA.03 25-Dec-2016

 -------------
 #p 6-31g* mp2
 -------------

 ------------------------------------------------------
 Input file generated by CHIRIPA (05-May-2021 14:57:25)
 ------------------------------------------------------
 Symbolic Z-matrix:
 Charge =  0 Multiplicity = 1

                         Standard orientation:
 ---------------------------------------------------------------------
 Center     Atomic      Atomic             Coordinates (Angstroms)
 Number     Number       Type             X           Y           Z
 ---------------------------------------------------------------------
      1          6           0       -5.157361    0.057296   -0.656552
      2          6           0       -4.469801   -1.141304   -0.873675
      3          6           0       -3.193492   -1.334971   -0.336947
      4          6           0       -2.632174   -0.304307    0.415346
      5          6           0       -3.291926    0.901212    0.649317
      6          6           0       -4.567269    1.072937    0.102912
      7          1           0       -6.148453    0.199219   -1.077253
      8          1           0       -4.925613   -1.931799   -1.463079
      9          1           0       -2.638899   -2.252893   -0.489467
     10          1           0       -2.811621    1.670939    1.241132
     11          1           0       -5.098899    2.004833    0.273165
     12          7           0       -1.281514   -0.497719    0.988678
     13          8           0       -0.808883    0.425727    1.647846
     14          8           0       -0.721073   -1.569101    0.768031
     15          6           0        1.299706    2.213192   -0.746425
     16          6           0        0.979946    0.940662   -1.231130
     17          6           0        1.834145   -0.141960   -1.001300
     18          6           0        3.005118    0.084805   -0.279712
     19          6           0        3.351428    1.340765    0.216195
     20          6           0        2.482342    2.408838   -0.025581
     21          1           0        0.630361    3.048548   -0.929602
     22          1           0        0.062172    0.785776   -1.791261
     23          1           0        1.611062   -1.137607   -1.365086
     24          1           0        4.273441    1.464134    0.771255
     25          1           0        2.733236    3.396002    0.352048
     26          7           0        3.917301   -1.053618   -0.030078
     27          8           0        4.942910   -0.827641    0.608435
     28          8           0        3.589388   -2.150334   -0.477654
 ---------------------------------------------------------------------

 SCF Done:  E(RHF) =  -868.336994100     A.U. after   16 cycles
 E2 =    -0.2602753139D+01 EUMP2 =    -0.87093974723933D+03

 The electronic state is 1-A.
 Alpha  occ. eigenvalues --  -20.61337 -20.61304 -20.59658 -20.59635 -15.86307
 Alpha  occ. eigenvalues --  -15.84706 -11.31805 -11.29963 -11.28379 -11.28346
 Alpha  occ. eigenvalues --  -11.28081 -11.27384 -11.27353 -11.26657 -11.26601
 Alpha  occ. eigenvalues --  -11.26492 -11.25676 -11.25639  -1.60367  -1.58720
 Alpha  occ. eigenvalues --   -1.39925  -1.38279  -1.19972  -1.18192  -1.09339
 Alpha  occ. eigenvalues --   -1.07632  -1.05373  -1.03638  -0.96160  -0.94473
 Alpha  occ. eigenvalues --   -0.86763  -0.85063  -0.82988  -0.81345  -0.78034
 Alpha  occ. eigenvalues --   -0.76372  -0.72557  -0.71737  -0.71048  -0.70948
 Alpha  occ. eigenvalues --   -0.70021  -0.69398  -0.65608  -0.65355  -0.63905
 Alpha  occ. eigenvalues --   -0.63727  -0.62711  -0.61010  -0.55846  -0.54233
 Alpha  occ. eigenvalues --   -0.53728  -0.53449  -0.51908  -0.51793  -0.49326
 Alpha  occ. eigenvalues --   -0.49277  -0.47701  -0.47684  -0.45318  -0.43709
 Alpha  occ. eigenvalues --   -0.37955  -0.36991  -0.36138  -0.35149
 Alpha virt. eigenvalues --    0.04457   0.06231   0.10657   0.12457   0.15943
 Alpha virt. eigenvalues --    0.17672   0.20867   0.22228   0.26769   0.27720
 Alpha virt. eigenvalues --    0.27997   0.29180   0.30498   0.31656   0.32020

 Mulliken charges:
               1
     1  C   -0.170995
     2  C   -0.218362
     3  C   -0.173886
     4  C    0.155268
     5  C   -0.174069
     6  C   -0.218635
     7  H    0.227565
     8  H    0.225961
     9  H    0.277692
    10  H    0.274706
    11  H    0.224419
    12  N    0.487475
    13  O   -0.455206
    14  O   -0.458617
    15  C   -0.160082
    16  C   -0.227410
    17  C   -0.151381
    18  C    0.159291
    19  C   -0.167761
    20  C   -0.217478
    21  H    0.217455
    22  H    0.213335
    23  H    0.276305
    24  H    0.272570
    25  H    0.218244
    26  N    0.488935
    27  O   -0.464951
    28  O   -0.460386
 Sum of Mulliken charges =  -0.00000

 Dipole moment (field-independent basis, Debye):
    X=             -8.1480    Y=              4.5203    Z=             -2.7442  Tot=              9.7135
 Quadrupole moment (field-independent basis, Debye-Ang):
   XX=            -98.2814   YY=            -99.2887   ZZ=           -105.4447
   XY=             13.3264   XZ=              3.5854   YZ=              3.8217

 Normal termination of Gaussian 16 at Wed May  5 22:45:40 2021.
