 Gaussian 16, Revision A.03,
 Gaussian 16:  EM64L-G16RevA.03 25-Dec-2016

 -------------
 #p 6-31g* mp2
 -------------

 ------------------------------------------------------
 Input file generated by CHIRIPA (05-May-2021 14:51:09)
 ------------------------------------------------------
 Symbolic Z-matrix:
 Charge =  0 Multiplicity = 1

                         Standard orientation:
 ---------------------------------------------------------------------
 Center     Atomic      Atomic             Coordinates (Angstroms)
 Number     Number       Type             X           Y           Z
 ---------------------------------------------------------------------
      1          6           0       -3.660588    0.800848   -0.057131
      2          6           0       -5.044254    1.438448    0.072945
      3          6           0       -4.980376    2.950942    0.287595
      4          1           0       -3.076429    1.019948    0.847136
      5          1           0       -3.126222    1.268854   -0.895474
      6          1           0       -5.576375    0.968418    0.909925
      7          1           0       -5.625255    1.217642   -0.831654
      8          1           0       -4.472820    3.437997   -0.551312
      9          1           0       -4.423662    3.187357    1.200162
     10          1           0       -5.980498    3.386200    0.377951
     11          6           0       -3.707936   -0.710859   -0.272131
     12          6           0       -2.324270   -1.348459   -0.402208
     13          6           0       -2.388149   -2.860953   -0.616857
     14          1           0       -4.242302   -1.178865    0.566212
     15          1           0       -4.292096   -0.929959   -1.176398
     16          1           0       -1.743270   -1.127653    0.502391
     17          1           0       -1.792149   -0.878429   -1.239188
     18          1           0       -2.944862   -3.097368   -1.529424
     19          1           0       -2.895705   -3.348008    0.222050
     20          1           0       -1.388026   -3.296211   -0.707213
     21          6           0        4.211193    0.470553    0.364597
     22          6           0        5.146982    0.856930   -0.781263
     23          6           0        6.195614    1.889132   -0.365663
     24          1           0        3.710383    1.373121    0.740768
     25          1           0        4.807549    0.073722    1.197832
     26          1           0        4.548919    1.251627   -1.612618
     27          1           0        5.645479   -0.046691   -1.154876
     28          1           0        6.816896    1.501015    0.447954
     29          1           0        5.714106    2.806709   -0.012389
     30          1           0        6.853880    2.150973   -1.199922
     31          6           0        3.157331   -0.560542   -0.035336
     32          6           0        2.221542   -0.946919    1.110526
     33          6           0        1.172910   -1.979121    0.694926
     34          1           0        2.560975   -0.163711   -0.868569
     35          1           0        3.658142   -1.463111   -0.411506
     36          1           0        1.723046   -0.043299    1.484138
     37          1           0        2.819606   -1.341617    1.941880
     38          1           0        1.654419   -2.896699    0.341650
     39          1           0        0.551628   -1.591004   -0.118692
     40          1           0        0.514645   -2.240962    1.529183
 ---------------------------------------------------------------------

 SCF Done:  E(RHF) =  -470.732188365     A.U. after   11 cycles
 E2 =    -0.1583414457D+01 EUMP2 =    -0.47231560282268D+03

 The electronic state is 1-A.
 Alpha  occ. eigenvalues --  -11.21597 -11.21595 -11.21577 -11.21517 -11.21396
 Alpha  occ. eigenvalues --  -11.21383 -11.21336 -11.21315 -11.21072 -11.21067
 Alpha  occ. eigenvalues --  -11.20978 -11.20976  -1.08435  -1.08389  -1.03580
 Alpha  occ. eigenvalues --   -1.03440  -0.96050  -0.95867  -0.87005  -0.86947
 Alpha  occ. eigenvalues --   -0.79691  -0.79483  -0.78278  -0.78175  -0.65082
 Alpha  occ. eigenvalues --   -0.65011  -0.61028  -0.60843  -0.59420  -0.59245
 Alpha  occ. eigenvalues --   -0.57708  -0.57480  -0.55278  -0.55162  -0.52778
 Alpha  occ. eigenvalues --   -0.52570  -0.52456  -0.52216  -0.49965  -0.49845
 Alpha  occ. eigenvalues --   -0.47909  -0.47855  -0.46690  -0.46522  -0.45819
 Alpha  occ. eigenvalues --   -0.45746  -0.45692  -0.45573  -0.43766  -0.43737
 Alpha virt. eigenvalues --    0.22065   0.23061   0.23522   0.24838   0.26172
 Alpha virt. eigenvalues --    0.26662   0.26814   0.27533   0.27828   0.29234
 Alpha virt. eigenvalues --    0.30165   0.30916   0.31527   0.31738   0.32284

 Mulliken charges:
               1
     1  C   -0.298218
     2  C   -0.299587
     3  C   -0.475678
     4  H    0.149286
     5  H    0.149067
     6  H    0.151950
     7  H    0.151989
     8  H    0.155050
     9  H    0.155069
    10  H    0.160263
    11  C   -0.297566
    12  C   -0.303745
    13  C   -0.478857
    14  H    0.149344
    15  H    0.149275
    16  H    0.157524
    17  H    0.149560
    18  H    0.154579
    19  H    0.154625
    20  H    0.165300
    21  C   -0.298267
    22  C   -0.299634
    23  C   -0.475700
    24  H    0.149664
    25  H    0.149514
    26  H    0.151875
    27  H    0.151911
    28  H    0.155173
    29  H    0.155185
    30  H    0.160223
    31  C   -0.298501
    32  C   -0.300564
    33  C   -0.481206
    34  H    0.149603
    35  H    0.149598
    36  H    0.151705
    37  H    0.151627
    38  H    0.153950
    39  H    0.164903
    40  H    0.159712
 Sum of Mulliken charges =  -0.00000

 Dipole moment (field-independent basis, Debye):
    X=              0.0077    Y=             -0.0122    Z=              0.0021  Tot=              0.0146
 Quadrupole moment (field-independent basis, Debye-Ang):
   XX=            -85.2820   YY=            -85.9704   ZZ=            -83.7629
   XY=             -0.9493   XZ=              0.0359   YZ=             -0.6324

 Normal termination of Gaussian 16 at Wed May  5 19:43:33 2021.
