 Gaussian 16, Revision A.03,
 Gaussian 16:  EM64L-G16RevA.03 25-Dec-2016

 -------------
 #p 6-31g* mp2
 -------------

 ------------------------------------------------------
 Input file generated by CHIRIPA (05-May-2021 14:55:19)
 ------------------------------------------------------
 Symbolic Z-matrix:
 Charge =  0 Multiplicity = 1

                         Standard orientation:
 ---------------------------------------------------------------------
 Center     Atomic      Atomic             Coordinates (Angstroms)
 Number     Number       Type             X           Y           Z
 ---------------------------------------------------------------------
      1          6           0        4.033621    1.119160   -1.081830
      2          6           0        3.790198    1.350665    0.275989
      3          6           0        2.849298    0.583659    0.969499
      4          6           0        2.166850   -0.411075    0.270886
      5          6           0        2.387091   -0.665854   -1.081842
      6          6           0        3.332527    0.113413   -1.755225
      7          1           0        4.766296    1.719751   -1.612748
      8          1           0        4.333191    2.131065    0.801517
      9          1           0        2.641183    0.741595    2.020766
     10          1           0        1.830148   -1.450926   -1.578725
     11          1           0        3.519510   -0.068608   -2.809715
     12          7           0        1.168361   -1.229559    0.994420
     13          8           0        0.580346   -2.099900    0.356154
     14          8           0        0.992666   -0.985249    2.186091
     15          6           0       -2.711551   -0.346663   -0.056802
     16          6           0       -3.496528   -1.452380   -0.763331
     17          6           0       -2.938992   -2.847394   -0.478928
     18          1           0       -1.659985   -0.393949   -0.371313
     19          1           0       -2.722639   -0.533234    1.026001
     20          1           0       -3.485131   -1.263023   -1.844363
     21          1           0       -4.546386   -1.402336   -0.447248
     22          1           0       -2.965549   -3.061414    0.594427
     23          1           0       -1.898264   -2.921309   -0.810626
     24          1           0       -3.515034   -3.622604   -0.993793
     25          6           0       -3.256868    1.053680   -0.331393
     26          6           0       -2.471891    2.159397    0.375137
     27          6           0       -3.029427    3.554411    0.090733
     28          1           0       -3.245779    1.240250   -1.414195
     29          1           0       -4.308434    1.100966   -0.016882
     30          1           0       -1.422032    2.109352    0.059054
     31          1           0       -2.483287    1.970039    1.456169
     32          1           0       -4.070154    3.628325    0.422432
     33          1           0       -3.002869    3.768431   -0.982621
     34          1           0       -2.453384    4.329620    0.605598
 ---------------------------------------------------------------------

 SCF Done:  E(RHF) =  -669.535898060     A.U. after   15 cycles
 E2 =    -0.2092452626D+01 EUMP2 =    -0.67162835068647D+03

 The electronic state is 1-A.
 Alpha  occ. eigenvalues --  -20.60963 -20.60958 -15.85977 -11.31313 -11.27879
 Alpha  occ. eigenvalues --  -11.27866 -11.27607 -11.26881 -11.26869 -11.21103
 Alpha  occ. eigenvalues --  -11.20733 -11.20690 -11.20567 -11.20305 -11.19606
 Alpha  occ. eigenvalues --   -1.60011  -1.39571  -1.19478  -1.08880  -1.07609
 Alpha  occ. eigenvalues --   -1.04875  -1.02690  -0.95724  -0.95117  -0.86276
 Alpha  occ. eigenvalues --   -0.86128  -0.82562  -0.78801  -0.77624  -0.77351
 Alpha  occ. eigenvalues --   -0.72215  -0.71317  -0.70586  -0.65137  -0.64876
 Alpha  occ. eigenvalues --   -0.64252  -0.62223  -0.60098  -0.58547  -0.56711
 Alpha  occ. eigenvalues --   -0.55377  -0.54401  -0.53205  -0.52966  -0.51854
 Alpha  occ. eigenvalues --   -0.51507  -0.49084  -0.48975  -0.48939  -0.47079
 Alpha  occ. eigenvalues --   -0.45869  -0.45387  -0.44840  -0.44363  -0.42947
 Alpha  occ. eigenvalues --   -0.37454  -0.36475
 Alpha virt. eigenvalues --    0.04895   0.11166   0.16349   0.21263   0.23549
 Alpha virt. eigenvalues --    0.25194   0.27042   0.27353   0.27933   0.28325
 Alpha virt. eigenvalues --    0.28996   0.30895   0.31950   0.32345   0.32632

 Mulliken charges:
               1
     1  C   -0.170590
     2  C   -0.218518
     3  C   -0.170499
     4  C    0.157415
     5  C   -0.171365
     6  C   -0.218461
     7  H    0.226113
     8  H    0.223986
     9  H    0.276092
    10  H    0.275250
    11  H    0.223897
    12  N    0.492078
    13  O   -0.461669
    14  O   -0.457873
    15  C   -0.297986
    16  C   -0.299816
    17  C   -0.477230
    18  H    0.150046
    19  H    0.156644
    20  H    0.144795
    21  H    0.147346
    22  H    0.159009
    23  H    0.171720
    24  H    0.150397
    25  C   -0.297887
    26  C   -0.298479
    27  C   -0.474874
    28  H    0.145034
    29  H    0.148009
    30  H    0.146760
    31  H    0.155298
    32  H    0.155293
    33  H    0.152861
    34  H    0.157205
 Sum of Mulliken charges =  -0.00000

 Dipole moment (field-independent basis, Debye):
    X=              3.7780    Y=              2.7519    Z=             -2.3972  Tot=              5.2529
 Quadrupole moment (field-independent basis, Debye-Ang):
   XX=            -80.4737   YY=            -97.8992   ZZ=            -92.1769
   XY=              5.9937   XZ=             -4.8072   YZ=              4.2325

 Normal termination of Gaussian 16 at Thu May  6 15:44:44 2021.
