 Gaussian 16, Revision A.03,
 Gaussian 16:  EM64L-G16RevA.03 25-Dec-2016

 -------------
 #p 6-31g* mp2
 -------------

 ------------------------------------------------------
 Input file generated by CHIRIPA (05-May-2021 14:55:21)
 ------------------------------------------------------
 Symbolic Z-matrix:
 Charge =  0 Multiplicity = 1

                         Standard orientation:
 ---------------------------------------------------------------------
 Center     Atomic      Atomic             Coordinates (Angstroms)
 Number     Number       Type             X           Y           Z
 ---------------------------------------------------------------------
      1          6           0       -1.023916    0.821819   -0.585032
      2          6           0       -1.152004   -0.492888   -0.124967
      3          6           0       -2.413515   -1.029286    0.149650
      4          6           0       -3.530696   -0.219229   -0.047852
      5          6           0       -3.435707    1.094232   -0.505110
      6          6           0       -2.164166    1.609794   -0.773303
      7          1           0       -0.040048    1.230413   -0.795865
      8          1           0       -0.268217   -1.107150    0.022165
      9          1           0       -2.541467   -2.043923    0.506801
     10          1           0       -4.335109    1.682217   -0.642109
     11          1           0       -2.067709    2.631145   -1.130492
     12          7           0       -4.871510   -0.776061    0.239472
     13          8           0       -5.840214   -0.041849    0.057309
     14          8           0       -4.928349   -1.936173    0.641400
     15          6           0        3.571945    0.536827    0.169292
     16          6           0        3.735148    2.030555    0.452354
     17          6           0        2.396969    2.764450    0.544400
     18          1           0        3.015403    0.406576   -0.768920
     19          1           0        2.958885    0.085433    0.961628
     20          1           0        4.348873    2.478731   -0.339541
     21          1           0        4.291532    2.157265    1.389903
     22          1           0        1.781595    2.344366    1.346551
     23          1           0        1.839260    2.667657   -0.392718
     24          1           0        2.537028    3.830796    0.747255
     25          6           0        4.900921   -0.210537    0.074437
     26          6           0        4.737718   -1.704266   -0.208626
     27          6           0        6.075896   -2.438160   -0.300673
     28          1           0        5.513981    0.240857   -0.717900
     29          1           0        5.457462   -0.080287    1.012647
     30          1           0        4.181334   -1.830975   -1.146175
     31          1           0        4.123993   -2.152440    0.583268
     32          1           0        6.633605   -2.341368    0.636447
     33          1           0        6.691271   -2.018077   -1.102822
     34          1           0        5.935838   -3.504507   -0.503527
 ---------------------------------------------------------------------

 SCF Done:  E(RHF) =  -669.535582734     A.U. after   15 cycles
 E2 =    -0.2091303298D+01 EUMP2 =    -0.67162688603261D+03

 The electronic state is 1-A.
 Alpha  occ. eigenvalues --  -20.60691 -20.60686 -15.85744 -11.31085 -11.27659
 Alpha  occ. eigenvalues --  -11.27655 -11.27331 -11.26653 -11.26640 -11.22642
 Alpha  occ. eigenvalues --  -11.22502 -11.22378 -11.22315 -11.22227 -11.21680
 Alpha  occ. eigenvalues --   -1.59767  -1.39322  -1.19255  -1.09392  -1.08646
 Alpha  occ. eigenvalues --   -1.04657  -1.04457  -0.96925  -0.95487  -0.87939
 Alpha  occ. eigenvalues --   -0.86050  -0.82328  -0.80536  -0.79206  -0.77379
 Alpha  occ. eigenvalues --   -0.71962  -0.71091  -0.70366  -0.66012  -0.64902
 Alpha  occ. eigenvalues --   -0.64659  -0.62007  -0.61847  -0.60299  -0.58547
 Alpha  occ. eigenvalues --   -0.56244  -0.55164  -0.53583  -0.53315  -0.52976
 Alpha  occ. eigenvalues --   -0.52744  -0.50860  -0.48839  -0.48719  -0.48707
 Alpha  occ. eigenvalues --   -0.47558  -0.46737  -0.46644  -0.44733  -0.44712
 Alpha  occ. eigenvalues --   -0.37218  -0.36269
 Alpha virt. eigenvalues --    0.05151   0.11382   0.16625   0.19409   0.22400
 Alpha virt. eigenvalues --    0.23652   0.24953   0.25727   0.26425   0.28080
 Alpha virt. eigenvalues --    0.29166   0.30410   0.30860   0.31184   0.31879

 Mulliken charges:
               1
     1  C   -0.175058
     2  C   -0.222267
     3  C   -0.170864
     4  C    0.158124
     5  C   -0.170884
     6  C   -0.221137
     7  H    0.235350
     8  H    0.224544
     9  H    0.275099
    10  H    0.275189
    11  H    0.223141
    12  N    0.488042
    13  O   -0.460756
    14  O   -0.460795
    15  C   -0.300863
    16  C   -0.299786
    17  C   -0.480738
    18  H    0.143811
    19  H    0.148432
    20  H    0.155233
    21  H    0.156937
    22  H    0.158951
    23  H    0.145927
    24  H    0.166745
    25  C   -0.298494
    26  C   -0.300580
    27  C   -0.476198
    28  H    0.152028
    29  H    0.152875
    30  H    0.151071
    31  H    0.151146
    32  H    0.156857
    33  H    0.156602
    34  H    0.162316
 Sum of Mulliken charges =  -0.00000

 Dipole moment (field-independent basis, Debye):
    X=              5.0344    Y=              2.0034    Z=             -0.9421  Tot=              5.4996
 Quadrupole moment (field-independent basis, Debye-Ang):
   XX=           -127.5019   YY=            -92.1113   ZZ=            -94.0840
   XY=             -9.4282   XZ=              4.2615   YZ=             -1.3347

 Normal termination of Gaussian 16 at Thu May  6 04:35:40 2021.
