 Gaussian 16, Revision A.03,
 Gaussian 16:  EM64L-G16RevA.03 25-Dec-2016

 -------------
 #p 6-31g* mp2
 -------------

 ------------------------------------------------------
 Input file generated by CHIRIPA (05-May-2021 14:55:23)
 ------------------------------------------------------
 Symbolic Z-matrix:
 Charge =  0 Multiplicity = 1

                         Standard orientation:
 ---------------------------------------------------------------------
 Center     Atomic      Atomic             Coordinates (Angstroms)
 Number     Number       Type             X           Y           Z
 ---------------------------------------------------------------------
      1          6           0       -2.984656   -2.473292   -0.234676
      2          6           0       -2.304100   -1.754500    0.753607
      3          6           0       -2.427182   -0.364085    0.832003
      4          6           0       -3.242896    0.278250   -0.098216
      5          6           0       -3.933736   -0.409940   -1.094421
      6          6           0       -3.795872   -1.799905   -1.153915
      7          1           0       -2.883302   -3.553224   -0.288234
      8          1           0       -1.673408   -2.274818    1.468828
      9          1           0       -1.911600    0.217051    1.586903
     10          1           0       -4.555152    0.136589   -1.793396
     11          1           0       -4.325583   -2.355542   -1.922497
     12          7           0       -3.381021    1.749981   -0.025227
     13          8           0       -4.105820    2.292367   -0.856565
     14          8           0       -2.761870    2.333272    0.861938
     15          6           0        3.624297    0.014487    0.717599
     16          6           0        2.244862   -0.558322    0.390438
     17          6           0        1.260691   -0.430585    1.553574
     18          1           0        4.028324   -0.500556    1.599891
     19          1           0        3.517996    1.072467    0.994676
     20          1           0        2.353900   -1.614542    0.112722
     21          1           0        1.844155   -0.041988   -0.491292
     22          1           0        1.122414    0.620324    1.827567
     23          1           0        1.635056   -0.961165    2.435014
     24          1           0        0.281025   -0.846296    1.298038
     25          6           0        4.619238   -0.105855   -0.435371
     26          6           0        5.998672    0.466953   -0.108209
     27          6           0        6.982843    0.339217   -1.271345
     28          1           0        4.725539   -1.163836   -0.712448
     29          1           0        4.215211    0.409188   -1.317662
     30          1           0        6.399381   -0.049380    0.773521
     31          1           0        5.889634    1.523173    0.169507
     32          1           0        6.608479    0.869797   -2.152785
     33          1           0        7.121122   -0.711692   -1.545339
     34          1           0        7.962510    0.754927   -1.015808
 ---------------------------------------------------------------------

 SCF Done:  E(RHF) =  -669.534133281     A.U. after   15 cycles
 E2 =    -0.2092591184D+01 EUMP2 =    -0.67162672446486D+03

 The electronic state is 1-A.
 Alpha  occ. eigenvalues --  -20.60770 -20.60765 -15.85824 -11.31186 -11.27776
 Alpha  occ. eigenvalues --  -11.27733 -11.27520 -11.26783 -11.26758 -11.21911
 Alpha  occ. eigenvalues --  -11.21687 -11.21571 -11.21500 -11.21493 -11.21138
 Alpha  occ. eigenvalues --   -1.59846  -1.39399  -1.19379  -1.08769  -1.08612
 Alpha  occ. eigenvalues --   -1.04804  -1.03745  -0.96227  -0.95598  -0.87258
 Alpha  occ. eigenvalues --   -0.86176  -0.82449  -0.79826  -0.78409  -0.77484
 Alpha  occ. eigenvalues --   -0.72044  -0.71170  -0.70487  -0.65239  -0.65046
 Alpha  occ. eigenvalues --   -0.64789  -0.62249  -0.61134  -0.59560  -0.57819
 Alpha  occ. eigenvalues --   -0.55495  -0.55278  -0.53360  -0.52889  -0.52768
 Alpha  occ. eigenvalues --   -0.52512  -0.50135  -0.48802  -0.48795  -0.48128
 Alpha  occ. eigenvalues --   -0.46827  -0.45957  -0.45865  -0.44804  -0.44017
 Alpha  occ. eigenvalues --   -0.37360  -0.36313
 Alpha virt. eigenvalues --    0.05024   0.11238   0.16368   0.21024   0.22806
 Alpha virt. eigenvalues --    0.24263   0.26348   0.26585   0.27310   0.28037
 Alpha virt. eigenvalues --    0.29036   0.30034   0.31265   0.31705   0.32411

 Mulliken charges:
               1
     1  C   -0.171551
     2  C   -0.220681
     3  C   -0.168654
     4  C    0.156070
     5  C   -0.170929
     6  C   -0.218904
     7  H    0.225802
     8  H    0.225227
     9  H    0.279960
    10  H    0.275659
    11  H    0.223505
    12  N    0.488155
    13  O   -0.460535
    14  O   -0.460379
    15  C   -0.299381
    16  C   -0.297430
    17  C   -0.486864
    18  H    0.149020
    19  H    0.152856
    20  H    0.149227
    21  H    0.155754
    22  H    0.162763
    23  H    0.153789
    24  H    0.156120
    25  C   -0.298554
    26  C   -0.299940
    27  C   -0.475846
    28  H    0.148353
    29  H    0.151089
    30  H    0.151604
    31  H    0.153450
    32  H    0.155903
    33  H    0.154535
    34  H    0.160807
 Sum of Mulliken charges =  -0.00000

 Dipole moment (field-independent basis, Debye):
    X=              0.5219    Y=             -5.1273    Z=             -0.2987  Tot=              5.1624
 Quadrupole moment (field-independent basis, Debye-Ang):
   XX=            -96.8874   YY=            -97.4583   ZZ=            -92.4542
   XY=             17.1471   XZ=              4.3114   YZ=              0.2958

 Normal termination of Gaussian 16 at Wed May  5 17:33:14 2021.
