 Gaussian 16, Revision A.03,
 Gaussian 16:  EM64L-G16RevA.03 25-Dec-2016

 -------------
 #p 6-31g* mp2
 -------------

 ------------------------------------------------------
 Input file generated by CHIRIPA (05-May-2021 14:51:10)
 ------------------------------------------------------
 Symbolic Z-matrix:
 Charge =  0 Multiplicity = 1

                         Standard orientation:
 ---------------------------------------------------------------------
 Center     Atomic      Atomic             Coordinates (Angstroms)
 Number     Number       Type             X           Y           Z
 ---------------------------------------------------------------------
      1          6           0        3.021874   -0.325900    0.023256
      2          6           0        3.711709   -1.308038   -0.924119
      3          6           0        3.464371   -2.768334   -0.544446
      4          1           0        3.375587   -0.504818    1.047863
      5          1           0        1.941646   -0.527132    0.025886
      6          1           0        4.790146   -1.104111   -0.926017
      7          1           0        3.356456   -1.126633   -1.946617
      8          1           0        2.393332   -2.994605   -0.561069
      9          1           0        3.835168   -2.971956    0.465331
     10          1           0        3.966567   -3.453230   -1.234792
     11          6           0        3.259797    1.137925   -0.343268
     12          6           0        2.569962    2.120063    0.604106
     13          6           0        2.817299    3.580360    0.224434
     14          1           0        4.340025    1.339158   -0.345898
     15          1           0        2.906084    1.316844   -1.367875
     16          1           0        2.925215    1.938658    1.626605
     17          1           0        1.491525    1.916136    0.606005
     18          1           0        2.446503    3.783981   -0.785343
     19          1           0        3.888339    3.806630    0.241057
     20          1           0        2.315104    4.265255    0.914780
     21          6           0       -3.512270    0.229259   -0.044684
     22          6           0       -4.989485   -0.007219   -0.360753
     23          6           0       -5.719056    1.273067   -0.768660
     24          1           0       -3.430514    0.972023    0.760649
     25          1           0       -3.021717    0.667344   -0.924930
     26          1           0       -5.476801   -0.446010    0.519362
     27          1           0       -5.067740   -0.749649   -1.165295
     28          1           0       -5.259273    1.710988   -1.660527
     29          1           0       -5.670659    2.016353    0.033702
     30          1           0       -6.773550    1.081063   -0.990101
     31          6           0       -2.769400   -1.041284    0.364697
     32          6           0       -1.292185   -0.804806    0.680765
     33          6           0       -0.562616   -2.085093    1.088672
     34          1           0       -3.259955   -1.479369    1.244942
     35          1           0       -2.851158   -1.784049   -0.440637
     36          1           0       -1.213931   -0.062376    1.485308
     37          1           0       -0.804869   -0.366015   -0.199350
     38          1           0       -0.611012   -2.828378    0.286309
     39          1           0       -1.022397   -2.523013    1.980539
     40          1           0        0.491879   -1.893088    1.310114
 ---------------------------------------------------------------------

 SCF Done:  E(RHF) =  -470.732953503     A.U. after   11 cycles
 E2 =    -0.1583674177D+01 EUMP2 =    -0.47231662767962D+03

 The electronic state is 1-A.
 Alpha  occ. eigenvalues --  -11.21668 -11.21629 -11.21578 -11.21572 -11.21448
 Alpha  occ. eigenvalues --  -11.21387 -11.21373 -11.21308 -11.21093 -11.21053
 Alpha  occ. eigenvalues --  -11.21053 -11.21025  -1.08482  -1.08401  -1.03577
 Alpha  occ. eigenvalues --   -1.03497  -0.96018  -0.95950  -0.87032  -0.86969
 Alpha  occ. eigenvalues --   -0.79656  -0.79542  -0.78320  -0.78206  -0.65162
 Alpha  occ. eigenvalues --   -0.65003  -0.61018  -0.60859  -0.59483  -0.59237
 Alpha  occ. eigenvalues --   -0.57702  -0.57504  -0.55299  -0.55238  -0.52750
 Alpha  occ. eigenvalues --   -0.52628  -0.52518  -0.52298  -0.49993  -0.49855
 Alpha  occ. eigenvalues --   -0.48020  -0.47805  -0.46671  -0.46584  -0.45892
 Alpha  occ. eigenvalues --   -0.45771  -0.45750  -0.45545  -0.43790  -0.43754
 Alpha virt. eigenvalues --    0.20829   0.23160   0.23507   0.24469   0.26106
 Alpha virt. eigenvalues --    0.26560   0.26950   0.27040   0.28217   0.29511
 Alpha virt. eigenvalues --    0.30494   0.31073   0.31684   0.31885   0.32293

 Mulliken charges:
               1
     1  C   -0.308206
     2  C   -0.298897
     3  C   -0.478773
     4  H    0.148737
     5  H    0.160751
     6  H    0.151777
     7  H    0.151349
     8  H    0.158694
     9  H    0.154852
    10  H    0.159988
    11  C   -0.297308
    12  C   -0.301336
    13  C   -0.475592
    14  H    0.149424
    15  H    0.149121
    16  H    0.151640
    17  H    0.153763
    18  H    0.155063
    19  H    0.155108
    20  H    0.160169
    21  C   -0.298373
    22  C   -0.299688
    23  C   -0.475733
    24  H    0.149784
    25  H    0.149298
    26  H    0.152064
    27  H    0.151987
    28  H    0.155169
    29  H    0.155260
    30  H    0.160371
    31  C   -0.298292
    32  C   -0.302193
    33  C   -0.482337
    34  H    0.150007
    35  H    0.149765
    36  H    0.152996
    37  H    0.151782
    38  H    0.154678
    39  H    0.155679
    40  H    0.167453
 Sum of Mulliken charges =  -0.00000

 Dipole moment (field-independent basis, Debye):
    X=             -0.0305    Y=             -0.0089    Z=              0.0161  Tot=              0.0356
 Quadrupole moment (field-independent basis, Debye-Ang):
   XX=            -84.5889   YY=            -86.7185   ZZ=            -83.5582
   XY=              0.4128   XZ=              0.0773   YZ=              0.5947

 Normal termination of Gaussian 16 at Thu May  6 02:13:32 2021.
