 Gaussian 16, Revision A.03,
 Gaussian 16:  EM64L-G16RevA.03 25-Dec-2016

 -------------
 #p 6-31g* mp2
 -------------

 ------------------------------------------------------
 Input file generated by CHIRIPA (05-May-2021 14:55:25)
 ------------------------------------------------------
 Symbolic Z-matrix:
 Charge =  0 Multiplicity = 1

                         Standard orientation:
 ---------------------------------------------------------------------
 Center     Atomic      Atomic             Coordinates (Angstroms)
 Number     Number       Type             X           Y           Z
 ---------------------------------------------------------------------
      1          6           0        1.607298    2.299872    0.482739
      2          6           0        2.853368    2.166075   -0.138493
      3          6           0        3.407027    0.900554   -0.354051
      4          6           0        2.684035   -0.214772    0.066212
      5          6           0        1.440380   -0.114126    0.687889
      6          6           0        0.906017    1.161351    0.893223
      7          1           0        1.184696    3.286826    0.646218
      8          1           0        3.400238    3.048507   -0.458325
      9          1           0        4.369783    0.768156   -0.832580
     10          1           0        0.918904   -1.012305    0.995714
     11          1           0       -0.061898    1.262239    1.375933
     12          7           0        3.259956   -1.559792   -0.156577
     13          8           0        2.603014   -2.526754    0.222962
     14          8           0        4.357398   -1.621590   -0.706520
     15          6           0       -2.820148    0.573516   -0.113354
     16          6           0       -3.479021    1.934780   -0.338821
     17          6           0       -2.478018    3.089862   -0.299174
     18          1           0       -2.303239    0.579527    0.856033
     19          1           0       -2.047419    0.416711   -0.878662
     20          1           0       -4.251227    2.088373    0.425852
     21          1           0       -3.994584    1.925465   -1.307699
     22          1           0       -1.713527    2.963835   -1.072655
     23          1           0       -1.971630    3.127669    0.670745
     24          1           0       -2.970371    4.053569   -0.462627
     25          6           0       -3.807990   -0.591191   -0.150148
     26          6           0       -3.149117   -1.952454    0.075318
     27          6           0       -4.150120   -3.107536    0.035671
     28          1           0       -4.580720   -0.434385    0.615160
     29          1           0       -4.324900   -0.597201   -1.119536
     30          1           0       -2.633555   -1.943138    1.044195
     31          1           0       -2.376912   -2.106047   -0.689354
     32          1           0       -4.656509   -3.145343   -0.934247
     33          1           0       -4.914611   -2.981509    0.809153
     34          1           0       -3.657767   -4.071243    0.199125
 ---------------------------------------------------------------------

 SCF Done:  E(RHF) =  -669.535245127     A.U. after   15 cycles
 E2 =    -0.2092510683D+01 EUMP2 =    -0.67162775580917D+03

 The electronic state is 1-A.
 Alpha  occ. eigenvalues --  -20.60706 -20.60701 -15.85758 -11.31101 -11.27666
 Alpha  occ. eigenvalues --  -11.27642 -11.27378 -11.26682 -11.26611 -11.22407
 Alpha  occ. eigenvalues --  -11.22195 -11.22088 -11.22002 -11.21901 -11.21296
 Alpha  occ. eigenvalues --   -1.59782  -1.39336  -1.19266  -1.09093  -1.08661
 Alpha  occ. eigenvalues --   -1.04664  -1.04144  -0.96616  -0.95501  -0.87633
 Alpha  occ. eigenvalues --   -0.86066  -0.82339  -0.80239  -0.78912  -0.77371
 Alpha  occ. eigenvalues --   -0.71976  -0.71106  -0.70364  -0.65749  -0.64914
 Alpha  occ. eigenvalues --   -0.64659  -0.62039  -0.61517  -0.59983  -0.58215
 Alpha  occ. eigenvalues --   -0.55919  -0.55159  -0.53285  -0.53070  -0.52999
 Alpha  occ. eigenvalues --   -0.52750  -0.50565  -0.48750  -0.48733  -0.48509
 Alpha  occ. eigenvalues --   -0.47257  -0.46412  -0.46309  -0.44746  -0.44402
 Alpha  occ. eigenvalues --   -0.37235  -0.36244
 Alpha virt. eigenvalues --    0.05125   0.11335   0.16580   0.19512   0.22679
 Alpha virt. eigenvalues --    0.23485   0.24851   0.26058   0.26410   0.28802
 Alpha virt. eigenvalues --    0.29602   0.29824   0.31124   0.31390   0.31805

 Mulliken charges:
               1
     1  C   -0.173148
     2  C   -0.218857
     3  C   -0.171475
     4  C    0.158376
     5  C   -0.173939
     6  C   -0.218277
     7  H    0.226831
     8  H    0.222996
     9  H    0.275131
    10  H    0.275923
    11  H    0.228970
    12  N    0.488042
    13  O   -0.460619
    14  O   -0.460825
    15  C   -0.301785
    16  C   -0.299710
    17  C   -0.478491
    18  H    0.139533
    19  H    0.155307
    20  H    0.154079
    21  H    0.156507
    22  H    0.158599
    23  H    0.144610
    24  H    0.164202
    25  C   -0.298265
    26  C   -0.301088
    27  C   -0.476330
    28  H    0.150428
    29  H    0.152625
    30  H    0.148400
    31  H    0.156215
    32  H    0.156392
    33  H    0.155036
    34  H    0.164607
 Sum of Mulliken charges =  -0.00000

 Dipole moment (field-independent basis, Debye):
    X=             -2.2271    Y=              4.6754    Z=              0.6616  Tot=              5.2209
 Quadrupole moment (field-independent basis, Debye-Ang):
   XX=           -102.5285   YY=            -97.0985   ZZ=            -93.4440
   XY=             14.7635   XZ=              0.1836   YZ=             -0.8893

 Normal termination of Gaussian 16 at Wed May  5 22:27:23 2021.
