 Gaussian 16, Revision A.03,
 Gaussian 16:  EM64L-G16RevA.03 25-Dec-2016

 -------------
 #p 6-31g* mp2
 -------------

 ------------------------------------------------------
 Input file generated by CHIRIPA (05-May-2021 14:55:25)
 ------------------------------------------------------
 Symbolic Z-matrix:
 Charge =  0 Multiplicity = 1

                         Standard orientation:
 ---------------------------------------------------------------------
 Center     Atomic      Atomic             Coordinates (Angstroms)
 Number     Number       Type             X           Y           Z
 ---------------------------------------------------------------------
      1          6           0       -1.084482    1.880368    0.899437
      2          6           0       -1.579540    0.853376    1.709824
      3          6           0       -2.605925    0.021013    1.253476
      4          6           0       -3.116333    0.244935   -0.024269
      5          6           0       -2.644227    1.259681   -0.855351
      6          6           0       -1.617466    2.079891   -0.378311
      7          1           0       -0.287015    2.522247    1.261975
      8          1           0       -1.167525    0.696099    2.702574
      9          1           0       -3.007829   -0.781524    1.859962
     10          1           0       -3.075037    1.391969   -1.840399
     11          1           0       -1.234952    2.876682   -1.009858
     12          7           0       -4.203120   -0.629817   -0.518336
     13          8           0       -4.635826   -0.411862   -1.647893
     14          8           0       -4.601659   -1.516839    0.233326
     15          6           0        3.055042   -0.618670   -0.342290
     16          6           0        2.113008   -1.247510    0.684897
     17          6           0        0.707172   -1.482669    0.131615
     18          1           0        2.630019    0.334746   -0.684779
     19          1           0        3.111694   -1.270658   -1.224955
     20          1           0        2.059229   -0.595209    1.565934
     21          1           0        2.540417   -2.199448    1.025123
     22          1           0        0.740931   -2.151496   -0.734487
     23          1           0        0.257008   -0.538142   -0.190602
     24          1           0        0.050328   -1.932812    0.882473
     25          6           0        4.464234   -0.377439    0.195963
     26          6           0        5.406269    0.251402   -0.831225
     27          6           0        6.812104    0.486560   -0.277943
     28          1           0        4.407583    0.274549    1.078627
     29          1           0        4.889258   -1.330855    0.538452
     30          1           0        4.978860    1.203339   -1.171451
     31          1           0        5.460047   -0.400900   -1.712262
     32          1           0        7.262268   -0.457967    0.044274
     33          1           0        6.778346    1.155387    0.588159
     34          1           0        7.468949    0.936703   -1.028800
 ---------------------------------------------------------------------

 SCF Done:  E(RHF) =  -669.534442083     A.U. after   15 cycles
 E2 =    -0.2093399224D+01 EUMP2 =    -0.67162784130741D+03

 The electronic state is 1-A.
 Alpha  occ. eigenvalues --  -20.60792 -20.60787 -15.85847 -11.31249 -11.27828
 Alpha  occ. eigenvalues --  -11.27782 -11.27546 -11.26862 -11.26795 -11.21970
 Alpha  occ. eigenvalues --  -11.21954 -11.21793 -11.21734 -11.21405 -11.21102
 Alpha  occ. eigenvalues --   -1.59866  -1.39419  -1.19427  -1.08835  -1.08774
 Alpha  occ. eigenvalues --   -1.04830  -1.03839  -0.96271  -0.95641  -0.87286
 Alpha  occ. eigenvalues --   -0.86222  -0.82469  -0.79912  -0.78615  -0.77511
 Alpha  occ. eigenvalues --   -0.72065  -0.71187  -0.70529  -0.65440  -0.65073
 Alpha  occ. eigenvalues --   -0.64828  -0.62172  -0.61277  -0.59657  -0.57894
 Alpha  occ. eigenvalues --   -0.55719  -0.55328  -0.53407  -0.52917  -0.52831
 Alpha  occ. eigenvalues --   -0.52530  -0.50084  -0.48827  -0.48818  -0.48208
 Alpha  occ. eigenvalues --   -0.46923  -0.46138  -0.46087  -0.44817  -0.44115
 Alpha  occ. eigenvalues --   -0.37380  -0.36377
 Alpha virt. eigenvalues --    0.05008   0.11165   0.16450   0.20976   0.22637
 Alpha virt. eigenvalues --    0.24092   0.26207   0.26684   0.27320   0.27942
 Alpha virt. eigenvalues --    0.28327   0.30821   0.31154   0.31459   0.31774

 Mulliken charges:
               1
     1  C   -0.174168
     2  C   -0.213415
     3  C   -0.169210
     4  C    0.160177
     5  C   -0.171384
     6  C   -0.218547
     7  H    0.225674
     8  H    0.223685
     9  H    0.275594
    10  H    0.276096
    11  H    0.223924
    12  N    0.488150
    13  O   -0.460238
    14  O   -0.460143
    15  C   -0.297586
    16  C   -0.299230
    17  C   -0.478820
    18  H    0.145425
    19  H    0.152265
    20  H    0.143291
    21  H    0.153442
    22  H    0.156041
    23  H    0.162713
    24  H    0.156499
    25  C   -0.297988
    26  C   -0.299514
    27  C   -0.475745
    28  H    0.146631
    29  H    0.151296
    30  H    0.149966
    31  H    0.153514
    32  H    0.156292
    33  H    0.154251
    34  H    0.161062
 Sum of Mulliken charges =  -0.00000

 Dipole moment (field-independent basis, Debye):
    X=              3.7641    Y=              3.0816    Z=              1.7070  Tot=              5.1554
 Quadrupole moment (field-independent basis, Debye-Ang):
   XX=           -120.3599   YY=            -91.6840   ZZ=            -91.3222
   XY=             -9.3551   XZ=             -5.9590   YZ=             -1.8865

 Normal termination of Gaussian 16 at Thu May  6 14:22:21 2021.
