 Gaussian 16, Revision A.03,
 Gaussian 16:  EM64L-G16RevA.03 25-Dec-2016

 -------------
 #p 6-31g* mp2
 -------------

 ------------------------------------------------------
 Input file generated by CHIRIPA (05-May-2021 14:53:13)
 ------------------------------------------------------
 Symbolic Z-matrix:
 Charge =  0 Multiplicity = 1

                         Standard orientation:
 ---------------------------------------------------------------------
 Center     Atomic      Atomic             Coordinates (Angstroms)
 Number     Number       Type             X           Y           Z
 ---------------------------------------------------------------------
      1          6           0        5.639730   -0.248194    0.132753
      2          6           0        6.245667    0.716880   -0.886785
      3          6           0        7.751209    0.906434   -0.699153
      4          1           0        5.840183    0.125653    1.146165
      5          1           0        6.145449   -1.220412    0.052526
      6          1           0        5.738013    1.686577   -0.805606
      7          1           0        6.043582    0.340791   -1.897891
      8          1           0        8.275461   -0.049282   -0.800973
      9          1           0        7.968156    1.304150    0.297519
     10          1           0        8.163721    1.600108   -1.438417
     11          6           0        4.135307   -0.448002   -0.041932
     12          6           0        3.529370   -1.413075    0.977607
     13          6           0        2.023828   -1.602629    0.789975
     14          1           0        3.629588    0.524216    0.038296
     15          1           0        3.934853   -0.821849   -1.055343
     16          1           0        3.731455   -1.036987    1.988713
     17          1           0        4.037024   -2.382773    0.896427
     18          1           0        1.806880   -2.000346   -0.206698
     19          1           0        1.499575   -0.646913    0.891794
     20          1           0        1.611316   -2.296304    1.529238
     21          6           0       -2.062327    1.965836    0.607158
     22          6           0       -1.712562    0.620876    0.448196
     23          6           0       -2.677267   -0.326351    0.092313
     24          6           0       -3.988141    0.108193   -0.097604
     25          6           0       -4.367777    1.441012    0.053269
     26          6           0       -3.386485    2.370897    0.409535
     27          1           0       -1.306478    2.694930    0.883765
     28          1           0       -0.684981    0.303437    0.601027
     29          1           0       -2.433979   -1.373924   -0.037369
     30          1           0       -5.400321    1.727267   -0.105881
     31          1           0       -3.660999    3.414744    0.532292
     32          7           0       -5.018212   -0.885414   -0.474565
     33          8           0       -6.166170   -0.477098   -0.636141
     34          8           0       -4.658119   -2.053706   -0.601312
 ---------------------------------------------------------------------

 SCF Done:  E(RHF) =  -669.535548555     A.U. after   15 cycles
 E2 =    -0.2090745043D+01 EUMP2 =    -0.67162629359846D+03

 The electronic state is 1-A.
 Alpha  occ. eigenvalues --  -20.60709 -20.60704 -15.85761 -11.31116 -11.27687
 Alpha  occ. eigenvalues --  -11.27666 -11.27427 -11.26708 -11.26654 -11.22353
 Alpha  occ. eigenvalues --  -11.22097 -11.22061 -11.22045 -11.21895 -11.21450
 Alpha  occ. eigenvalues --   -1.59785  -1.39338  -1.19286  -1.09044  -1.08686
 Alpha  occ. eigenvalues --   -1.04686  -1.04167  -0.96636  -0.95523  -0.87661
 Alpha  occ. eigenvalues --   -0.86087  -0.82353  -0.80239  -0.78835  -0.77400
 Alpha  occ. eigenvalues --   -0.71980  -0.71107  -0.70401  -0.65680  -0.64938
 Alpha  occ. eigenvalues --   -0.64707  -0.62074  -0.61537  -0.59998  -0.58227
 Alpha  occ. eigenvalues --   -0.55950  -0.55193  -0.53338  -0.53148  -0.53020
 Alpha  occ. eigenvalues --   -0.52687  -0.50568  -0.48748  -0.48736  -0.48533
 Alpha  occ. eigenvalues --   -0.47255  -0.46382  -0.46290  -0.44746  -0.44406
 Alpha  occ. eigenvalues --   -0.37274  -0.36287
 Alpha virt. eigenvalues --    0.05130   0.11363   0.16625   0.20119   0.22407
 Alpha virt. eigenvalues --    0.23717   0.25140   0.26234   0.27075   0.28276
 Alpha virt. eigenvalues --    0.28717   0.29894   0.31090   0.31371   0.32051

 Mulliken charges:
               1
     1  C   -0.298808
     2  C   -0.299935
     3  C   -0.476027
     4  H    0.150074
     5  H    0.151430
     6  H    0.151004
     7  H    0.153008
     8  H    0.156292
     9  H    0.155423
    10  H    0.161368
    11  C   -0.298413
    12  C   -0.299321
    13  C   -0.481893
    14  H    0.146024
    15  H    0.151555
    16  H    0.153395
    17  H    0.156284
    18  H    0.159186
    19  H    0.145902
    20  H    0.165003
    21  C   -0.173257
    22  C   -0.226068
    23  C   -0.174144
    24  C    0.158830
    25  C   -0.171378
    26  C   -0.218460
    27  H    0.225357
    28  H    0.236058
    29  H    0.276346
    30  H    0.275295
    31  H    0.223020
    32  N    0.488093
    33  O   -0.460789
    34  O   -0.460455
 Sum of Mulliken charges =  -0.00000

 Dipole moment (field-independent basis, Debye):
    X=              3.8562    Y=              3.4244    Z=              1.3228  Tot=              5.3242
 Quadrupole moment (field-independent basis, Debye-Ang):
   XX=           -122.1084   YY=            -90.9507   ZZ=            -95.4923
   XY=            -17.1594   XZ=             -5.7423   YZ=              0.2226

 Normal termination of Gaussian 16 at Thu May  6 02:34:22 2021.
