 Gaussian 16, Revision A.03,
 Gaussian 16:  EM64L-G16RevA.03 25-Dec-2016

 -------------
 #p 6-31g* mp2
 -------------

 ------------------------------------------------------
 Input file generated by CHIRIPA (05-May-2021 14:51:07)
 ------------------------------------------------------
 Symbolic Z-matrix:
 Charge =  0 Multiplicity = 1

                         Standard orientation:
 ---------------------------------------------------------------------
 Center     Atomic      Atomic             Coordinates (Angstroms)
 Number     Number       Type             X           Y           Z
 ---------------------------------------------------------------------
      1          6           0       -2.197369   -0.363957   -0.517098
      2          6           0       -3.003734   -1.478857   -1.183999
      3          6           0       -2.117985   -2.569886   -1.786411
      4          1           0       -1.517252    0.080618   -1.256516
      5          1           0       -1.563969   -0.798670    0.268539
      6          1           0       -3.636451   -1.041983   -1.967215
      7          1           0       -3.682147   -1.920702   -0.442956
      8          1           0       -1.496848   -3.032688   -1.012717
      9          1           0       -1.450892   -2.148977   -2.545636
     10          1           0       -2.714921   -3.356772   -2.257938
     11          6           0       -3.068860    0.734164    0.089830
     12          6           0       -2.262494    1.849064    0.756731
     13          6           0       -3.148243    2.940092    1.359143
     14          1           0       -3.702259    1.168876   -0.695807
     15          1           0       -3.748976    0.289589    0.829248
     16          1           0       -1.584081    2.290908    0.015688
     17          1           0       -1.629777    1.412190    1.539947
     18          1           0       -3.815336    2.519184    2.118368
     19          1           0       -3.769381    3.402894    0.585448
     20          1           0       -2.551308    3.726979    1.830670
     21          6           0        2.715250   -0.708630    0.763730
     22          6           0        1.480404   -1.590822    0.950485
     23          6           0        1.660098   -2.633238    2.054511
     24          1           0        3.580704   -1.344513    0.532241
     25          1           0        2.943354   -0.203571    1.712561
     26          1           0        1.253880   -2.092998    0.001210
     27          1           0        0.617751   -0.952747    1.181367
     28          1           0        1.863420   -2.146952    3.014087
     29          1           0        2.503163   -3.293680    1.827225
     30          1           0        0.765507   -3.252908    2.171023
     31          6           0        2.550978    0.338423   -0.336462
     32          6           0        3.785824    1.220616   -0.523216
     33          6           0        3.606130    2.263031   -1.627243
     34          1           0        2.322875   -0.166636   -1.285293
     35          1           0        1.685525    0.974307   -0.104974
     36          1           0        4.648478    0.582541   -0.754099
     37          1           0        4.012348    1.722792    0.426057
     38          1           0        2.763065    2.923474   -1.399957
     39          1           0        3.402809    1.776745   -2.586819
     40          1           0        4.500722    2.882701   -1.743755
 ---------------------------------------------------------------------

 SCF Done:  E(RHF) =  -470.733187388     A.U. after   11 cycles
 E2 =    -0.1583680588D+01 EUMP2 =    -0.47231686797671D+03

 The electronic state is 1-A.
 Alpha  occ. eigenvalues --  -11.21650 -11.21587 -11.21578 -11.21562 -11.21383
 Alpha  occ. eigenvalues --  -11.21382 -11.21321 -11.21287 -11.21104 -11.21086
 Alpha  occ. eigenvalues --  -11.21069 -11.21057  -1.08447  -1.08389  -1.03546
 Alpha  occ. eigenvalues --   -1.03511  -0.95978  -0.95973  -0.87004  -0.86980
 Alpha  occ. eigenvalues --   -0.79668  -0.79538  -0.78412  -0.78036  -0.65117
 Alpha  occ. eigenvalues --   -0.64990  -0.60935  -0.60926  -0.59401  -0.59291
 Alpha  occ. eigenvalues --   -0.57592  -0.57583  -0.55305  -0.55222  -0.52695
 Alpha  occ. eigenvalues --   -0.52660  -0.52434  -0.52372  -0.49978  -0.49865
 Alpha  occ. eigenvalues --   -0.48094  -0.47807  -0.46687  -0.46634  -0.46183
 Alpha  occ. eigenvalues --   -0.45725  -0.45660  -0.45140  -0.43784  -0.43761
 Alpha virt. eigenvalues --    0.20958   0.22825   0.23473   0.24067   0.25223
 Alpha virt. eigenvalues --    0.26230   0.26562   0.27684   0.28462   0.30144
 Alpha virt. eigenvalues --    0.30527   0.31475   0.31640   0.31753   0.32434

 Mulliken charges:
               1
     1  C   -0.305207
     2  C   -0.299238
     3  C   -0.476906
     4  H    0.150187
     5  H    0.157745
     6  H    0.151698
     7  H    0.151526
     8  H    0.156655
     9  H    0.154937
    10  H    0.160001
    11  C   -0.297930
    12  C   -0.300864
    13  C   -0.475636
    14  H    0.149508
    15  H    0.149389
    16  H    0.152158
    17  H    0.151284
    18  H    0.155364
    19  H    0.155548
    20  H    0.160118
    21  C   -0.297765
    22  C   -0.306546
    23  C   -0.475743
    24  H    0.149500
    25  H    0.149208
    26  H    0.154008
    27  H    0.157098
    28  H    0.155037
    29  H    0.155494
    30  H    0.159323
    31  C   -0.299452
    32  C   -0.299613
    33  C   -0.475661
    34  H    0.149394
    35  H    0.151357
    36  H    0.151893
    37  H    0.151887
    38  H    0.155006
    39  H    0.154998
    40  H    0.160240
 Sum of Mulliken charges =  -0.00000

 Dipole moment (field-independent basis, Debye):
    X=             -0.0024    Y=             -0.0002    Z=             -0.0025  Tot=              0.0035
 Quadrupole moment (field-independent basis, Debye-Ang):
   XX=            -84.9752   YY=            -85.5330   ZZ=            -84.3904
   XY=              0.1655   XZ=             -0.0509   YZ=              0.2155

 Normal termination of Gaussian 16 at Thu May  6 08:25:13 2021.
