 Gaussian 16, Revision A.03,
 Gaussian 16:  EM64L-G16RevA.03 25-Dec-2016

 -------------
 #p 6-31g* mp2
 -------------

 ------------------------------------------------------
 Input file generated by CHIRIPA (05-May-2021 14:55:22)
 ------------------------------------------------------
 Symbolic Z-matrix:
 Charge =  0 Multiplicity = 1

                         Standard orientation:
 ---------------------------------------------------------------------
 Center     Atomic      Atomic             Coordinates (Angstroms)
 Number     Number       Type             X           Y           Z
 ---------------------------------------------------------------------
      1          6           0       -1.416913    2.620481   -0.342979
      2          6           0       -1.601860    2.154817    0.962959
      3          6           0       -2.267947    0.948509    1.198962
      4          6           0       -2.738197    0.230162    0.100722
      5          6           0       -2.569532    0.667669   -1.212073
      6          6           0       -1.900487    1.876732   -1.424420
      7          1           0       -0.898331    3.558641   -0.517123
      8          1           0       -1.227379    2.730325    1.804741
      9          1           0       -2.424895    0.564671    2.199689
     10          1           0       -2.954087    0.071881   -2.030958
     11          1           0       -1.758297    2.235928   -2.439706
     12          7           0       -3.444920   -1.048361    0.338046
     13          8           0       -3.849711   -1.662574   -0.646598
     14          8           0       -3.580676   -1.412045    1.504211
     15          6           0        2.881542   -1.085135   -0.374262
     16          6           0        1.411782   -0.823675   -0.043461
     17          6           0        0.475345   -1.874081   -0.641397
     18          1           0        3.006219   -1.110918   -1.465471
     19          1           0        3.161959   -2.080962   -0.004005
     20          1           0        1.134597    0.171925   -0.413009
     21          1           0        1.290623   -0.798321    1.047087
     22          1           0        0.723730   -2.871230   -0.263774
     23          1           0        0.566818   -1.895472   -1.732165
     24          1           0       -0.570331   -1.667854   -0.392616
     25          6           0        3.830064   -0.043512    0.216546
     26          6           0        5.299824   -0.304973   -0.114255
     27          6           0        6.236260    0.745433    0.483682
     28          1           0        3.549647    0.952314   -0.153711
     29          1           0        3.705387   -0.017730    1.307755
     30          1           0        5.420983   -0.330327   -1.204803
     31          1           0        5.577008   -1.300573    0.255293
     32          1           0        6.144787    0.766824    1.574450
     33          1           0        5.987875    1.742582    0.106058
     34          1           0        7.281937    0.539207    0.234901
 ---------------------------------------------------------------------

 SCF Done:  E(RHF) =  -669.535071926     A.U. after   15 cycles
 E2 =    -0.2093453297D+01 EUMP2 =    -0.67162852522295D+03

 The electronic state is 1-A.
 Alpha  occ. eigenvalues --  -20.60827 -20.60816 -15.85868 -11.31216 -11.27806
 Alpha  occ. eigenvalues --  -11.27799 -11.27569 -11.26840 -11.26823 -11.21774
 Alpha  occ. eigenvalues --  -11.21587 -11.21570 -11.21439 -11.21279 -11.20918
 Alpha  occ. eigenvalues --   -1.59901  -1.39451  -1.19421  -1.08822  -1.08537
 Alpha  occ. eigenvalues --   -1.04816  -1.03600  -0.96051  -0.95647  -0.87066
 Alpha  occ. eigenvalues --   -0.86217  -0.82475  -0.79667  -0.78354  -0.77519
 Alpha  occ. eigenvalues --   -0.72089  -0.71255  -0.70525  -0.65173  -0.65071
 Alpha  occ. eigenvalues --   -0.64821  -0.62162  -0.61001  -0.59459  -0.57711
 Alpha  occ. eigenvalues --   -0.55347  -0.55323  -0.53293  -0.52910  -0.52605
 Alpha  occ. eigenvalues --   -0.52376  -0.49990  -0.48850  -0.48845  -0.47998
 Alpha  occ. eigenvalues --   -0.46707  -0.45892  -0.45821  -0.44851  -0.43874
 Alpha  occ. eigenvalues --   -0.37342  -0.36398
 Alpha virt. eigenvalues --    0.04993   0.11222   0.16483   0.21367   0.22706
 Alpha virt. eigenvalues --    0.24085   0.26492   0.27197   0.27351   0.27714
 Alpha virt. eigenvalues --    0.28318   0.30604   0.31298   0.31636   0.31722

 Mulliken charges:
               1
     1  C   -0.171313
     2  C   -0.216598
     3  C   -0.170993
     4  C    0.154123
     5  C   -0.170336
     6  C   -0.217668
     7  H    0.225923
     8  H    0.223927
     9  H    0.275877
    10  H    0.275960
    11  H    0.223724
    12  N    0.491841
    13  O   -0.459680
    14  O   -0.459933
    15  C   -0.298499
    16  C   -0.300985
    17  C   -0.474544
    18  H    0.148695
    19  H    0.151233
    20  H    0.150511
    21  H    0.150480
    22  H    0.158337
    23  H    0.152853
    24  H    0.160069
    25  C   -0.297328
    26  C   -0.299609
    27  C   -0.475553
    28  H    0.145630
    29  H    0.149160
    30  H    0.151827
    31  H    0.153373
    32  H    0.155134
    33  H    0.153387
    34  H    0.160975
 Sum of Mulliken charges =  -0.00000

 Dipole moment (field-independent basis, Debye):
    X=              2.4210    Y=              4.5019    Z=             -0.8282  Tot=              5.1782
 Quadrupole moment (field-independent basis, Debye-Ang):
   XX=           -109.8969   YY=            -93.2684   ZZ=            -89.4585
   XY=            -12.4770   XZ=              3.0850   YZ=              0.1495

 Normal termination of Gaussian 16 at Thu May  6 07:50:17 2021.
