 Gaussian 16, Revision A.03,
 Gaussian 16:  EM64L-G16RevA.03 25-Dec-2016

 -------------
 #p 6-31g* mp2
 -------------

 ------------------------------------------------------
 Input file generated by CHIRIPA (05-May-2021 14:51:11)
 ------------------------------------------------------
 Symbolic Z-matrix:
 Charge =  0 Multiplicity = 1

                         Standard orientation:
 ---------------------------------------------------------------------
 Center     Atomic      Atomic             Coordinates (Angstroms)
 Number     Number       Type             X           Y           Z
 ---------------------------------------------------------------------
      1          6           0        4.407305   -0.224401   -0.315083
      2          6           0        5.199504   -1.117006    0.640773
      3          6           0        6.099375   -2.113824   -0.090240
      4          1           0        3.797021   -0.855772   -0.975287
      5          1           0        5.108161    0.319765   -0.963219
      6          1           0        4.497412   -1.658285    1.287843
      7          1           0        5.807828   -0.483428    1.298905
      8          1           0        6.822249   -1.588372   -0.722660
      9          1           0        5.504388   -2.769905   -0.733784
     10          1           0        6.656433   -2.741770    0.612064
     11          6           0        3.503074    0.777424    0.400766
     12          6           0        2.710874    1.670029   -0.555090
     13          6           0        1.811004    2.666847    0.175923
     14          1           0        2.802218    0.233258    1.048902
     15          1           0        4.113357    1.408796    1.060970
     16          1           0        2.102551    1.036451   -1.213222
     17          1           0        3.412967    2.211308   -1.202160
     18          1           0        2.405991    3.322928    0.819467
     19          1           0        1.088130    2.141395    0.808343
     20          1           0        1.253946    3.294793   -0.526381
     21          6           0       -4.613863   -0.632273   -0.194550
     22          6           0       -5.832033    0.060310    0.417312
     23          6           0       -7.142274   -0.663256    0.105039
     24          1           0       -4.746688   -0.699816   -1.283007
     25          1           0       -4.561746   -1.664464    0.178627
     26          1           0       -5.881052    1.091317    0.044168
     27          1           0       -5.696205    0.126384    1.504419
     28          1           0       -7.118720   -1.687049    0.492201
     29          1           0       -7.304617   -0.716634   -0.976347
     30          1           0       -8.000086   -0.151170    0.552012
     31          6           0       -3.296516    0.079250    0.108866
     32          6           0       -2.078345   -0.613333   -0.502995
     33          6           0       -0.768105    0.110234   -0.190722
     34          1           0       -3.348633    1.111442   -0.264309
     35          1           0       -3.163689    0.146793    1.197324
     36          1           0       -2.214174   -0.679407   -1.590101
     37          1           0       -2.029326   -1.644340   -0.129850
     38          1           0       -0.605760    0.163611    0.890665
     39          1           0       -0.791658    1.134026   -0.577884
     40          1           0        0.089708   -0.401853   -0.637695
 ---------------------------------------------------------------------

 SCF Done:  E(RHF) =  -470.732215381     A.U. after   11 cycles
 E2 =    -0.1583589799D+01 EUMP2 =    -0.47231580517984D+03

 The electronic state is 1-A.
 Alpha  occ. eigenvalues --  -11.21631 -11.21618 -11.21566 -11.21453 -11.21432
 Alpha  occ. eigenvalues --  -11.21372 -11.21343 -11.21269 -11.21115 -11.21085
 Alpha  occ. eigenvalues --  -11.21046 -11.20877  -1.08465  -1.08350  -1.03600
 Alpha  occ. eigenvalues --   -1.03414  -0.96078  -0.95845  -0.87084  -0.86880
 Alpha  occ. eigenvalues --   -0.79651  -0.79505  -0.78274  -0.78170  -0.65093
 Alpha  occ. eigenvalues --   -0.64993  -0.61014  -0.60848  -0.59361  -0.59267
 Alpha  occ. eigenvalues --   -0.57677  -0.57496  -0.55390  -0.55145  -0.52694
 Alpha  occ. eigenvalues --   -0.52607  -0.52490  -0.52261  -0.49976  -0.49815
 Alpha  occ. eigenvalues --   -0.47968  -0.47790  -0.46669  -0.46496  -0.45827
 Alpha  occ. eigenvalues --   -0.45742  -0.45695  -0.45575  -0.43798  -0.43693
 Alpha virt. eigenvalues --    0.21231   0.22964   0.23763   0.24845   0.26047
 Alpha virt. eigenvalues --    0.26468   0.26743   0.27611   0.27880   0.29363
 Alpha virt. eigenvalues --    0.30078   0.31118   0.31672   0.32070   0.32388

 Mulliken charges:
               1
     1  C   -0.298091
     2  C   -0.299566
     3  C   -0.475648
     4  H    0.148735
     5  H    0.149485
     6  H    0.151786
     7  H    0.151917
     8  H    0.155144
     9  H    0.155018
    10  H    0.160104
    11  C   -0.299399
    12  C   -0.301326
    13  C   -0.478868
    14  H    0.150236
    15  H    0.149368
    16  H    0.154814
    17  H    0.151023
    18  H    0.153748
    19  H    0.162100
    20  H    0.157845
    21  C   -0.298270
    22  C   -0.299652
    23  C   -0.475721
    24  H    0.149693
    25  H    0.149536
    26  H    0.152015
    27  H    0.151978
    28  H    0.155185
    29  H    0.155201
    30  H    0.160333
    31  C   -0.298551
    32  C   -0.300776
    33  C   -0.478720
    34  H    0.149757
    35  H    0.149583
    36  H    0.151976
    37  H    0.151616
    38  H    0.154317
    39  H    0.160156
    40  H    0.161918
 Sum of Mulliken charges =  -0.00000

 Dipole moment (field-independent basis, Debye):
    X=             -0.0566    Y=             -0.0063    Z=              0.0029  Tot=              0.0571
 Quadrupole moment (field-independent basis, Debye-Ang):
   XX=            -85.9466   YY=            -84.9278   ZZ=            -84.2355
   XY=              0.4847   XZ=              0.2445   YZ=             -0.8331

 Normal termination of Gaussian 16 at Thu May  6 05:28:04 2021.
