 Gaussian 16, Revision A.03,
 Gaussian 16:  EM64L-G16RevA.03 25-Dec-2016

 -------------
 #p 6-31g* mp2
 -------------

 ------------------------------------------------------
 Input file generated by CHIRIPA (05-May-2021 14:57:25)
 ------------------------------------------------------
 Symbolic Z-matrix:
 Charge =  0 Multiplicity = 1

                         Standard orientation:
 ---------------------------------------------------------------------
 Center     Atomic      Atomic             Coordinates (Angstroms)
 Number     Number       Type             X           Y           Z
 ---------------------------------------------------------------------
      1          6           0        5.627502    0.399360    0.497042
      2          6           0        4.565747    1.241505    0.843437
      3          6           0        3.252534    0.906161    0.500561
      4          6           0        3.036285   -0.284281   -0.191809
      5          6           0        4.073034   -1.144143   -0.551080
      6          6           0        5.378197   -0.788682   -0.197886
      7          1           0        6.644511    0.667677    0.767404
      8          1           0        4.756389    2.164779    1.383126
      9          1           0        2.411938    1.539756    0.756243
     10          1           0        3.851671   -2.057915   -1.089074
     11          1           0        6.200818   -1.444627   -0.468209
     12          7           0        1.650306   -0.649943   -0.560258
     13          8           0        1.486234   -1.704290   -1.170233
     14          8           0        0.754292    0.124722   -0.232097
     15          6           0       -2.405091    2.524112   -0.449029
     16          6           0       -3.286735    1.867590   -1.314015
     17          6           0       -3.769412    0.592958   -1.002750
     18          6           0       -3.347816    0.001650    0.187167
     19          6           0       -2.470359    0.630094    1.069447
     20          6           0       -2.000430    1.904361    0.737848
     21          1           0       -2.035087    3.514135   -0.698725
     22          1           0       -3.602704    2.346475   -2.236446
     23          1           0       -4.452788    0.062054   -1.654329
     24          1           0       -2.173340    0.127217    1.981758
     25          1           0       -1.315820    2.411852    1.411502
     26          7           0       -3.852055   -1.347552    0.527452
     27          8           0       -3.465472   -1.846966    1.581860
     28          8           0       -4.624315   -1.880095   -0.266682
 ---------------------------------------------------------------------

 SCF Done:  E(RHF) =  -868.337164127     A.U. after   16 cycles
 E2 =    -0.2600314213D+01 EUMP2 =    -0.87093747833993D+03

 The electronic state is 1-A.
 Alpha  occ. eigenvalues --  -20.61083 -20.61036 -20.59633 -20.59627 -15.86105
 Alpha  occ. eigenvalues --  -15.84683 -11.31506 -11.29886 -11.28130 -11.28037
 Alpha  occ. eigenvalues --  -11.27803 -11.27116 -11.27058 -11.26503 -11.26467
 Alpha  occ. eigenvalues --  -11.26287 -11.25543 -11.25512  -1.60132  -1.58703
 Alpha  occ. eigenvalues --   -1.39690  -1.38265  -1.19677  -1.18062  -1.09061
 Alpha  occ. eigenvalues --   -1.07519  -1.05087  -1.03479  -0.95895  -0.94380
 Alpha  occ. eigenvalues --   -0.86483  -0.84920  -0.82733  -0.81236  -0.77783
 Alpha  occ. eigenvalues --   -0.76282  -0.72337  -0.71454  -0.70926  -0.70785
 Alpha  occ. eigenvalues --   -0.70000  -0.69279  -0.65332  -0.65089  -0.63772
 Alpha  occ. eigenvalues --   -0.63571  -0.62443  -0.60881  -0.55575  -0.54082
 Alpha  occ. eigenvalues --   -0.53408  -0.53183  -0.51754  -0.51649  -0.49089
 Alpha  occ. eigenvalues --   -0.49054  -0.47675  -0.47665  -0.45093  -0.43709
 Alpha  occ. eigenvalues --   -0.37649  -0.36691  -0.36040  -0.34968
 Alpha virt. eigenvalues --    0.04744   0.06307   0.10964   0.12611   0.16254
 Alpha virt. eigenvalues --    0.17796   0.20997   0.22380   0.26724   0.27577
 Alpha virt. eigenvalues --    0.28629   0.29332   0.30590   0.31599   0.32694

 Mulliken charges:
               1
     1  C   -0.170719
     2  C   -0.218053
     3  C   -0.170656
     4  C    0.158889
     5  C   -0.170329
     6  C   -0.218210
     7  H    0.226523
     8  H    0.222631
     9  H    0.268993
    10  H    0.277577
    11  H    0.225001
    12  N    0.492044
    13  O   -0.455613
    14  O   -0.467552
    15  C   -0.169049
    16  C   -0.217792
    17  C   -0.169801
    18  C    0.160986
    19  C   -0.155583
    20  C   -0.204137
    21  H    0.218198
    22  H    0.218005
    23  H    0.271952
    24  H    0.271208
    25  H    0.213409
    26  N    0.488990
    27  O   -0.463046
    28  O   -0.463866
 Sum of Mulliken charges =  -0.00000

 Dipole moment (field-independent basis, Debye):
    X=              6.9508    Y=              5.8729    Z=              0.0682  Tot=              9.1000
 Quadrupole moment (field-independent basis, Debye-Ang):
   XX=            -86.6868   YY=           -103.3855   ZZ=           -102.3682
   XY=            -15.0045   XZ=              9.0904   YZ=              2.5908

 Normal termination of Gaussian 16 at Thu May  6 11:24:42 2021.
