 Gaussian 16, Revision A.03,
 Gaussian 16:  EM64L-G16RevA.03 25-Dec-2016

 -------------
 #p 6-31g* mp2
 -------------

 ------------------------------------------------------
 Input file generated by CHIRIPA (05-May-2021 14:55:23)
 ------------------------------------------------------
 Symbolic Z-matrix:
 Charge =  0 Multiplicity = 1

                         Standard orientation:
 ---------------------------------------------------------------------
 Center     Atomic      Atomic             Coordinates (Angstroms)
 Number     Number       Type             X           Y           Z
 ---------------------------------------------------------------------
      1          6           0       -2.320967    1.931645   -0.138154
      2          6           0       -3.683185    2.224828   -0.260331
      3          6           0       -4.635252    1.201518   -0.229452
      4          6           0       -4.187898   -0.109626   -0.074322
      5          6           0       -2.837778   -0.433701    0.049941
      6          6           0       -1.903348    0.605654    0.016320
      7          1           0       -1.588229    2.732808   -0.163207
      8          1           0       -4.010406    3.253688   -0.380411
      9          1           0       -5.696093    1.400282   -0.321801
     10          1           0       -2.542062   -1.469039    0.168451
     11          1           0       -0.846087    0.375007    0.111439
     12          7           0       -5.186473   -1.201451   -0.040180
     13          8           0       -4.766625   -2.348364    0.097496
     14          8           0       -6.370096   -0.889637   -0.151742
     15          6           0        5.886104    0.001748    0.283836
     16          6           0        6.844284   -0.554082   -0.770170
     17          6           0        8.313594   -0.363025   -0.392782
     18          1           0        6.092484    1.070797    0.430418
     19          1           0        6.085393   -0.489878    1.246116
     20          1           0        6.642319   -0.062549   -1.730493
     21          1           0        6.635472   -1.621889   -0.914398
     22          1           0        8.537422   -0.868258    0.552332
     23          1           0        8.544309    0.699943   -0.268399
     24          1           0        8.981041   -0.767530   -1.160083
     25          6           0        4.413597   -0.181768   -0.079167
     26          6           0        3.455417    0.374063    0.974839
     27          6           0        1.986107    0.183005    0.597452
     28          1           0        4.214308    0.309859   -1.041447
     29          1           0        4.207218   -1.250817   -0.225749
     30          1           0        3.664228    1.441870    1.119068
     31          1           0        3.657382   -0.117470    1.935162
     32          1           0        1.755392   -0.879962    0.473069
     33          1           0        1.762278    0.688237   -0.347663
     34          1           0        1.318659    0.587509    1.364752
 ---------------------------------------------------------------------

 SCF Done:  E(RHF) =  -669.535590690     A.U. after   15 cycles
 E2 =    -0.2090954913D+01 EUMP2 =    -0.67162654560255D+03

 The electronic state is 1-A.
 Alpha  occ. eigenvalues --  -20.60687 -20.60682 -15.85738 -11.31081 -11.27648
 Alpha  occ. eigenvalues --  -11.27621 -11.27372 -11.26669 -11.26555 -11.22496
 Alpha  occ. eigenvalues --  -11.22333 -11.22067 -11.22033 -11.21902 -11.21427
 Alpha  occ. eigenvalues --   -1.59763  -1.39317  -1.19244  -1.09086  -1.08644
 Alpha  occ. eigenvalues --   -1.04641  -1.04238  -0.96726  -0.95486  -0.87773
 Alpha  occ. eigenvalues --   -0.86032  -0.82316  -0.80329  -0.78851  -0.77362
 Alpha  occ. eigenvalues --   -0.71957  -0.71085  -0.70360  -0.65710  -0.64893
 Alpha  occ. eigenvalues --   -0.64655  -0.62017  -0.61626  -0.60100  -0.58295
 Alpha  occ. eigenvalues --   -0.56005  -0.55155  -0.53572  -0.53158  -0.52969
 Alpha  occ. eigenvalues --   -0.52564  -0.50657  -0.48717  -0.48714  -0.48617
 Alpha  occ. eigenvalues --   -0.47320  -0.46405  -0.46296  -0.44727  -0.44469
 Alpha  occ. eigenvalues --   -0.37230  -0.36241
 Alpha virt. eigenvalues --    0.05159   0.11377   0.16654   0.20748   0.22311
 Alpha virt. eigenvalues --    0.23740   0.25765   0.26007   0.26963   0.28170
 Alpha virt. eigenvalues --    0.28814   0.30408   0.30680   0.30775   0.31866

 Mulliken charges:
               1
     1  C   -0.174848
     2  C   -0.218360
     3  C   -0.171691
     4  C    0.159095
     5  C   -0.174530
     6  C   -0.230683
     7  H    0.225184
     8  H    0.222783
     9  H    0.275095
    10  H    0.275616
    11  H    0.245745
    12  N    0.488042
    13  O   -0.460667
    14  O   -0.460874
    15  C   -0.299013
    16  C   -0.300129
    17  C   -0.476069
    18  H    0.150068
    19  H    0.150943
    20  H    0.152244
    21  H    0.153046
    22  H    0.155975
    23  H    0.155421
    24  H    0.161676
    25  C   -0.299379
    26  C   -0.299059
    27  C   -0.486434
    28  H    0.149829
    29  H    0.151528
    30  H    0.153472
    31  H    0.156058
    32  H    0.158736
    33  H    0.152909
    34  H    0.158272
 Sum of Mulliken charges =  -0.00000

 Dipole moment (field-independent basis, Debye):
    X=              3.8131    Y=              3.8215    Z=             -0.1011  Tot=              5.3994
 Quadrupole moment (field-independent basis, Debye-Ang):
   XX=           -122.2848   YY=            -92.9217   ZZ=            -95.3550
   XY=            -19.5783   XZ=              0.6582   YZ=             -1.1824

 Normal termination of Gaussian 16 at Wed May  5 19:06:11 2021.
