 Gaussian 16, Revision A.03,
 Gaussian 16:  EM64L-G16RevA.03 25-Dec-2016

 -------------
 #p 6-31g* mp2
 -------------

 ------------------------------------------------------
 Input file generated by CHIRIPA (05-May-2021 14:55:24)
 ------------------------------------------------------
 Symbolic Z-matrix:
 Charge =  0 Multiplicity = 1

                         Standard orientation:
 ---------------------------------------------------------------------
 Center     Atomic      Atomic             Coordinates (Angstroms)
 Number     Number       Type             X           Y           Z
 ---------------------------------------------------------------------
      1          6           0       -2.550428   -2.362649    0.339607
      2          6           0       -2.965346   -1.625442    1.453559
      3          6           0       -3.299728   -0.273960    1.326147
      4          6           0       -3.207376    0.311087    0.064211
      5          6           0       -2.797353   -0.396768   -1.064555
      6          6           0       -2.467901   -1.747045   -0.913685
      7          1           0       -2.292586   -3.412045    0.447695
      8          1           0       -3.030375   -2.100912    2.428108
      9          1           0       -3.623919    0.320270    2.171847
     10          1           0       -2.742400    0.104780   -2.023120
     11          1           0       -2.145981   -2.317105   -1.780543
     12          7           0       -3.558762    1.741202   -0.083091
     13          8           0       -3.469067    2.233348   -1.205759
     14          8           0       -3.917220    2.342901    0.926911
     15          6           0        4.625124    0.354880   -0.277830
     16          6           0        5.748345    0.280598    0.756986
     17          6           0        6.929267    1.189168    0.413885
     18          1           0        5.025107    0.082037   -1.263991
     19          1           0        4.278028    1.394347   -0.357992
     20          1           0        6.092277   -0.758659    0.836176
     21          1           0        5.345600    0.553464    1.740833
     22          1           0        6.607089    2.233813    0.354562
     23          1           0        7.358009    0.914234   -0.555234
     24          1           0        7.720669    1.120447    1.166759
     25          6           0        3.437503   -0.547869    0.051298
     26          6           0        2.314283   -0.473587   -0.983516
     27          6           0        1.133361   -1.382157   -0.640416
     28          1           0        3.784599   -1.587338    0.131461
     29          1           0        3.037521   -0.275026    1.037460
     30          1           0        2.717028   -0.746454   -1.967363
     31          1           0        1.970350    0.565670   -1.062707
     32          1           0        0.704618   -1.107223    0.328703
     33          1           0        1.455539   -2.426803   -0.581093
     34          1           0        0.341959   -1.313436   -1.393290
 ---------------------------------------------------------------------

 SCF Done:  E(RHF) =  -669.534691382     A.U. after   15 cycles
 E2 =    -0.2092223307D+01 EUMP2 =    -0.67162691468834D+03

 The electronic state is 1-A.
 Alpha  occ. eigenvalues --  -20.60774 -20.60769 -15.85827 -11.31194 -11.27751
 Alpha  occ. eigenvalues --  -11.27737 -11.27479 -11.26784 -11.26756 -11.21803
 Alpha  occ. eigenvalues --  -11.21702 -11.21571 -11.21477 -11.21373 -11.21134
 Alpha  occ. eigenvalues --   -1.59850  -1.39403  -1.19364  -1.08759  -1.08585
 Alpha  occ. eigenvalues --   -1.04776  -1.03699  -0.96162  -0.95590  -0.87192
 Alpha  occ. eigenvalues --   -0.86160  -0.82429  -0.79770  -0.78395  -0.77477
 Alpha  occ. eigenvalues --   -0.72046  -0.71173  -0.70460  -0.65214  -0.65017
 Alpha  occ. eigenvalues --   -0.64786  -0.62131  -0.61097  -0.59559  -0.57775
 Alpha  occ. eigenvalues --   -0.55465  -0.55259  -0.53448  -0.52889  -0.52581
 Alpha  occ. eigenvalues --   -0.52491  -0.50080  -0.48805  -0.48800  -0.48089
 Alpha  occ. eigenvalues --   -0.46787  -0.45940  -0.45856  -0.44809  -0.43975
 Alpha  occ. eigenvalues --   -0.37304  -0.36294
 Alpha virt. eigenvalues --    0.05040   0.11256   0.16458   0.21110   0.22751
 Alpha virt. eigenvalues --    0.24152   0.26495   0.26628   0.27324   0.28158
 Alpha virt. eigenvalues --    0.28374   0.30478   0.31200   0.31805   0.32343

 Mulliken charges:
               1
     1  C   -0.169410
     2  C   -0.219245
     3  C   -0.171641
     4  C    0.158858
     5  C   -0.171300
     6  C   -0.214120
     7  H    0.225986
     8  H    0.223500
     9  H    0.275462
    10  H    0.275359
    11  H    0.223625
    12  N    0.488013
    13  O   -0.460440
    14  O   -0.460511
    15  C   -0.298628
    16  C   -0.299717
    17  C   -0.475862
    18  H    0.149537
    19  H    0.151534
    20  H    0.151084
    21  H    0.152205
    22  H    0.156305
    23  H    0.155130
    24  H    0.160365
    25  C   -0.298508
    26  C   -0.300464
    27  C   -0.475224
    28  H    0.147947
    29  H    0.149973
    30  H    0.150932
    31  H    0.155523
    32  H    0.158299
    33  H    0.149385
    34  H    0.156048
 Sum of Mulliken charges =  -0.00000

 Dipole moment (field-independent basis, Debye):
    X=              1.2230    Y=             -5.0230    Z=              0.5426  Tot=              5.1981
 Quadrupole moment (field-independent basis, Debye-Ang):
   XX=           -104.0043   YY=            -98.3730   ZZ=            -89.7286
   XY=             16.0105   XZ=             -2.8693   YZ=              0.5297

 Normal termination of Gaussian 16 at Thu May  6 06:20:49 2021.
