 Gaussian 16, Revision A.03,
 Gaussian 16:  EM64L-G16RevA.03 25-Dec-2016

 -------------
 #p 6-31g* mp2
 -------------

 ------------------------------------------------------
 Input file generated by CHIRIPA (05-May-2021 14:51:09)
 ------------------------------------------------------
 Symbolic Z-matrix:
 Charge =  0 Multiplicity = 1

                         Standard orientation:
 ---------------------------------------------------------------------
 Center     Atomic      Atomic             Coordinates (Angstroms)
 Number     Number       Type             X           Y           Z
 ---------------------------------------------------------------------
      1          6           0       -3.146061    0.376486   -0.067704
      2          6           0       -2.932702    1.874171    0.154563
      3          6           0       -4.077098    2.525386    0.931783
      4          1           0       -4.091068    0.223213   -0.606605
      5          1           0       -3.257779   -0.119427    0.906454
      6          1           0       -2.820038    2.366905   -0.819673
      7          1           0       -1.987999    2.023907    0.692829
      8          1           0       -4.187356    2.060481    1.916825
      9          1           0       -5.024123    2.405427    0.395729
     10          1           0       -3.904042    3.595961    1.079364
     11          6           0       -2.010398   -0.288696   -0.843288
     12          6           0       -2.223757   -1.786381   -1.065555
     13          6           0       -1.079361   -2.437596   -1.842776
     14          1           0       -1.898680    0.207216   -1.817447
     15          1           0       -1.065391   -0.135423   -0.304387
     16          1           0       -3.168460   -1.936118   -1.603822
     17          1           0       -2.336421   -2.279115   -0.091319
     18          1           0       -0.132336   -2.317637   -1.306721
     19          1           0       -0.969103   -1.972691   -2.827817
     20          1           0       -1.252416   -3.508172   -1.990356
     21          6           0        2.134213   -0.664651    0.486198
     22          6           0        1.639173   -0.986921    1.896540
     23          6           0        0.752094   -2.231449    1.941696
     24          1           0        1.268983   -0.524182   -0.176063
     25          1           0        2.690874   -1.527253    0.094482
     26          1           0        1.084792   -0.123447    2.286013
     27          1           0        2.505680   -1.126452    2.555563
     28          1           0        1.298786   -3.107597    1.578247
     29          1           0       -0.130176   -2.098893    1.307165
     30          1           0        0.409385   -2.443477    2.959268
     31          6           0        3.022246    0.576861    0.424794
     32          6           0        3.517286    0.899132   -0.985548
     33          6           0        4.404364    2.143659   -1.030704
     34          1           0        2.465584    1.439463    0.816511
     35          1           0        3.887475    0.436392    1.087055
     36          1           0        2.650778    1.038663   -1.644570
     37          1           0        4.071666    0.035657   -1.375020
     38          1           0        5.286634    2.011102   -0.396173
     39          1           0        3.857673    3.019807   -0.667255
     40          1           0        4.747073    2.355687   -2.048276
 ---------------------------------------------------------------------

 SCF Done:  E(RHF) =  -470.732234288     A.U. after   11 cycles
 E2 =    -0.1585129572D+01 EUMP2 =    -0.47231736386004D+03

 The electronic state is 1-A.
 Alpha  occ. eigenvalues --  -11.21662 -11.21653 -11.21623 -11.21602 -11.21451
 Alpha  occ. eigenvalues --  -11.21426 -11.21392 -11.21366 -11.21111 -11.21106
 Alpha  occ. eigenvalues --  -11.21071 -11.21004  -1.08526  -1.08425  -1.03618
 Alpha  occ. eigenvalues --   -1.03510  -0.96028  -0.95988  -0.87033  -0.87019
 Alpha  occ. eigenvalues --   -0.79671  -0.79591  -0.78432  -0.78161  -0.65446
 Alpha  occ. eigenvalues --   -0.64839  -0.61232  -0.60717  -0.59433  -0.59305
 Alpha  occ. eigenvalues --   -0.57622  -0.57614  -0.55378  -0.55229  -0.52708
 Alpha  occ. eigenvalues --   -0.52687  -0.52451  -0.52419  -0.49992  -0.49937
 Alpha  occ. eigenvalues --   -0.48152  -0.47806  -0.46812  -0.46632  -0.46235
 Alpha  occ. eigenvalues --   -0.45779  -0.45766  -0.45059  -0.43816  -0.43811
 Alpha virt. eigenvalues --    0.19945   0.23004   0.23529   0.24751   0.25856
 Alpha virt. eigenvalues --    0.26388   0.26766   0.27913   0.28505   0.29673
 Alpha virt. eigenvalues --    0.31022   0.31170   0.31564   0.31756   0.32016

 Mulliken charges:
               1
     1  C   -0.297641
     2  C   -0.299595
     3  C   -0.475752
     4  H    0.150091
     5  H    0.149730
     6  H    0.151995
     7  H    0.151189
     8  H    0.155377
     9  H    0.155386
    10  H    0.160329
    11  C   -0.307215
    12  C   -0.302191
    13  C   -0.482317
    14  H    0.149707
    15  H    0.156389
    16  H    0.153038
    17  H    0.152720
    18  H    0.162893
    19  H    0.154630
    20  H    0.160346
    21  C   -0.309389
    22  C   -0.299190
    23  C   -0.483755
    24  H    0.159428
    25  H    0.149845
    26  H    0.151004
    27  H    0.152531
    28  H    0.155802
    29  H    0.162965
    30  H    0.160405
    31  C   -0.297439
    32  C   -0.299886
    33  C   -0.475756
    34  H    0.149236
    35  H    0.149780
    36  H    0.152584
    37  H    0.152040
    38  H    0.155121
    39  H    0.155225
    40  H    0.160340
 Sum of Mulliken charges =  -0.00000

 Dipole moment (field-independent basis, Debye):
    X=              0.0049    Y=             -0.0027    Z=             -0.0061  Tot=              0.0083
 Quadrupole moment (field-independent basis, Debye-Ang):
   XX=            -84.8224   YY=            -85.5488   ZZ=            -84.3669
   XY=             -0.7348   XZ=              1.0617   YZ=             -0.4573

 Normal termination of Gaussian 16 at Wed May  5 21:23:28 2021.
