 Gaussian 16, Revision A.03,
 Gaussian 16:  EM64L-G16RevA.03 25-Dec-2016

 -------------
 #p 6-31g* mp2
 -------------

 ------------------------------------------------------
 Input file generated by CHIRIPA (05-May-2021 14:57:26)
 ------------------------------------------------------
 Symbolic Z-matrix:
 Charge =  0 Multiplicity = 1

                         Standard orientation:
 ---------------------------------------------------------------------
 Center     Atomic      Atomic             Coordinates (Angstroms)
 Number     Number       Type             X           Y           Z
 ---------------------------------------------------------------------
      1          6           0        4.780799    1.683652    0.465811
      2          6           0        4.445031    1.372188   -0.855844
      3          6           0        3.678615    0.239409   -1.145614
      4          6           0        3.262920   -0.563449   -0.084526
      5          6           0        3.581205   -0.279708    1.242680
      6          6           0        4.348576    0.858165    1.509015
      7          1           0        5.376540    2.565600    0.681808
      8          1           0        4.779319    2.011460   -1.668019
      9          1           0        3.404336   -0.025166   -2.159610
     10          1           0        3.233410   -0.936062    2.031132
     11          1           0        4.607835    1.097593    2.536392
     12          7           0        2.451044   -1.765368   -0.378888
     13          8           0        2.097108   -2.456565    0.573799
     14          8           0        2.184004   -1.993476   -1.556722
     15          6           0       -1.345246    1.822063   -0.152034
     16          6           0       -2.616265    2.375582   -0.338175
     17          6           0       -3.759914    1.577933   -0.236344
     18          6           0       -3.595057    0.224529    0.054192
     19          6           0       -2.342288   -0.356377    0.245005
     20          6           0       -1.212548    0.460251    0.138451
     21          1           0       -0.462234    2.449068   -0.232973
     22          1           0       -2.722339    3.432868   -0.563872
     23          1           0       -4.755877    1.980488   -0.375723
     24          1           0       -2.268366   -1.413649    0.468901
     25          1           0       -0.226714    0.027660    0.283506
     26          7           0       -4.798424   -0.629952    0.164496
     27          8           0       -4.626321   -1.819501    0.421378
     28          8           0       -5.890941   -0.093964   -0.008018
 ---------------------------------------------------------------------

 SCF Done:  E(RHF) =  -868.337945002     A.U. after   16 cycles
 E2 =    -0.2599498379D+01 EUMP2 =    -0.87093744338177D+03

 The electronic state is 1-A.
 Alpha  occ. eigenvalues --  -20.61712 -20.61696 -20.60358 -20.60339 -15.86752
 Alpha  occ. eigenvalues --  -15.85404 -11.32108 -11.30773 -11.28649 -11.28644
 Alpha  occ. eigenvalues --  -11.28356 -11.27632 -11.27618 -11.27391 -11.27275
 Alpha  occ. eigenvalues --  -11.27161 -11.26437 -11.26350  -1.60799  -1.59427
 Alpha  occ. eigenvalues --   -1.40341  -1.38979  -1.20269  -1.18961  -1.09662
 Alpha  occ. eigenvalues --   -1.08373  -1.05643  -1.04355  -0.96493  -0.95197
 Alpha  occ. eigenvalues --   -0.87038  -0.85769  -0.83305  -0.82019  -0.78367
 Alpha  occ. eigenvalues --   -0.77053  -0.72943  -0.72163  -0.71623  -0.71331
 Alpha  occ. eigenvalues --   -0.70750  -0.70094  -0.65896  -0.65616  -0.64617
 Alpha  occ. eigenvalues --   -0.64371  -0.62972  -0.61691  -0.56119  -0.54912
 Alpha  occ. eigenvalues --   -0.54006  -0.53709  -0.52700  -0.52452  -0.49717
 Alpha  occ. eigenvalues --   -0.49708  -0.48389  -0.48372  -0.45734  -0.44382
 Alpha  occ. eigenvalues --   -0.38254  -0.37256  -0.36977  -0.35951
 Alpha virt. eigenvalues --    0.04127   0.05473   0.10387   0.11690   0.15623
 Alpha virt. eigenvalues --    0.16946   0.20646   0.21556   0.26573   0.26943
 Alpha virt. eigenvalues --    0.27615   0.28665   0.30159   0.31004   0.31800

 Mulliken charges:
               1
     1  C   -0.171126
     2  C   -0.219756
     3  C   -0.173052
     4  C    0.151278
     5  C   -0.174002
     6  C   -0.218738
     7  H    0.228417
     8  H    0.226004
     9  H    0.278027
    10  H    0.277967
    11  H    0.226661
    12  N    0.486156
    13  O   -0.459945
    14  O   -0.455788
    15  C   -0.171814
    16  C   -0.218849
    17  C   -0.171457
    18  C    0.158080
    19  C   -0.170152
    20  C   -0.217293
    21  H    0.221522
    22  H    0.220569
    23  H    0.274246
    24  H    0.282787
    25  H    0.222937
    26  N    0.487962
    27  O   -0.458048
    28  O   -0.462592
 Sum of Mulliken charges =  -0.00000

 Dipole moment (field-independent basis, Debye):
    X=              7.3342    Y=              7.1312    Z=              0.6518  Tot=             10.2504
 Quadrupole moment (field-independent basis, Debye-Ang):
   XX=           -115.5795   YY=           -105.7699   ZZ=           -100.7396
   XY=              0.4476   XZ=              5.2666   YZ=             -2.9216

 Normal termination of Gaussian 16 at Fri May  7 01:59:01 2021.
