 Gaussian 16, Revision A.03,
 Gaussian 16:  EM64L-G16RevA.03 25-Dec-2016

 -------------
 #p 6-31g* mp2
 -------------

 ------------------------------------------------------
 Input file generated by CHIRIPA (05-May-2021 14:51:14)
 ------------------------------------------------------
 Symbolic Z-matrix:
 Charge =  0 Multiplicity = 1

                         Standard orientation:
 ---------------------------------------------------------------------
 Center     Atomic      Atomic             Coordinates (Angstroms)
 Number     Number       Type             X           Y           Z
 ---------------------------------------------------------------------
      1          6           0        2.706251   -0.070745    0.296546
      2          6           0        4.082384    0.457662   -0.109691
      3          6           0        4.435013    1.777623    0.576713
      4          1           0        1.945066    0.684045    0.056055
      5          1           0        2.679911   -0.204873    1.386826
      6          1           0        4.106578    0.589442   -1.199032
      7          1           0        4.840359   -0.298551    0.131619
      8          1           0        4.438562    1.657062    1.664855
      9          1           0        3.700612    2.550101    0.326643
     10          1           0        5.422781    2.137237    0.271997
     11          6           0        2.339449   -1.389691   -0.381366
     12          6           0        0.963316   -1.918098    0.024870
     13          6           0        0.610687   -3.238059   -0.661533
     14          1           0        2.365789   -1.255563   -1.471646
     15          1           0        3.100634   -2.144481   -0.140875
     16          1           0        0.205340   -1.161885   -0.216440
     17          1           0        0.939121   -2.049878    1.114212
     18          1           0        1.345088   -4.010537   -0.411463
     19          1           0        0.607137   -3.117498   -1.749675
     20          1           0       -0.377081   -3.597673   -0.356817
     21          6           0       -2.719396    0.043311   -0.227701
     22          6           0       -3.001249   -0.982272    0.870809
     23          6           0       -3.393181   -2.351555    0.314707
     24          1           0       -3.610084    0.145131   -0.862723
     25          1           0       -1.915672   -0.334392   -0.874820
     26          1           0       -3.803255   -0.602129    1.516482
     27          1           0       -2.109853   -1.081523    1.503404
     28          1           0       -2.592670   -2.755816   -0.313270
     29          1           0       -4.295694   -2.273699   -0.300118
     30          1           0       -3.590183   -3.069331    1.117109
     31          6           0       -2.326304    1.417126    0.312522
     32          6           0       -2.044450    2.442708   -0.785988
     33          6           0       -1.652518    3.811991   -0.229887
     34          1           0       -3.130029    1.794828    0.959640
     35          1           0       -1.435616    1.315304    0.947543
     36          1           0       -2.935847    2.541959   -1.418584
     37          1           0       -1.242445    2.062565   -1.431662
     38          1           0       -0.750006    3.734134    0.384938
     39          1           0       -2.453030    4.216252    0.398091
     40          1           0       -1.455516    4.529767   -1.032289
 ---------------------------------------------------------------------

 SCF Done:  E(RHF) =  -470.732604511     A.U. after   11 cycles
 E2 =    -0.1584599077D+01 EUMP2 =    -0.47231720358767D+03

 The electronic state is 1-A.
 Alpha  occ. eigenvalues --  -11.21655 -11.21649 -11.21635 -11.21568 -11.21471
 Alpha  occ. eigenvalues --  -11.21411 -11.21407 -11.21345 -11.21117 -11.21108
 Alpha  occ. eigenvalues --  -11.21096 -11.21036  -1.08518  -1.08417  -1.03625
 Alpha  occ. eigenvalues --   -1.03500  -0.96058  -0.95969  -0.87098  -0.86962
 Alpha  occ. eigenvalues --   -0.79671  -0.79585  -0.78320  -0.78248  -0.65349
 Alpha  occ. eigenvalues --   -0.64903  -0.61159  -0.60857  -0.59384  -0.59321
 Alpha  occ. eigenvalues --   -0.57678  -0.57555  -0.55321  -0.55303  -0.52781
 Alpha  occ. eigenvalues --   -0.52671  -0.52516  -0.52318  -0.50079  -0.49852
 Alpha  occ. eigenvalues --   -0.47939  -0.47901  -0.46774  -0.46583  -0.46034
 Alpha  occ. eigenvalues --   -0.45853  -0.45667  -0.45455  -0.43824  -0.43788
 Alpha virt. eigenvalues --    0.19634   0.22242   0.23561   0.25260   0.25865
 Alpha virt. eigenvalues --    0.26356   0.26637   0.27597   0.28826   0.29929
 Alpha virt. eigenvalues --    0.30521   0.31101   0.31528   0.31751   0.32249

 Mulliken charges:
               1
     1  C   -0.298789
     2  C   -0.299673
     3  C   -0.475803
     4  H    0.149130
     5  H    0.149642
     6  H    0.152097
     7  H    0.152216
     8  H    0.155246
     9  H    0.155216
    10  H    0.160520
    11  C   -0.297818
    12  C   -0.308067
    13  C   -0.481017
    14  H    0.149503
    15  H    0.150088
    16  H    0.159836
    17  H    0.152058
    18  H    0.155914
    19  H    0.154934
    20  H    0.165531
    21  C   -0.302115
    22  C   -0.301090
    23  C   -0.481417
    24  H    0.150298
    25  H    0.151867
    26  H    0.151963
    27  H    0.154630
    28  H    0.160627
    29  H    0.155181
    30  H    0.159831
    31  C   -0.299980
    32  C   -0.299526
    33  C   -0.475788
    34  H    0.149903
    35  H    0.150939
    36  H    0.152208
    37  H    0.150811
    38  H    0.155176
    39  H    0.155472
    40  H    0.160244
 Sum of Mulliken charges =  -0.00000

 Dipole moment (field-independent basis, Debye):
    X=              0.0141    Y=             -0.0102    Z=              0.0083  Tot=              0.0193
 Quadrupole moment (field-independent basis, Debye-Ang):
   XX=            -83.8725   YY=            -86.3993   ZZ=            -84.4248
   XY=             -1.2213   XZ=              0.0934   YZ=             -1.0468

 Normal termination of Gaussian 16 at Thu May  6 04:00:03 2021.
